
     Program PWSCF v.7.2 starts on 19Nov2025 at 23:25:27 

     This program is part of the open-source Quantum ESPRESSO suite
     for quantum simulation of materials; please cite
         "P. Giannozzi et al., J. Phys.:Condens. Matter 21 395502 (2009);
         "P. Giannozzi et al., J. Phys.:Condens. Matter 29 465901 (2017);
         "P. Giannozzi et al., J. Chem. Phys. 152 154105 (2020);
          URL http://www.quantum-espresso.org", 
     in publications or presentations arising from this work. More details at
     http://www.quantum-espresso.org/quote

     Parallel version (MPI), running on    64 processors

     MPI processes distributed on     4 nodes
     446199 MiB available memory on the printing compute node when the environment starts
 
     Reading input from PWINPUT_atm157_xp

     Current dimensions of program PWSCF are:
     Max number of different atomic species (ntypx) = 10
     Max number of k-points (npk) =  40000
     Max angular momentum in pseudopotentials (lmaxx) =  4
     Presently no symmetry can be used with electric field

     file Ni.pbe-n-rrkjus_psl.1.0.0.UPF: wavefunction(s)  3D renormalized
     file Mn.pbe-spn-rrkjus_psl.0.3.1.UPF: wavefunction(s)  3D renormalized
     file O.pbe-rrkjus.UPF: wavefunction(s)  2S renormalized
     file H.pbe-rrkjus.UPF: wavefunction(s)  1S renormalized

     gamma-point specific algorithms are used
 
     R & G space division:  proc/nbgrp/npool/nimage =      64
     Subspace diagonalization in iterative solution of the eigenvalue problem:
     one sub-group per band group will be used
     custom distributed-memory algorithm (size of sub-group:  7*  7 procs)

 
     Parallelization info
     --------------------
     sticks:   dense  smooth     PW     G-vecs:    dense   smooth      PW
     Min         214      85     20                61830    15614    1928
     Max         216      86     22                61864    15658    1982
     Sum       13727    5503   1375              3958051  1001255  125211
 
     Using Slab Decomposition
 


     bravais-lattice index     =            0
     lattice parameter (alat)  =      17.8532  a.u.
     unit-cell volume          =   20962.6682 (a.u.)^3
     number of atoms/cell      =          158
     number of atomic types    =            5
     number of electrons       =      1108.00
     number of Kohn-Sham states=          665
     kinetic-energy cutoff     =      50.0000  Ry
     charge density cutoff     =     500.0000  Ry
     scf convergence threshold =      1.0E-06
     mixing beta               =       0.5000
     number of iterations used =            8  local-TF  mixing
     Exchange-correlation=  SLA  PW   PBE  PBE
                           (   1   4   3   4   0   0   0)

     celldm(1)=  17.853155  celldm(2)=   0.000000  celldm(3)=   0.000000
     celldm(4)=   0.000000  celldm(5)=   0.000000  celldm(6)=   0.000000

     crystal axes: (cart. coord. in units of alat)
               a(1) = (   1.000000   0.000000   0.000000 )  
               a(2) = (   0.003237   1.081997   0.000000 )  
               a(3) = (   0.000000   0.000000   3.404673 )  

     reciprocal axes: (cart. coord. in units 2 pi/alat)
               b(1) = (  1.000000 -0.002992  0.000000 )  
               b(2) = (  0.000000  0.924217  0.000000 )  
               b(3) = (  0.000000  0.000000  0.293714 )  


     PseudoPot. # 1 for Ni read from file:
     ~/PSEUDO/Ni.pbe-n-rrkjus_psl.1.0.0.UPF
     MD5 check sum: Not computed, couldn't open file
     Pseudo is Ultrasoft + core correction, Zval = 10.0
     Generated using "atomic" code by A. Dal Corso  v.5.1.2
     Using radial grid of 1195 points,  6 beta functions with: 
                l(1) =   0
                l(2) =   0
                l(3) =   1
                l(4) =   1
                l(5) =   2
                l(6) =   2
     Q(r) pseudized with 0 coefficients 


     PseudoPot. # 2 for Mn read from file:
     ~/PSEUDO/Mn.pbe-spn-rrkjus_psl.0.3.1.UPF
     MD5 check sum: Not computed, couldn't open file
     Pseudo is Ultrasoft + core correction, Zval = 15.0
     Generated using &quot;atomic&quot; code by A. Dal Corso  v.6.2.2
     Using radial grid of 1187 points,  6 beta functions with: 
                l(1) =   0
                l(2) =   0
                l(3) =   1
                l(4) =   1
                l(5) =   2
                l(6) =   2
     Q(r) pseudized with 0 coefficients 


     PseudoPot. # 3 for P  read from file:
     ~/PSEUDO/P.pbe-n-rrkjus_psl.1.0.0.UPF
     MD5 check sum: Not computed, couldn't open file
     Pseudo is Ultrasoft + core correction, Zval =  5.0
     Generated using "atomic" code by A. Dal Corso  v.5.1
     Using radial grid of 1147 points,  6 beta functions with: 
                l(1) =   0
                l(2) =   0
                l(3) =   1
                l(4) =   1
                l(5) =   2
                l(6) =   2
     Q(r) pseudized with 0 coefficients 


     PseudoPot. # 4 for O  read from file:
     ~/PSEUDO/O.pbe-rrkjus.UPF
     MD5 check sum: Not computed, couldn't open file
     Pseudo is Ultrasoft, Zval =  6.0
     Generated by new atomic code, or converted to UPF format
     Using radial grid of 1269 points,  4 beta functions with: 
                l(1) =   0
                l(2) =   0
                l(3) =   1
                l(4) =   1
     Q(r) pseudized with 0 coefficients 


     PseudoPot. # 5 for H  read from file:
     ~/PSEUDO/H.pbe-rrkjus.UPF
     MD5 check sum: Not computed, couldn't open file
     Pseudo is Ultrasoft, Zval =  1.0
     Generated by new atomic code, or converted to UPF format
     Using radial grid of 1061 points,  2 beta functions with: 
                l(1) =   0
                l(2) =   0
     Q(r) pseudized with 0 coefficients 


     atomic species   valence    mass     pseudopotential
     Ni               10.00    58.69300     Ni( 1.00)
     Mn               15.00    54.93800     Mn( 1.00)
     P                 5.00    30.97300     P ( 1.00)
     O                 6.00    15.99900     O ( 1.00)
     H                 1.00     1.00790     H ( 1.00)

     Starting magnetic structure 
     atomic species   magnetization
     Ni              1.000
     Mn              1.000
     P               1.000
     O               1.000
     H               0.000

     No symmetry found



   Cartesian axes

     site n.     atom                  positions (alat units)
         1        Ni     tau(   1) = (   0.2422259   0.8412654   1.7135021  )
         2        Ni     tau(   2) = (   0.4939939   0.7703882   1.3745235  )
         3        Mn     tau(   3) = (   0.0000622   0.2881594   1.6998608  )
         4        Ni     tau(   4) = (   0.2575438   0.2247311   1.3772755  )
         5        Ni     tau(   5) = (   1.0001613   1.0688286   1.5379356  )
         6        Ni     tau(   6) = (   0.2547438   0.5337506   1.5423852  )
         7        Ni     tau(   7) = (   0.7513156   0.8294534   1.6816756  )
         8        Mn     tau(   8) = (   0.9892084   0.7665403   1.3736225  )
         9        Mn     tau(   9) = (   0.4989277   0.2948958   1.6996914  )
        10        Ni     tau(  10) = (   0.7551301   0.2242805   1.3768936  )
        11        Ni     tau(  11) = (   0.4972159   1.0711780   1.5373138  )
        12        Ni     tau(  12) = (   0.7540948   0.5300080   1.5408646  )
        13        P      tau(  13) = (   0.2134946   0.9657767   1.3822356  )
        14        P      tau(  14) = (   0.4661089   0.6500297   1.6909232  )
        15        P      tau(  15) = (   0.2845404   0.0987020   1.6930817  )
        16        P      tau(  16) = (   0.0413508   0.4217554   1.3879311  )
        17        O      tau(  17) = (   0.1375837   0.8978226   1.5176406  )
        18        O      tau(  18) = (   0.3887107   0.7011557   1.5470611  )
        19        O      tau(  19) = (   0.3618628   0.1611333   1.5509837  )
        20        O      tau(  20) = (   0.1189827   0.3568247   1.5240423  )
        21        O      tau(  21) = (   0.1540234   0.8767886   1.2572786  )
        22        O      tau(  22) = (   0.4110393   0.7496192   1.8050939  )
        23        O      tau(  23) = (   0.3377663   0.1986516   1.8089954  )
        24        O      tau(  24) = (   0.0997683   0.3312674   1.2645563  )
        25        O      tau(  25) = (   0.0989528   0.5758934   1.3854866  )
        26        O      tau(  26) = (   0.3497729   1.0280907   1.6930286  )
        27        O      tau(  27) = (   0.3790282   0.4183038   1.3960614  )
        28        O      tau(  28) = (   0.1208846   0.1037110   1.6793767  )
        29        O      tau(  29) = (   0.1286718   0.6449077   1.6890912  )
        30        O      tau(  30) = (   0.4112377   0.4929637   1.7009712  )
        31        O      tau(  31) = (   0.1495635   0.0377931   1.3821793  )
        32        O      tau(  32) = (   0.3765682   0.9602194   1.3906658  )
        33        P      tau(  33) = (   0.7075432   0.9666523   1.3784783  )
        34        P      tau(  34) = (   0.9652203   0.6409374   1.7033271  )
        35        P      tau(  35) = (   0.7832453   0.0931683   1.6926874  )
        36        P      tau(  36) = (   0.5417589   0.4270160   1.3849132  )
        37        O      tau(  37) = (   0.6313395   0.8958630   1.5135851  )
        38        O      tau(  38) = (   0.8885617   0.6990470   1.5595003  )
        39        O      tau(  39) = (   0.8598518   0.1543399   1.5504633  )
        40        O      tau(  40) = (   0.6193560   0.3582236   1.5201696  )
        41        O      tau(  41) = (   0.6486466   0.8777050   1.2536013  )
        42        O      tau(  42) = (   0.9019443   0.7356849   1.8178004  )
        43        O      tau(  43) = (   0.8422733   0.1897880   1.8089519  )
        44        O      tau(  44) = (   0.6013153   0.3355234   1.2622316  )
        45        O      tau(  45) = (   0.6019813   0.5803347   1.3826084  )
        46        O      tau(  46) = (   0.8418205   1.0195119   1.6947938  )
        47        O      tau(  47) = (   0.8784115   0.4141755   1.3983387  )
        48        O      tau(  48) = (   0.6198107   0.1022917   1.6830133  )
        49        O      tau(  49) = (   0.6307259   0.6490344   1.6799765  )
        50        O      tau(  50) = (   0.9102631   0.4838853   1.7042751  )
        51        O      tau(  51) = (   0.6452681   0.0385369   1.3812216  )
        52        O      tau(  52) = (   0.8702745   0.9586382   1.3915595  )
        53        Ni     tau(  53) = (   0.2420320   0.8169913   1.0699082  )
        54        Ni     tau(  54) = (   0.4893084   0.7542727   0.7477128  )
        55        Mn     tau(  55) = (   0.0085152   0.2729728   1.0755565  )
        56        Ni     tau(  56) = (   0.2558246   0.2079345   0.7498450  )
        57        Ni     tau(  57) = (   0.9991959   1.0516583   0.9080455  )
        58        Ni     tau(  58) = (   0.2490231   0.5149840   0.9092594  )
        59        Ni     tau(  59) = (   0.7373131   0.8159965   1.0690453  )
        60        Mn     tau(  60) = (   0.9859093   0.7511625   0.7423903  )
        61        Mn     tau(  61) = (   0.5085552   0.2755447   1.0757185  )
        62        Ni     tau(  62) = (   0.7532989   0.2074622   0.7493279  )
        63        Ni     tau(  63) = (   0.4981517   1.0523018   0.9093468  )
        64        Ni     tau(  64) = (   0.7469109   0.5147379   0.9081681  )
        65        P      tau(  65) = (   0.2119924   0.9497675   0.7533413  )
        66        P      tau(  66) = (   0.4579509   0.6252695   1.0650744  )
        67        P      tau(  67) = (   0.2855349   0.0724244   1.0650326  )
        68        P      tau(  68) = (   0.0381112   0.4032615   0.7561117  )
        69        O      tau(  69) = (   0.1352995   0.8818598   0.8892857  )
        70        O      tau(  70) = (   0.3789570   0.6924463   0.9291468  )
        71        O      tau(  71) = (   0.3610496   0.1419327   0.9291660  )
        72        O      tau(  72) = (   0.1179700   0.3356534   0.8894858  )
        73        O      tau(  73) = (   0.1524325   0.8608343   0.6290918  )
        74        O      tau(  74) = (   0.3994952   0.7128748   1.1905493  )
        75        O      tau(  75) = (   0.3426976   0.1634744   1.1889742  )
        76        O      tau(  76) = (   0.0989151   0.3155758   0.6321220  )
        77        O      tau(  77) = (   0.0942206   0.5581494   0.7569623  )
        78        O      tau(  78) = (   0.3506297   1.0014456   1.0645371  )
        79        O      tau(  79) = (   0.3750155   0.3983181   0.7655049  )
        80        O      tau(  80) = (   0.1228303   0.0764842   1.0543924  )
        81        O      tau(  81) = (   0.1204299   0.6293201   1.0530905  )
        82        O      tau(  82) = (   0.4000664   0.4708612   1.0626359  )
        83        O      tau(  83) = (   0.1483182   0.0216333   0.7546099  )
        84        O      tau(  84) = (   0.3748687   0.9435072   0.7627918  )
        85        P      tau(  85) = (   0.7056901   0.9492898   0.7521526  )
        86        P      tau(  86) = (   0.9575286   0.6220438   1.0623609  )
        87        P      tau(  87) = (   0.7847866   0.0710549   1.0641979  )
        88        P      tau(  88) = (   0.5377283   0.4083400   0.7551622  )
        89        O      tau(  89) = (   0.6295714   0.8788409   0.8879407  )
        90        O      tau(  90) = (   0.8781778   0.6902700   0.9288966  )
        91        O      tau(  91) = (   0.8603186   0.1398018   0.9279591  )
        92        O      tau(  92) = (   0.6174712   0.3389159   0.8881839  )
        93        O      tau(  93) = (   0.6471291   0.8583376   0.6285166  )
        94        O      tau(  94) = (   0.8962302   0.7094244   1.1861651  )
        95        O      tau(  95) = (   0.8420493   0.1616933   1.1885419  )
        96        O      tau(  96) = (   0.5995227   0.3203391   0.6315608  )
        97        O      tau(  97) = (   0.5932354   0.5636910   0.7569738  )
        98        O      tau(  98) = (   0.8487155   0.9994995   1.0634446  )
        99        O      tau(  99) = (   0.8751772   0.3959680   0.7655094  )
       100        O      tau( 100) = (   0.6223291   0.0767949   1.0539182  )
       101        O      tau( 101) = (   0.6209785   0.6292365   1.0537708  )
       102        O      tau( 102) = (   0.9010178   0.4674118   1.0608723  )
       103        O      tau( 103) = (   0.6430869   0.0213354   0.7538098  )
       104        O      tau( 104) = (   0.8684566   0.9446034   0.7630440  )
       105        Ni     tau( 105) = (   0.2392451   0.7980692   0.4424501  )
       106        Ni     tau( 106) = (   0.4865215   0.7353506   0.1202547  )
       107        Mn     tau( 107) = (   0.0057284   0.2540508   0.4480984  )
       108        Ni     tau( 108) = (   0.2530377   0.1890124   0.1223869  )
       109        Ni     tau( 109) = (   0.9964090   1.0327362   0.2805874  )
       110        Ni     tau( 110) = (   0.2462362   0.4960619   0.2818013  )
       111        Ni     tau( 111) = (   0.7345262   0.7970744   0.4415872  )
       112        Mn     tau( 112) = (   0.9831224   0.7322404   0.1149322  )
       113        Mn     tau( 113) = (   0.5057684   0.2566226   0.4482604  )
       114        Ni     tau( 114) = (   0.7505120   0.1885401   0.1218698  )
       115        Ni     tau( 115) = (   0.4953648   1.0333797   0.2818887  )
       116        Ni     tau( 116) = (   0.7441241   0.4958159   0.2807100  )
       117        P      tau( 117) = (   0.2092055   0.9308455   0.1258832  )
       118        P      tau( 118) = (   0.4551640   0.6063475   0.4376163  )
       119        P      tau( 119) = (   0.2827481   0.0535023   0.4375745  )
       120        P      tau( 120) = (   0.0353243   0.3843395   0.1286536  )
       121        O      tau( 121) = (   0.1325127   0.8629378   0.2618276  )
       122        O      tau( 122) = (   0.3761702   0.6735242   0.3016887  )
       123        O      tau( 123) = (   0.3582627   0.1230106   0.3017079  )
       124        O      tau( 124) = (   0.1151831   0.3167313   0.2620277  )
       125        O      tau( 125) = (   0.1496456   0.8419122   0.0016337  )
       126        O      tau( 126) = (   0.3967083   0.6939527   0.5630912  )
       127        O      tau( 127) = (   0.3399107   0.1445523   0.5615161  )
       128        O      tau( 128) = (   0.0961282   0.2966537   0.0046639  )
       129        O      tau( 129) = (   0.0914337   0.5392273   0.1295042  )
       130        O      tau( 130) = (   0.3478428   0.9825235   0.4370790  )
       131        O      tau( 131) = (   0.3722287   0.3793961   0.1380469  )
       132        O      tau( 132) = (   0.1200434   0.0575621   0.4269343  )
       133        O      tau( 133) = (   0.1176431   0.6103980   0.4256324  )
       134        O      tau( 134) = (   0.3972796   0.4519391   0.4351778  )
       135        O      tau( 135) = (   0.1455313   0.0027113   0.1271518  )
       136        O      tau( 136) = (   0.3720819   0.9245852   0.1353338  )
       137        P      tau( 137) = (   0.7029032   0.9303678   0.1246945  )
       138        P      tau( 138) = (   0.9547417   0.6031217   0.4349028  )
       139        P      tau( 139) = (   0.7819997   0.0521328   0.4367398  )
       140        P      tau( 140) = (   0.5349415   0.3894179   0.1277041  )
       141        O      tau( 141) = (   0.6267846   0.8599188   0.2604826  )
       142        O      tau( 142) = (   0.8753909   0.6713480   0.3014385  )
       143        O      tau( 143) = (   0.8575317   0.1208797   0.3005010  )
       144        O      tau( 144) = (   0.6146843   0.3199938   0.2607258  )
       145        O      tau( 145) = (   0.6443422   0.8394155   0.0010585  )
       146        O      tau( 146) = (   0.8934434   0.6905023   0.5587070  )
       147        O      tau( 147) = (   0.8392624   0.1427713   0.5610838  )
       148        O      tau( 148) = (   0.5967359   0.3014171   0.0041027  )
       149        O      tau( 149) = (   0.5904485   0.5447689   0.1295157  )
       150        O      tau( 150) = (   0.8459286   0.9805774   0.4359865  )
       151        O      tau( 151) = (   0.8723903   0.3770459   0.1380513  )
       152        O      tau( 152) = (   0.6195422   0.0578729   0.4264602  )
       153        O      tau( 153) = (   0.6181917   0.6103144   0.4263127  )
       154        O      tau( 154) = (   0.8982309   0.4484897   0.4334142  )
       155        O      tau( 155) = (   0.6403000   0.0024133   0.1263517  )
       156        O      tau( 156) = (   0.8656697   0.9256814   0.1355859  )
       157        O      tau( 157) = (   1.1319670   0.9213103   1.8489698  )
       158        H      tau( 158) = (   1.0479508   0.8617503   1.8725428  )

     -------------------------------------------------
     Parameters for Dispersion (Grimme-D2) Correction:
     -------------------------------------------------
       atom      VdW radius       C_6     

        Ni         2.952        374.666
        Mn         2.952        374.666
        P          3.222        271.980
        O          2.536         24.284
        H          1.892          4.857

     number of k points=     1  Gaussian smearing, width (Ry)=  0.0100
                       cart. coord. in units 2pi/alat
        k(    1) = (   0.0000000   0.0000000   0.0000000), wk =   1.0000000

     Dense  grid:  1979026 G-vectors     FFT dimensions: ( 128, 144, 450)

     Smooth grid:   500628 G-vectors     FFT dimensions: (  81,  90, 288)

     Estimated max dynamical RAM per process >     333.40 MB

     Estimated total dynamical RAM >      20.84 GB

     Check: negative core charge=   -0.000002
     Generating pointlists ...
     new r_m :   0.0793 (alat units)  1.4150 (a.u.) for type    1
     new r_m :   0.0884 (alat units)  1.5790 (a.u.) for type    2
     new r_m :   0.0665 (alat units)  1.1872 (a.u.) for type    3
     new r_m :   0.0436 (alat units)  0.7780 (a.u.) for type    4
     new r_m :   0.0436 (alat units)  0.7780 (a.u.) for type    5

     Initial potential from superposition of free atoms

     starting charge    1107.8886, renormalised to    1108.0000

     negative rho (up, down):  1.506E-03 4.674E-04
 
     Adding external electric field

     Computed dipole along edir(3) : 
        Dipole                1.6401 Ry au,          4.1686 Debye
        Dipole field          0.0010 Ry au, 
 
        Potential amp.       -0.1076 Ry
        Total length         54.7057 bohr
 
 
     Adding external electric field

     Computed dipole along edir(3) : 
        Dipole                1.6401 Ry au,          4.1686 Debye
        Dipole field          0.0010 Ry au, 
 
        Potential amp.       -0.1076 Ry
        Total length         54.7057 bohr
 
     Starting wfcs are  818 randomized atomic wfcs

     total cpu time spent up to now is       10.2 secs

     Self-consistent Calculation

     iteration #  1     ecut=    50.00 Ry     beta= 0.50
     Davidson diagonalization with overlap
     ethr =  1.00E-02,  avg # of iterations =  5.5

     negative rho (up, down):  2.949E+00 1.922E-06
 
     Adding external electric field

     Computed dipole along edir(3) : 
        Dipole              -24.2671 Ry au,        -61.6809 Debye
        Dipole field         -0.0145 Ry au, 
 
        Potential amp.        1.5916 Ry
        Total length         54.7057 bohr
 
 
     Adding external electric field

     Computed dipole along edir(3) : 
        Dipole              -24.2671 Ry au,        -61.6809 Debye
        Dipole field         -0.0145 Ry au, 
 
        Potential amp.        1.5916 Ry
        Total length         54.7057 bohr
 

     total cpu time spent up to now is       35.9 secs

     total energy              =   -7894.59677627 Ry
     estimated scf accuracy    <     733.47459867 Ry

     total magnetization       =   222.00 Bohr mag/cell
     absolute magnetization    =   320.10 Bohr mag/cell

     iteration #  2     ecut=    50.00 Ry     beta= 0.50
     Davidson diagonalization with overlap
     ethr =  1.00E-02,  avg # of iterations =  9.5

     negative rho (up, down):  2.719E+00 6.006E-05
 
     Adding external electric field

     Computed dipole along edir(3) : 
        Dipole               -0.5483 Ry au,         -1.3936 Debye
        Dipole field         -0.0003 Ry au, 
 
        Potential amp.        0.0360 Ry
        Total length         54.7057 bohr
 
 
     Adding external electric field

     Computed dipole along edir(3) : 
        Dipole               -0.5483 Ry au,         -1.3936 Debye
        Dipole field         -0.0003 Ry au, 
 
        Potential amp.        0.0360 Ry
        Total length         54.7057 bohr
 

     total cpu time spent up to now is       64.3 secs

     total energy              =   -7979.11704805 Ry
     estimated scf accuracy    <    7536.73601724 Ry

     total magnetization       =   147.42 Bohr mag/cell
     absolute magnetization    =   184.00 Bohr mag/cell

     iteration #  3     ecut=    50.00 Ry     beta= 0.50
     Davidson diagonalization with overlap
     ethr =  1.00E-02,  avg # of iterations =  6.0

     negative rho (up, down):  1.847E+00 2.131E-04
 
     Adding external electric field

     Computed dipole along edir(3) : 
        Dipole               -2.9962 Ry au,         -7.6155 Debye
        Dipole field         -0.0018 Ry au, 
 
        Potential amp.        0.1965 Ry
        Total length         54.7057 bohr
 
 
     Adding external electric field

     Computed dipole along edir(3) : 
        Dipole               -2.9962 Ry au,         -7.6155 Debye
        Dipole field         -0.0018 Ry au, 
 
        Potential amp.        0.1965 Ry
        Total length         54.7057 bohr
 

     total cpu time spent up to now is       81.7 secs

     total energy              =   -8044.18280498 Ry
     estimated scf accuracy    <     505.34698130 Ry

     total magnetization       =   134.69 Bohr mag/cell
     absolute magnetization    =   177.53 Bohr mag/cell

     iteration #  4     ecut=    50.00 Ry     beta= 0.50
     Davidson diagonalization with overlap
     ethr =  1.00E-02,  avg # of iterations =  2.5

     negative rho (up, down):  1.241E+00 1.113E-04
 
     Adding external electric field

     Computed dipole along edir(3) : 
        Dipole               -3.1816 Ry au,         -8.0867 Debye
        Dipole field         -0.0019 Ry au, 
 
        Potential amp.        0.2087 Ry
        Total length         54.7057 bohr
 
 
     Adding external electric field

     Computed dipole along edir(3) : 
        Dipole               -3.1816 Ry au,         -8.0867 Debye
        Dipole field         -0.0019 Ry au, 
 
        Potential amp.        0.2087 Ry
        Total length         54.7057 bohr
 

     total cpu time spent up to now is       95.0 secs

     total energy              =   -8060.28207182 Ry
     estimated scf accuracy    <     146.58544565 Ry

     total magnetization       =   101.96 Bohr mag/cell
     absolute magnetization    =   147.42 Bohr mag/cell

     iteration #  5     ecut=    50.00 Ry     beta= 0.50
     Davidson diagonalization with overlap
     ethr =  1.00E-02,  avg # of iterations =  1.5

     negative rho (up, down):  6.508E-01 0.000E+00
 
     Adding external electric field

     Computed dipole along edir(3) : 
        Dipole               -3.3310 Ry au,         -8.4667 Debye
        Dipole field         -0.0020 Ry au, 
 
        Potential amp.        0.2185 Ry
        Total length         54.7057 bohr
 
 
     Adding external electric field

     Computed dipole along edir(3) : 
        Dipole               -3.3310 Ry au,         -8.4667 Debye
        Dipole field         -0.0020 Ry au, 
 
        Potential amp.        0.2185 Ry
        Total length         54.7057 bohr
 

     total cpu time spent up to now is      106.7 secs

     total energy              =   -8069.74190428 Ry
     estimated scf accuracy    <      76.76160169 Ry

     total magnetization       =   100.00 Bohr mag/cell
     absolute magnetization    =   134.97 Bohr mag/cell

     iteration #  6     ecut=    50.00 Ry     beta= 0.50
     Davidson diagonalization with overlap
     ethr =  6.93E-03,  avg # of iterations =  1.0

     negative rho (up, down):  1.073E-01 0.000E+00
 
     Adding external electric field

     Computed dipole along edir(3) : 
        Dipole               -3.8325 Ry au,         -9.7413 Debye
        Dipole field         -0.0023 Ry au, 
 
        Potential amp.        0.2514 Ry
        Total length         54.7057 bohr
 
 
     Adding external electric field

     Computed dipole along edir(3) : 
        Dipole               -3.8325 Ry au,         -9.7413 Debye
        Dipole field         -0.0023 Ry au, 
 
        Potential amp.        0.2514 Ry
        Total length         54.7057 bohr
 

     total cpu time spent up to now is      117.7 secs

     total energy              =   -8074.61181651 Ry
     estimated scf accuracy    <      60.59230444 Ry

     total magnetization       =    99.98 Bohr mag/cell
     absolute magnetization    =   125.28 Bohr mag/cell

     iteration #  7     ecut=    50.00 Ry     beta= 0.50
     Davidson diagonalization with overlap
     ethr =  5.47E-03,  avg # of iterations =  1.5

     negative rho (up, down):  1.636E-03 6.303E-05
 
     Adding external electric field

     Computed dipole along edir(3) : 
        Dipole               -4.0372 Ry au,        -10.2616 Debye
        Dipole field         -0.0024 Ry au, 
 
        Potential amp.        0.2648 Ry
        Total length         54.7057 bohr
 
 
     Adding external electric field

     Computed dipole along edir(3) : 
        Dipole               -4.0372 Ry au,        -10.2616 Debye
        Dipole field         -0.0024 Ry au, 
 
        Potential amp.        0.2648 Ry
        Total length         54.7057 bohr
 

     total cpu time spent up to now is      129.6 secs

     total energy              =   -8077.53585414 Ry
     estimated scf accuracy    <      33.86768019 Ry

     total magnetization       =    94.33 Bohr mag/cell
     absolute magnetization    =   109.26 Bohr mag/cell

     iteration #  8     ecut=    50.00 Ry     beta= 0.50
     Davidson diagonalization with overlap
     ethr =  3.06E-03,  avg # of iterations =  1.5

     negative rho (up, down):  6.996E-04 1.930E-04
 
     Adding external electric field

     Computed dipole along edir(3) : 
        Dipole               -3.9901 Ry au,        -10.1418 Debye
        Dipole field         -0.0024 Ry au, 
 
        Potential amp.        0.2617 Ry
        Total length         54.7057 bohr
 
 
     Adding external electric field

     Computed dipole along edir(3) : 
        Dipole               -3.9901 Ry au,        -10.1418 Debye
        Dipole field         -0.0024 Ry au, 
 
        Potential amp.        0.2617 Ry
        Total length         54.7057 bohr
 

     total cpu time spent up to now is      141.6 secs

     total energy              =   -8078.49562526 Ry
     estimated scf accuracy    <      32.94922587 Ry

     total magnetization       =    89.81 Bohr mag/cell
     absolute magnetization    =    99.36 Bohr mag/cell

     iteration #  9     ecut=    50.00 Ry     beta= 0.50
     Davidson diagonalization with overlap
     ethr =  2.97E-03,  avg # of iterations =  1.5

     negative rho (up, down):  3.293E-04 7.999E-04
 
     Adding external electric field

     Computed dipole along edir(3) : 
        Dipole               -3.9855 Ry au,        -10.1302 Debye
        Dipole field         -0.0024 Ry au, 
 
        Potential amp.        0.2614 Ry
        Total length         54.7057 bohr
 
 
     Adding external electric field

     Computed dipole along edir(3) : 
        Dipole               -3.9855 Ry au,        -10.1302 Debye
        Dipole field         -0.0024 Ry au, 
 
        Potential amp.        0.2614 Ry
        Total length         54.7057 bohr
 

     total cpu time spent up to now is      153.6 secs

     total energy              =   -8078.38333619 Ry
     estimated scf accuracy    <      34.92394925 Ry

     total magnetization       =    94.59 Bohr mag/cell
     absolute magnetization    =   102.66 Bohr mag/cell

     iteration # 10     ecut=    50.00 Ry     beta= 0.50
     Davidson diagonalization with overlap
     ethr =  2.97E-03,  avg # of iterations =  1.5

     negative rho (up, down):  3.795E-04 4.245E-03
 
     Adding external electric field

     Computed dipole along edir(3) : 
        Dipole               -3.9159 Ry au,         -9.9531 Debye
        Dipole field         -0.0023 Ry au, 
 
        Potential amp.        0.2568 Ry
        Total length         54.7057 bohr
 
 
     Adding external electric field

     Computed dipole along edir(3) : 
        Dipole               -3.9159 Ry au,         -9.9531 Debye
        Dipole field         -0.0023 Ry au, 
 
        Potential amp.        0.2568 Ry
        Total length         54.7057 bohr
 

     total cpu time spent up to now is      164.7 secs

     total energy              =   -8078.28225196 Ry
     estimated scf accuracy    <      45.54619103 Ry

     total magnetization       =    93.82 Bohr mag/cell
     absolute magnetization    =   100.61 Bohr mag/cell

     iteration # 11     ecut=    50.00 Ry     beta= 0.50
     Davidson diagonalization with overlap
     ethr =  2.97E-03,  avg # of iterations =  1.5

     negative rho (up, down):  3.088E-06 1.642E-04
 
     Adding external electric field

     Computed dipole along edir(3) : 
        Dipole               -3.8215 Ry au,         -9.7132 Debye
        Dipole field         -0.0023 Ry au, 
 
        Potential amp.        0.2506 Ry
        Total length         54.7057 bohr
 
 
     Adding external electric field

     Computed dipole along edir(3) : 
        Dipole               -3.8215 Ry au,         -9.7132 Debye
        Dipole field         -0.0023 Ry au, 
 
        Potential amp.        0.2506 Ry
        Total length         54.7057 bohr
 

     total cpu time spent up to now is      175.8 secs

     total energy              =   -8078.69989067 Ry
     estimated scf accuracy    <      11.86441994 Ry

     total magnetization       =    92.46 Bohr mag/cell
     absolute magnetization    =    97.68 Bohr mag/cell

     iteration # 12     ecut=    50.00 Ry     beta= 0.50
     Davidson diagonalization with overlap
     ethr =  1.07E-03,  avg # of iterations =  7.0

     negative rho (up, down):  0.000E+00 6.960E-07
 
     Adding external electric field

     Computed dipole along edir(3) : 
        Dipole               -3.6412 Ry au,         -9.2550 Debye
        Dipole field         -0.0022 Ry au, 
 
        Potential amp.        0.2388 Ry
        Total length         54.7057 bohr
 
 
     Adding external electric field

     Computed dipole along edir(3) : 
        Dipole               -3.6412 Ry au,         -9.2550 Debye
        Dipole field         -0.0022 Ry au, 
 
        Potential amp.        0.2388 Ry
        Total length         54.7057 bohr
 

     total cpu time spent up to now is      192.0 secs

     total energy              =   -8078.60433131 Ry
     estimated scf accuracy    <      20.16794603 Ry

     total magnetization       =    90.21 Bohr mag/cell
     absolute magnetization    =    95.28 Bohr mag/cell

     iteration # 13     ecut=    50.00 Ry     beta= 0.50
     Davidson diagonalization with overlap
     ethr =  1.07E-03,  avg # of iterations =  1.0

     negative rho (up, down):  7.478E-07 0.000E+00
 
     Adding external electric field

     Computed dipole along edir(3) : 
        Dipole               -3.5132 Ry au,         -8.9297 Debye
        Dipole field         -0.0021 Ry au, 
 
        Potential amp.        0.2304 Ry
        Total length         54.7057 bohr
 
 
     Adding external electric field

     Computed dipole along edir(3) : 
        Dipole               -3.5132 Ry au,         -8.9297 Debye
        Dipole field         -0.0021 Ry au, 
 
        Potential amp.        0.2304 Ry
        Total length         54.7057 bohr
 

     total cpu time spent up to now is      202.6 secs

     total energy              =   -8078.38866501 Ry
     estimated scf accuracy    <      15.66678497 Ry

     total magnetization       =    92.37 Bohr mag/cell
     absolute magnetization    =    96.21 Bohr mag/cell

     iteration # 14     ecut=    50.00 Ry     beta= 0.50
     Davidson diagonalization with overlap
     ethr =  1.07E-03,  avg # of iterations =  1.5

     negative rho (up, down):  4.050E-06 4.336E-04
 
     Adding external electric field

     Computed dipole along edir(3) : 
        Dipole               -3.0291 Ry au,         -7.6992 Debye
        Dipole field         -0.0018 Ry au, 
 
        Potential amp.        0.1987 Ry
        Total length         54.7057 bohr
 
 
     Adding external electric field

     Computed dipole along edir(3) : 
        Dipole               -3.0291 Ry au,         -7.6992 Debye
        Dipole field         -0.0018 Ry au, 
 
        Potential amp.        0.1987 Ry
        Total length         54.7057 bohr
 

     total cpu time spent up to now is      213.5 secs

     total energy              =   -8078.45889391 Ry
     estimated scf accuracy    <      13.19748510 Ry

     total magnetization       =    96.82 Bohr mag/cell
     absolute magnetization    =   101.81 Bohr mag/cell

     iteration # 15     ecut=    50.00 Ry     beta= 0.50
     Davidson diagonalization with overlap
     ethr =  1.07E-03,  avg # of iterations =  1.0

     negative rho (up, down):  1.075E-05 2.065E-03
 
     Adding external electric field

     Computed dipole along edir(3) : 
        Dipole               -2.7772 Ry au,         -7.0589 Debye
        Dipole field         -0.0017 Ry au, 
 
        Potential amp.        0.1822 Ry
        Total length         54.7057 bohr
 
 
     Adding external electric field

     Computed dipole along edir(3) : 
        Dipole               -2.7772 Ry au,         -7.0589 Debye
        Dipole field         -0.0017 Ry au, 
 
        Potential amp.        0.1822 Ry
        Total length         54.7057 bohr
 

     total cpu time spent up to now is      223.7 secs

     total energy              =   -8078.39675109 Ry
     estimated scf accuracy    <      15.76606807 Ry

     total magnetization       =    96.53 Bohr mag/cell
     absolute magnetization    =    99.52 Bohr mag/cell

     iteration # 16     ecut=    50.00 Ry     beta= 0.50
     Davidson diagonalization with overlap
     ethr =  1.07E-03,  avg # of iterations =  1.5

     negative rho (up, down):  7.423E-07 3.133E-04
 
     Adding external electric field

     Computed dipole along edir(3) : 
        Dipole               -2.7729 Ry au,         -7.0479 Debye
        Dipole field         -0.0017 Ry au, 
 
        Potential amp.        0.1819 Ry
        Total length         54.7057 bohr
 
 
     Adding external electric field

     Computed dipole along edir(3) : 
        Dipole               -2.7729 Ry au,         -7.0479 Debye
        Dipole field         -0.0017 Ry au, 
 
        Potential amp.        0.1819 Ry
        Total length         54.7057 bohr
 

     total cpu time spent up to now is      235.1 secs

     total energy              =   -8078.59850047 Ry
     estimated scf accuracy    <       1.38571977 Ry

     total magnetization       =    98.26 Bohr mag/cell
     absolute magnetization    =   100.07 Bohr mag/cell

     iteration # 17     ecut=    50.00 Ry     beta= 0.50
     Davidson diagonalization with overlap
     ethr =  1.25E-04,  avg # of iterations =  9.5

     negative rho (up, down):  2.449E-07 7.942E-07
 
     Adding external electric field

     Computed dipole along edir(3) : 
        Dipole               -2.5921 Ry au,         -6.5885 Debye
        Dipole field         -0.0016 Ry au, 
 
        Potential amp.        0.1700 Ry
        Total length         54.7057 bohr
 
 
     Adding external electric field

     Computed dipole along edir(3) : 
        Dipole               -2.5921 Ry au,         -6.5885 Debye
        Dipole field         -0.0016 Ry au, 
 
        Potential amp.        0.1700 Ry
        Total length         54.7057 bohr
 

     total cpu time spent up to now is      255.2 secs

     total energy              =   -8078.61140475 Ry
     estimated scf accuracy    <       1.30218638 Ry

     total magnetization       =    97.22 Bohr mag/cell
     absolute magnetization    =    98.75 Bohr mag/cell

     iteration # 18     ecut=    50.00 Ry     beta= 0.50
     Davidson diagonalization with overlap
     ethr =  1.18E-04,  avg # of iterations =  1.0

     negative rho (up, down):  4.876E-08 4.195E-06
 
     Adding external electric field

     Computed dipole along edir(3) : 
        Dipole               -2.4524 Ry au,         -6.2334 Debye
        Dipole field         -0.0015 Ry au, 
 
        Potential amp.        0.1608 Ry
        Total length         54.7057 bohr
 
 
     Adding external electric field

     Computed dipole along edir(3) : 
        Dipole               -2.4524 Ry au,         -6.2334 Debye
        Dipole field         -0.0015 Ry au, 
 
        Potential amp.        0.1608 Ry
        Total length         54.7057 bohr
 

     total cpu time spent up to now is      265.3 secs

     total energy              =   -8078.59603495 Ry
     estimated scf accuracy    <       0.90709203 Ry

     total magnetization       =    97.70 Bohr mag/cell
     absolute magnetization    =    98.97 Bohr mag/cell

     iteration # 19     ecut=    50.00 Ry     beta= 0.50
     Davidson diagonalization with overlap
     ethr =  8.19E-05,  avg # of iterations =  1.5

     negative rho (up, down):  5.943E-07 1.285E-04
 
     Adding external electric field

     Computed dipole along edir(3) : 
        Dipole               -2.2422 Ry au,         -5.6990 Debye
        Dipole field         -0.0013 Ry au, 
 
        Potential amp.        0.1471 Ry
        Total length         54.7057 bohr
 
 
     Adding external electric field

     Computed dipole along edir(3) : 
        Dipole               -2.2422 Ry au,         -5.6990 Debye
        Dipole field         -0.0013 Ry au, 
 
        Potential amp.        0.1471 Ry
        Total length         54.7057 bohr
 

     total cpu time spent up to now is      276.2 secs

     total energy              =   -8078.58889111 Ry
     estimated scf accuracy    <       0.72995378 Ry

     total magnetization       =    97.36 Bohr mag/cell
     absolute magnetization    =    98.47 Bohr mag/cell

     iteration # 20     ecut=    50.00 Ry     beta= 0.50
     Davidson diagonalization with overlap
     ethr =  6.59E-05,  avg # of iterations =  1.5

     negative rho (up, down):  2.983E-06 3.459E-04
 
     Adding external electric field

     Computed dipole along edir(3) : 
        Dipole               -2.0348 Ry au,         -5.1720 Debye
        Dipole field         -0.0012 Ry au, 
 
        Potential amp.        0.1335 Ry
        Total length         54.7057 bohr
 
 
     Adding external electric field

     Computed dipole along edir(3) : 
        Dipole               -2.0348 Ry au,         -5.1720 Debye
        Dipole field         -0.0012 Ry au, 
 
        Potential amp.        0.1335 Ry
        Total length         54.7057 bohr
 

     total cpu time spent up to now is      287.2 secs

     total energy              =   -8078.58151240 Ry
     estimated scf accuracy    <       0.41049771 Ry

     total magnetization       =    97.77 Bohr mag/cell
     absolute magnetization    =    98.74 Bohr mag/cell

     iteration # 21     ecut=    50.00 Ry     beta= 0.50
     Davidson diagonalization with overlap
     c_bands:  4 eigenvalues not converged
     ethr =  3.70E-05,  avg # of iterations = 10.5

     negative rho (up, down):  2.739E-09 1.125E-06
 
     Adding external electric field

     Computed dipole along edir(3) : 
        Dipole               -1.8904 Ry au,         -4.8049 Debye
        Dipole field         -0.0011 Ry au, 
 
        Potential amp.        0.1240 Ry
        Total length         54.7057 bohr
 
 
     Adding external electric field

     Computed dipole along edir(3) : 
        Dipole               -1.8904 Ry au,         -4.8049 Debye
        Dipole field         -0.0011 Ry au, 
 
        Potential amp.        0.1240 Ry
        Total length         54.7057 bohr
 

     total cpu time spent up to now is      306.6 secs

     total energy              =   -8078.57409652 Ry
     estimated scf accuracy    <       0.24984365 Ry

     total magnetization       =    97.58 Bohr mag/cell
     absolute magnetization    =    98.52 Bohr mag/cell

     iteration # 22     ecut=    50.00 Ry     beta= 0.50
     Davidson diagonalization with overlap
     ethr =  2.25E-05,  avg # of iterations =  2.0
 
     Adding external electric field

     Computed dipole along edir(3) : 
        Dipole               -1.8368 Ry au,         -4.6686 Debye
        Dipole field         -0.0011 Ry au, 
 
        Potential amp.        0.1205 Ry
        Total length         54.7057 bohr
 
 
     Adding external electric field

     Computed dipole along edir(3) : 
        Dipole               -1.8368 Ry au,         -4.6686 Debye
        Dipole field         -0.0011 Ry au, 
 
        Potential amp.        0.1205 Ry
        Total length         54.7057 bohr
 

     total cpu time spent up to now is      319.0 secs

     total energy              =   -8078.57075752 Ry
     estimated scf accuracy    <       0.50717108 Ry

     total magnetization       =    96.96 Bohr mag/cell
     absolute magnetization    =    97.99 Bohr mag/cell

     iteration # 23     ecut=    50.00 Ry     beta= 0.50
     Davidson diagonalization with overlap
     ethr =  2.25E-05,  avg # of iterations =  2.0
 
     Adding external electric field

     Computed dipole along edir(3) : 
        Dipole               -1.8235 Ry au,         -4.6348 Debye
        Dipole field         -0.0011 Ry au, 
 
        Potential amp.        0.1196 Ry
        Total length         54.7057 bohr
 
 
     Adding external electric field

     Computed dipole along edir(3) : 
        Dipole               -1.8235 Ry au,         -4.6348 Debye
        Dipole field         -0.0011 Ry au, 
 
        Potential amp.        0.1196 Ry
        Total length         54.7057 bohr
 

     total cpu time spent up to now is      332.6 secs

     total energy              =   -8078.58674856 Ry
     estimated scf accuracy    <       0.29618874 Ry

     total magnetization       =    97.58 Bohr mag/cell
     absolute magnetization    =    98.66 Bohr mag/cell

     iteration # 24     ecut=    50.00 Ry     beta= 0.50
     Davidson diagonalization with overlap
     ethr =  2.25E-05,  avg # of iterations =  1.5
 
     Adding external electric field

     Computed dipole along edir(3) : 
        Dipole               -1.6573 Ry au,         -4.2124 Debye
        Dipole field         -0.0010 Ry au, 
 
        Potential amp.        0.1087 Ry
        Total length         54.7057 bohr
 
 
     Adding external electric field

     Computed dipole along edir(3) : 
        Dipole               -1.6573 Ry au,         -4.2124 Debye
        Dipole field         -0.0010 Ry au, 
 
        Potential amp.        0.1087 Ry
        Total length         54.7057 bohr
 

     total cpu time spent up to now is      344.8 secs

     total energy              =   -8078.58544044 Ry
     estimated scf accuracy    <       0.24215651 Ry

     total magnetization       =    98.04 Bohr mag/cell
     absolute magnetization    =    99.17 Bohr mag/cell

     iteration # 25     ecut=    50.00 Ry     beta= 0.50
     Davidson diagonalization with overlap
     ethr =  2.19E-05,  avg # of iterations =  1.0
 
     Adding external electric field

     Computed dipole along edir(3) : 
        Dipole               -1.7820 Ry au,         -4.5294 Debye
        Dipole field         -0.0011 Ry au, 
 
        Potential amp.        0.1169 Ry
        Total length         54.7057 bohr
 
 
     Adding external electric field

     Computed dipole along edir(3) : 
        Dipole               -1.7820 Ry au,         -4.5294 Debye
        Dipole field         -0.0011 Ry au, 
 
        Potential amp.        0.1169 Ry
        Total length         54.7057 bohr
 

     total cpu time spent up to now is      356.9 secs

     total energy              =   -8078.58599002 Ry
     estimated scf accuracy    <       0.23884064 Ry

     total magnetization       =    97.79 Bohr mag/cell
     absolute magnetization    =    99.00 Bohr mag/cell

     iteration # 26     ecut=    50.00 Ry     beta= 0.50
     Davidson diagonalization with overlap
     ethr =  2.16E-05,  avg # of iterations =  1.5
 
     Adding external electric field

     Computed dipole along edir(3) : 
        Dipole               -1.6364 Ry au,         -4.1593 Debye
        Dipole field         -0.0010 Ry au, 
 
        Potential amp.        0.1073 Ry
        Total length         54.7057 bohr
 
 
     Adding external electric field

     Computed dipole along edir(3) : 
        Dipole               -1.6364 Ry au,         -4.1593 Debye
        Dipole field         -0.0010 Ry au, 
 
        Potential amp.        0.1073 Ry
        Total length         54.7057 bohr
 

     total cpu time spent up to now is      369.2 secs

     total energy              =   -8078.58403921 Ry
     estimated scf accuracy    <       0.15844043 Ry

     total magnetization       =    97.80 Bohr mag/cell
     absolute magnetization    =    99.02 Bohr mag/cell

     iteration # 27     ecut=    50.00 Ry     beta= 0.50
     Davidson diagonalization with overlap
     ethr =  1.43E-05,  avg # of iterations =  1.5
 
     Adding external electric field

     Computed dipole along edir(3) : 
        Dipole               -1.6340 Ry au,         -4.1533 Debye
        Dipole field         -0.0010 Ry au, 
 
        Potential amp.        0.1072 Ry
        Total length         54.7057 bohr
 
 
     Adding external electric field

     Computed dipole along edir(3) : 
        Dipole               -1.6340 Ry au,         -4.1533 Debye
        Dipole field         -0.0010 Ry au, 
 
        Potential amp.        0.1072 Ry
        Total length         54.7057 bohr
 

     total cpu time spent up to now is      381.4 secs

     total energy              =   -8078.58571636 Ry
     estimated scf accuracy    <       0.24873246 Ry

     total magnetization       =    97.43 Bohr mag/cell
     absolute magnetization    =    98.66 Bohr mag/cell

     iteration # 28     ecut=    50.00 Ry     beta= 0.50
     Davidson diagonalization with overlap
     ethr =  1.43E-05,  avg # of iterations =  1.5
 
     Adding external electric field

     Computed dipole along edir(3) : 
        Dipole               -1.6040 Ry au,         -4.0769 Debye
        Dipole field         -0.0010 Ry au, 
 
        Potential amp.        0.1052 Ry
        Total length         54.7057 bohr
 
 
     Adding external electric field

     Computed dipole along edir(3) : 
        Dipole               -1.6040 Ry au,         -4.0769 Debye
        Dipole field         -0.0010 Ry au, 
 
        Potential amp.        0.1052 Ry
        Total length         54.7057 bohr
 

     total cpu time spent up to now is      393.2 secs

     total energy              =   -8078.58409341 Ry
     estimated scf accuracy    <       0.26208386 Ry

     total magnetization       =    97.34 Bohr mag/cell
     absolute magnetization    =    98.57 Bohr mag/cell

     iteration # 29     ecut=    50.00 Ry     beta= 0.50
     Davidson diagonalization with overlap
     ethr =  1.43E-05,  avg # of iterations =  1.5
 
     Adding external electric field

     Computed dipole along edir(3) : 
        Dipole               -1.6346 Ry au,         -4.1546 Debye
        Dipole field         -0.0010 Ry au, 
 
        Potential amp.        0.1072 Ry
        Total length         54.7057 bohr
 
 
     Adding external electric field

     Computed dipole along edir(3) : 
        Dipole               -1.6346 Ry au,         -4.1546 Debye
        Dipole field         -0.0010 Ry au, 
 
        Potential amp.        0.1072 Ry
        Total length         54.7057 bohr
 

     total cpu time spent up to now is      404.8 secs

     total energy              =   -8078.58433448 Ry
     estimated scf accuracy    <       0.31812318 Ry

     total magnetization       =    97.11 Bohr mag/cell
     absolute magnetization    =    98.29 Bohr mag/cell

     iteration # 30     ecut=    50.00 Ry     beta= 0.50
     Davidson diagonalization with overlap
     ethr =  1.43E-05,  avg # of iterations =  1.5
 
     Adding external electric field

     Computed dipole along edir(3) : 
        Dipole               -1.6323 Ry au,         -4.1490 Debye
        Dipole field         -0.0010 Ry au, 
 
        Potential amp.        0.1071 Ry
        Total length         54.7057 bohr
 
 
     Adding external electric field

     Computed dipole along edir(3) : 
        Dipole               -1.6323 Ry au,         -4.1490 Debye
        Dipole field         -0.0010 Ry au, 
 
        Potential amp.        0.1071 Ry
        Total length         54.7057 bohr
 

     total cpu time spent up to now is      416.5 secs

     total energy              =   -8078.58404127 Ry
     estimated scf accuracy    <       0.28809908 Ry

     total magnetization       =    97.31 Bohr mag/cell
     absolute magnetization    =    98.49 Bohr mag/cell

     iteration # 31     ecut=    50.00 Ry     beta= 0.50
     Davidson diagonalization with overlap
     ethr =  1.43E-05,  avg # of iterations =  1.5
 
     Adding external electric field

     Computed dipole along edir(3) : 
        Dipole               -1.6052 Ry au,         -4.0799 Debye
        Dipole field         -0.0010 Ry au, 
 
        Potential amp.        0.1053 Ry
        Total length         54.7057 bohr
 
 
     Adding external electric field

     Computed dipole along edir(3) : 
        Dipole               -1.6052 Ry au,         -4.0799 Debye
        Dipole field         -0.0010 Ry au, 
 
        Potential amp.        0.1053 Ry
        Total length         54.7057 bohr
 

     total cpu time spent up to now is      428.1 secs

     total energy              =   -8078.58424828 Ry
     estimated scf accuracy    <       0.28578938 Ry

     total magnetization       =    97.27 Bohr mag/cell
     absolute magnetization    =    98.45 Bohr mag/cell

     iteration # 32     ecut=    50.00 Ry     beta= 0.50
     Davidson diagonalization with overlap
     ethr =  1.43E-05,  avg # of iterations =  1.5
 
     Adding external electric field

     Computed dipole along edir(3) : 
        Dipole               -1.6401 Ry au,         -4.1688 Debye
        Dipole field         -0.0010 Ry au, 
 
        Potential amp.        0.1076 Ry
        Total length         54.7057 bohr
 
 
     Adding external electric field

     Computed dipole along edir(3) : 
        Dipole               -1.6401 Ry au,         -4.1688 Debye
        Dipole field         -0.0010 Ry au, 
 
        Potential amp.        0.1076 Ry
        Total length         54.7057 bohr
 

     total cpu time spent up to now is      439.7 secs

     total energy              =   -8078.58400058 Ry
     estimated scf accuracy    <       0.28010868 Ry

     total magnetization       =    96.98 Bohr mag/cell
     absolute magnetization    =    98.22 Bohr mag/cell

     iteration # 33     ecut=    50.00 Ry     beta= 0.50
     Davidson diagonalization with overlap
     ethr =  1.43E-05,  avg # of iterations =  1.5
 
     Adding external electric field

     Computed dipole along edir(3) : 
        Dipole               -1.6362 Ry au,         -4.1588 Debye
        Dipole field         -0.0010 Ry au, 
 
        Potential amp.        0.1073 Ry
        Total length         54.7057 bohr
 
 
     Adding external electric field

     Computed dipole along edir(3) : 
        Dipole               -1.6362 Ry au,         -4.1588 Debye
        Dipole field         -0.0010 Ry au, 
 
        Potential amp.        0.1073 Ry
        Total length         54.7057 bohr
 

     total cpu time spent up to now is      451.1 secs

     total energy              =   -8078.58483073 Ry
     estimated scf accuracy    <       0.23512020 Ry

     total magnetization       =    97.31 Bohr mag/cell
     absolute magnetization    =    98.54 Bohr mag/cell

     iteration # 34     ecut=    50.00 Ry     beta= 0.50
     Davidson diagonalization with overlap
     ethr =  1.43E-05,  avg # of iterations =  1.5
 
     Adding external electric field

     Computed dipole along edir(3) : 
        Dipole               -1.6147 Ry au,         -4.1041 Debye
        Dipole field         -0.0010 Ry au, 
 
        Potential amp.        0.1059 Ry
        Total length         54.7057 bohr
 
 
     Adding external electric field

     Computed dipole along edir(3) : 
        Dipole               -1.6147 Ry au,         -4.1041 Debye
        Dipole field         -0.0010 Ry au, 
 
        Potential amp.        0.1059 Ry
        Total length         54.7057 bohr
 

     total cpu time spent up to now is      462.6 secs

     total energy              =   -8078.58427728 Ry
     estimated scf accuracy    <       0.21029956 Ry

     total magnetization       =    97.39 Bohr mag/cell
     absolute magnetization    =    98.61 Bohr mag/cell

     iteration # 35     ecut=    50.00 Ry     beta= 0.50
     Davidson diagonalization with overlap
     ethr =  1.43E-05,  avg # of iterations =  1.5
 
     Adding external electric field

     Computed dipole along edir(3) : 
        Dipole               -1.4949 Ry au,         -3.7995 Debye
        Dipole field         -0.0009 Ry au, 
 
        Potential amp.        0.0980 Ry
        Total length         54.7057 bohr
 
 
     Adding external electric field

     Computed dipole along edir(3) : 
        Dipole               -1.4949 Ry au,         -3.7995 Debye
        Dipole field         -0.0009 Ry au, 
 
        Potential amp.        0.0980 Ry
        Total length         54.7057 bohr
 

     total cpu time spent up to now is      475.4 secs

     total energy              =   -8078.58181621 Ry
     estimated scf accuracy    <       0.16772575 Ry

     total magnetization       =    97.33 Bohr mag/cell
     absolute magnetization    =    98.57 Bohr mag/cell

     iteration # 36     ecut=    50.00 Ry     beta= 0.50
     Davidson diagonalization with overlap
     ethr =  1.43E-05,  avg # of iterations =  1.5
 
     Adding external electric field

     Computed dipole along edir(3) : 
        Dipole               -1.3829 Ry au,         -3.5149 Debye
        Dipole field         -0.0008 Ry au, 
 
        Potential amp.        0.0907 Ry
        Total length         54.7057 bohr
 
 
     Adding external electric field

     Computed dipole along edir(3) : 
        Dipole               -1.3829 Ry au,         -3.5149 Debye
        Dipole field         -0.0008 Ry au, 
 
        Potential amp.        0.0907 Ry
        Total length         54.7057 bohr
 

     total cpu time spent up to now is      488.8 secs

     total energy              =   -8078.57893165 Ry
     estimated scf accuracy    <       0.09161698 Ry

     total magnetization       =    96.79 Bohr mag/cell
     absolute magnetization    =    98.05 Bohr mag/cell

     iteration # 37     ecut=    50.00 Ry     beta= 0.50
     Davidson diagonalization with overlap
     ethr =  8.27E-06,  avg # of iterations =  2.5
 
     Adding external electric field

     Computed dipole along edir(3) : 
        Dipole               -1.2606 Ry au,         -3.2042 Debye
        Dipole field         -0.0008 Ry au, 
 
        Potential amp.        0.0827 Ry
        Total length         54.7057 bohr
 
 
     Adding external electric field

     Computed dipole along edir(3) : 
        Dipole               -1.2606 Ry au,         -3.2042 Debye
        Dipole field         -0.0008 Ry au, 
 
        Potential amp.        0.0827 Ry
        Total length         54.7057 bohr
 

     total cpu time spent up to now is      502.2 secs

     total energy              =   -8078.57820244 Ry
     estimated scf accuracy    <       0.11596137 Ry

     total magnetization       =    97.36 Bohr mag/cell
     absolute magnetization    =    98.57 Bohr mag/cell

     iteration # 38     ecut=    50.00 Ry     beta= 0.50
     Davidson diagonalization with overlap
     ethr =  8.27E-06,  avg # of iterations =  1.5
 
     Adding external electric field

     Computed dipole along edir(3) : 
        Dipole               -1.1406 Ry au,         -2.8992 Debye
        Dipole field         -0.0007 Ry au, 
 
        Potential amp.        0.0748 Ry
        Total length         54.7057 bohr
 
 
     Adding external electric field

     Computed dipole along edir(3) : 
        Dipole               -1.1406 Ry au,         -2.8992 Debye
        Dipole field         -0.0007 Ry au, 
 
        Potential amp.        0.0748 Ry
        Total length         54.7057 bohr
 

     total cpu time spent up to now is      515.2 secs

     total energy              =   -8078.57737679 Ry
     estimated scf accuracy    <       0.10920262 Ry

     total magnetization       =    97.15 Bohr mag/cell
     absolute magnetization    =    98.35 Bohr mag/cell

     iteration # 39     ecut=    50.00 Ry     beta= 0.50
     Davidson diagonalization with overlap
     ethr =  8.27E-06,  avg # of iterations = 11.5
 
     Adding external electric field

     Computed dipole along edir(3) : 
        Dipole               -1.0532 Ry au,         -2.6769 Debye
        Dipole field         -0.0006 Ry au, 
 
        Potential amp.        0.0691 Ry
        Total length         54.7057 bohr
 
 
     Adding external electric field

     Computed dipole along edir(3) : 
        Dipole               -1.0532 Ry au,         -2.6769 Debye
        Dipole field         -0.0006 Ry au, 
 
        Potential amp.        0.0691 Ry
        Total length         54.7057 bohr
 

     total cpu time spent up to now is      540.3 secs

     total energy              =   -8078.57494799 Ry
     estimated scf accuracy    <       0.07352958 Ry

     total magnetization       =    97.06 Bohr mag/cell
     absolute magnetization    =    98.28 Bohr mag/cell

     iteration # 40     ecut=    50.00 Ry     beta= 0.50
     Davidson diagonalization with overlap
     ethr =  6.64E-06,  avg # of iterations =  2.0
 
     Adding external electric field

     Computed dipole along edir(3) : 
        Dipole               -0.8850 Ry au,         -2.2495 Debye
        Dipole field         -0.0005 Ry au, 
 
        Potential amp.        0.0580 Ry
        Total length         54.7057 bohr
 
 
     Adding external electric field

     Computed dipole along edir(3) : 
        Dipole               -0.8850 Ry au,         -2.2495 Debye
        Dipole field         -0.0005 Ry au, 
 
        Potential amp.        0.0580 Ry
        Total length         54.7057 bohr
 

     total cpu time spent up to now is      554.2 secs

     total energy              =   -8078.57387178 Ry
     estimated scf accuracy    <       0.15268533 Ry

     total magnetization       =    97.05 Bohr mag/cell
     absolute magnetization    =    98.24 Bohr mag/cell

     iteration # 41     ecut=    50.00 Ry     beta= 0.50
     Davidson diagonalization with overlap
     ethr =  6.64E-06,  avg # of iterations =  2.0
 
     Adding external electric field

     Computed dipole along edir(3) : 
        Dipole               -0.7665 Ry au,         -1.9482 Debye
        Dipole field         -0.0005 Ry au, 
 
        Potential amp.        0.0503 Ry
        Total length         54.7057 bohr
 
 
     Adding external electric field

     Computed dipole along edir(3) : 
        Dipole               -0.7665 Ry au,         -1.9482 Debye
        Dipole field         -0.0005 Ry au, 
 
        Potential amp.        0.0503 Ry
        Total length         54.7057 bohr
 

     total cpu time spent up to now is      568.0 secs

     total energy              =   -8078.56997881 Ry
     estimated scf accuracy    <       0.06443956 Ry

     total magnetization       =    96.77 Bohr mag/cell
     absolute magnetization    =    98.00 Bohr mag/cell

     iteration # 42     ecut=    50.00 Ry     beta= 0.50
     Davidson diagonalization with overlap
     ethr =  5.82E-06,  avg # of iterations =  2.0
 
     Adding external electric field

     Computed dipole along edir(3) : 
        Dipole               -0.5036 Ry au,         -1.2800 Debye
        Dipole field         -0.0003 Ry au, 
 
        Potential amp.        0.0330 Ry
        Total length         54.7057 bohr
 
 
     Adding external electric field

     Computed dipole along edir(3) : 
        Dipole               -0.5036 Ry au,         -1.2800 Debye
        Dipole field         -0.0003 Ry au, 
 
        Potential amp.        0.0330 Ry
        Total length         54.7057 bohr
 

     total cpu time spent up to now is      581.6 secs

     total energy              =   -8078.56771384 Ry
     estimated scf accuracy    <       0.13728835 Ry

     total magnetization       =    97.38 Bohr mag/cell
     absolute magnetization    =    98.60 Bohr mag/cell

     iteration # 43     ecut=    50.00 Ry     beta= 0.50
     Davidson diagonalization with overlap
     c_bands:  2 eigenvalues not converged
     ethr =  5.82E-06,  avg # of iterations = 11.0

     negative rho (up, down):  2.233E-06 2.677E-09
 
     Adding external electric field

     Computed dipole along edir(3) : 
        Dipole               -0.1796 Ry au,         -0.4566 Debye
        Dipole field         -0.0001 Ry au, 
 
        Potential amp.        0.0118 Ry
        Total length         54.7057 bohr
 
 
     Adding external electric field

     Computed dipole along edir(3) : 
        Dipole               -0.1796 Ry au,         -0.4566 Debye
        Dipole field         -0.0001 Ry au, 
 
        Potential amp.        0.0118 Ry
        Total length         54.7057 bohr
 

     total cpu time spent up to now is      602.1 secs

     total energy              =   -8078.56231773 Ry
     estimated scf accuracy    <       0.16564370 Ry

     total magnetization       =    96.96 Bohr mag/cell
     absolute magnetization    =    98.20 Bohr mag/cell

     iteration # 44     ecut=    50.00 Ry     beta= 0.50
     Davidson diagonalization with overlap
     c_bands:  3 eigenvalues not converged
     ethr =  5.82E-06,  avg # of iterations = 12.0

     negative rho (up, down):  4.777E-04 6.947E-05
 
     Adding external electric field

     Computed dipole along edir(3) : 
        Dipole                0.1054 Ry au,          0.2680 Debye
        Dipole field          0.0001 Ry au, 
 
        Potential amp.       -0.0069 Ry
        Total length         54.7057 bohr
 
 
     Adding external electric field

     Computed dipole along edir(3) : 
        Dipole                0.1054 Ry au,          0.2680 Debye
        Dipole field          0.0001 Ry au, 
 
        Potential amp.       -0.0069 Ry
        Total length         54.7057 bohr
 

     total cpu time spent up to now is      622.0 secs

     total energy              =   -8078.55886185 Ry
     estimated scf accuracy    <       0.05902685 Ry

     total magnetization       =    97.41 Bohr mag/cell
     absolute magnetization    =    98.67 Bohr mag/cell

     iteration # 45     ecut=    50.00 Ry     beta= 0.50
     Davidson diagonalization with overlap
     c_bands:  1 eigenvalues not converged
     ethr =  5.33E-06,  avg # of iterations = 12.0

     negative rho (up, down):  1.290E-03 1.242E-03
 
     Adding external electric field

     Computed dipole along edir(3) : 
        Dipole                0.2101 Ry au,          0.5341 Debye
        Dipole field          0.0001 Ry au, 
 
        Potential amp.       -0.0138 Ry
        Total length         54.7057 bohr
 
 
     Adding external electric field

     Computed dipole along edir(3) : 
        Dipole                0.2101 Ry au,          0.5341 Debye
        Dipole field          0.0001 Ry au, 
 
        Potential amp.       -0.0138 Ry
        Total length         54.7057 bohr
 

     total cpu time spent up to now is      641.4 secs

     total energy              =   -8078.55568716 Ry
     estimated scf accuracy    <       0.04287490 Ry

     total magnetization       =    97.15 Bohr mag/cell
     absolute magnetization    =    98.42 Bohr mag/cell

     iteration # 46     ecut=    50.00 Ry     beta= 0.50
     Davidson diagonalization with overlap
     c_bands:  3 eigenvalues not converged
     ethr =  3.87E-06,  avg # of iterations = 11.5

     negative rho (up, down):  1.355E-03 1.258E-03
 
     Adding external electric field

     Computed dipole along edir(3) : 
        Dipole                0.2163 Ry au,          0.5499 Debye
        Dipole field          0.0001 Ry au, 
 
        Potential amp.       -0.0142 Ry
        Total length         54.7057 bohr
 
 
     Adding external electric field

     Computed dipole along edir(3) : 
        Dipole                0.2163 Ry au,          0.5499 Debye
        Dipole field          0.0001 Ry au, 
 
        Potential amp.       -0.0142 Ry
        Total length         54.7057 bohr
 

     total cpu time spent up to now is      661.5 secs

     total energy              =   -8078.55471351 Ry
     estimated scf accuracy    <       0.09679445 Ry

     total magnetization       =    97.13 Bohr mag/cell
     absolute magnetization    =    98.36 Bohr mag/cell

     iteration # 47     ecut=    50.00 Ry     beta= 0.50
     Davidson diagonalization with overlap
     ethr =  3.87E-06,  avg # of iterations =  2.5

     negative rho (up, down):  3.056E-03 3.667E-03
 
     Adding external electric field

     Computed dipole along edir(3) : 
        Dipole                0.2812 Ry au,          0.7147 Debye
        Dipole field          0.0002 Ry au, 
 
        Potential amp.       -0.0184 Ry
        Total length         54.7057 bohr
 
 
     Adding external electric field

     Computed dipole along edir(3) : 
        Dipole                0.2812 Ry au,          0.7147 Debye
        Dipole field          0.0002 Ry au, 
 
        Potential amp.       -0.0184 Ry
        Total length         54.7057 bohr
 

     total cpu time spent up to now is      675.2 secs

     total energy              =   -8078.55375079 Ry
     estimated scf accuracy    <       0.06867810 Ry

     total magnetization       =    97.43 Bohr mag/cell
     absolute magnetization    =    98.64 Bohr mag/cell

     iteration # 48     ecut=    50.00 Ry     beta= 0.50
     Davidson diagonalization with overlap
     ethr =  3.87E-06,  avg # of iterations =  4.0

     negative rho (up, down):  4.159E-09 9.473E-08
 
     Adding external electric field

     Computed dipole along edir(3) : 
        Dipole               -0.0384 Ry au,         -0.0977 Debye
        Dipole field         -0.0000 Ry au, 
 
        Potential amp.        0.0025 Ry
        Total length         54.7057 bohr
 
 
     Adding external electric field

     Computed dipole along edir(3) : 
        Dipole               -0.0384 Ry au,         -0.0977 Debye
        Dipole field         -0.0000 Ry au, 
 
        Potential amp.        0.0025 Ry
        Total length         54.7057 bohr
 

     total cpu time spent up to now is      692.7 secs

     total energy              =   -8078.55358913 Ry
     estimated scf accuracy    <       0.06472383 Ry

     total magnetization       =    97.32 Bohr mag/cell
     absolute magnetization    =    98.51 Bohr mag/cell

     iteration # 49     ecut=    50.00 Ry     beta= 0.50
     Davidson diagonalization with overlap
     ethr =  3.87E-06,  avg # of iterations =  2.0

     negative rho (up, down):  2.906E-03 3.581E-03
 
     Adding external electric field

     Computed dipole along edir(3) : 
        Dipole                0.2801 Ry au,          0.7121 Debye
        Dipole field          0.0002 Ry au, 
 
        Potential amp.       -0.0184 Ry
        Total length         54.7057 bohr
 
 
     Adding external electric field

     Computed dipole along edir(3) : 
        Dipole                0.2801 Ry au,          0.7121 Debye
        Dipole field          0.0002 Ry au, 
 
        Potential amp.       -0.0184 Ry
        Total length         54.7057 bohr
 

     total cpu time spent up to now is      705.5 secs

     total energy              =   -8078.55241799 Ry
     estimated scf accuracy    <       0.03364475 Ry

     total magnetization       =    97.22 Bohr mag/cell
     absolute magnetization    =    98.40 Bohr mag/cell

     iteration # 50     ecut=    50.00 Ry     beta= 0.50
     Davidson diagonalization with overlap
     ethr =  3.04E-06,  avg # of iterations =  6.0

     negative rho (up, down):  2.213E-03 2.406E-03
 
     Adding external electric field

     Computed dipole along edir(3) : 
        Dipole                0.2832 Ry au,          0.7197 Debye
        Dipole field          0.0002 Ry au, 
 
        Potential amp.       -0.0186 Ry
        Total length         54.7057 bohr
 
 
     Adding external electric field

     Computed dipole along edir(3) : 
        Dipole                0.2832 Ry au,          0.7197 Debye
        Dipole field          0.0002 Ry au, 
 
        Potential amp.       -0.0186 Ry
        Total length         54.7057 bohr
 

     total cpu time spent up to now is      720.1 secs

     total energy              =   -8078.55308062 Ry
     estimated scf accuracy    <       0.05147240 Ry

     total magnetization       =    97.40 Bohr mag/cell
     absolute magnetization    =    98.58 Bohr mag/cell

     iteration # 51     ecut=    50.00 Ry     beta= 0.50
     Davidson diagonalization with overlap
     ethr =  3.04E-06,  avg # of iterations =  2.0

     negative rho (up, down):  7.906E-05 8.736E-05
 
     Adding external electric field

     Computed dipole along edir(3) : 
        Dipole                0.1933 Ry au,          0.4912 Debye
        Dipole field          0.0001 Ry au, 
 
        Potential amp.       -0.0127 Ry
        Total length         54.7057 bohr
 
 
     Adding external electric field

     Computed dipole along edir(3) : 
        Dipole                0.1933 Ry au,          0.4912 Debye
        Dipole field          0.0001 Ry au, 
 
        Potential amp.       -0.0127 Ry
        Total length         54.7057 bohr
 

     total cpu time spent up to now is      732.6 secs

     total energy              =   -8078.55286226 Ry
     estimated scf accuracy    <       0.02344986 Ry

     total magnetization       =    97.34 Bohr mag/cell
     absolute magnetization    =    98.53 Bohr mag/cell

     iteration # 52     ecut=    50.00 Ry     beta= 0.50
     Davidson diagonalization with overlap
     ethr =  2.12E-06,  avg # of iterations = 15.0

     negative rho (up, down):  6.426E-04 5.937E-04
 
     Adding external electric field

     Computed dipole along edir(3) : 
        Dipole                0.2883 Ry au,          0.7328 Debye
        Dipole field          0.0002 Ry au, 
 
        Potential amp.       -0.0189 Ry
        Total length         54.7057 bohr
 
 
     Adding external electric field

     Computed dipole along edir(3) : 
        Dipole                0.2883 Ry au,          0.7328 Debye
        Dipole field          0.0002 Ry au, 
 
        Potential amp.       -0.0189 Ry
        Total length         54.7057 bohr
 

     total cpu time spent up to now is      752.0 secs

     total energy              =   -8078.55323489 Ry
     estimated scf accuracy    <       0.00709115 Ry

     total magnetization       =    97.19 Bohr mag/cell
     absolute magnetization    =    98.38 Bohr mag/cell

     iteration # 53     ecut=    50.00 Ry     beta= 0.50
     Davidson diagonalization with overlap
     ethr =  6.40E-07,  avg # of iterations =  2.0

     negative rho (up, down):  3.580E-04 1.875E-04
 
     Adding external electric field

     Computed dipole along edir(3) : 
        Dipole                0.2987 Ry au,          0.7593 Debye
        Dipole field          0.0002 Ry au, 
 
        Potential amp.       -0.0196 Ry
        Total length         54.7057 bohr
 
 
     Adding external electric field

     Computed dipole along edir(3) : 
        Dipole                0.2987 Ry au,          0.7593 Debye
        Dipole field          0.0002 Ry au, 
 
        Potential amp.       -0.0196 Ry
        Total length         54.7057 bohr
 

     total cpu time spent up to now is      765.5 secs

     total energy              =   -8078.55300984 Ry
     estimated scf accuracy    <       0.00422231 Ry

     total magnetization       =    97.30 Bohr mag/cell
     absolute magnetization    =    98.49 Bohr mag/cell

     iteration # 54     ecut=    50.00 Ry     beta= 0.50
     Davidson diagonalization with overlap
     ethr =  3.81E-07,  avg # of iterations =  2.0

     negative rho (up, down):  4.377E-04 2.371E-04
 
     Adding external electric field

     Computed dipole along edir(3) : 
        Dipole                0.3206 Ry au,          0.8148 Debye
        Dipole field          0.0002 Ry au, 
 
        Potential amp.       -0.0210 Ry
        Total length         54.7057 bohr
 
 
     Adding external electric field

     Computed dipole along edir(3) : 
        Dipole                0.3206 Ry au,          0.8148 Debye
        Dipole field          0.0002 Ry au, 
 
        Potential amp.       -0.0210 Ry
        Total length         54.7057 bohr
 

     total cpu time spent up to now is      779.2 secs

     total energy              =   -8078.55324728 Ry
     estimated scf accuracy    <       0.00629402 Ry

     total magnetization       =    97.05 Bohr mag/cell
     absolute magnetization    =    98.26 Bohr mag/cell

     iteration # 55     ecut=    50.00 Ry     beta= 0.50
     Davidson diagonalization with overlap
     ethr =  3.81E-07,  avg # of iterations =  2.0

     negative rho (up, down):  7.865E-04 2.485E-04
 
     Adding external electric field

     Computed dipole along edir(3) : 
        Dipole                0.3436 Ry au,          0.8734 Debye
        Dipole field          0.0002 Ry au, 
 
        Potential amp.       -0.0225 Ry
        Total length         54.7057 bohr
 
 
     Adding external electric field

     Computed dipole along edir(3) : 
        Dipole                0.3436 Ry au,          0.8734 Debye
        Dipole field          0.0002 Ry au, 
 
        Potential amp.       -0.0225 Ry
        Total length         54.7057 bohr
 

     total cpu time spent up to now is      792.0 secs

     total energy              =   -8078.55356564 Ry
     estimated scf accuracy    <       0.00147149 Ry

     total magnetization       =    97.26 Bohr mag/cell
     absolute magnetization    =    98.47 Bohr mag/cell

     iteration # 56     ecut=    50.00 Ry     beta= 0.50
     Davidson diagonalization with overlap
     ethr =  1.33E-07,  avg # of iterations =  7.5

     negative rho (up, down):  6.462E-04 1.606E-04
 
     Adding external electric field

     Computed dipole along edir(3) : 
        Dipole                0.3346 Ry au,          0.8505 Debye
        Dipole field          0.0002 Ry au, 
 
        Potential amp.       -0.0219 Ry
        Total length         54.7057 bohr
 
 
     Adding external electric field

     Computed dipole along edir(3) : 
        Dipole                0.3346 Ry au,          0.8505 Debye
        Dipole field          0.0002 Ry au, 
 
        Potential amp.       -0.0219 Ry
        Total length         54.7057 bohr
 

     total cpu time spent up to now is      807.7 secs

     total energy              =   -8078.55359304 Ry
     estimated scf accuracy    <       0.00110140 Ry

     total magnetization       =    97.22 Bohr mag/cell
     absolute magnetization    =    98.43 Bohr mag/cell

     iteration # 57     ecut=    50.00 Ry     beta= 0.50
     Davidson diagonalization with overlap
     ethr =  9.94E-08,  avg # of iterations =  2.0

     negative rho (up, down):  7.205E-04 2.933E-04
 
     Adding external electric field

     Computed dipole along edir(3) : 
        Dipole                0.3186 Ry au,          0.8098 Debye
        Dipole field          0.0002 Ry au, 
 
        Potential amp.       -0.0209 Ry
        Total length         54.7057 bohr
 
 
     Adding external electric field

     Computed dipole along edir(3) : 
        Dipole                0.3186 Ry au,          0.8098 Debye
        Dipole field          0.0002 Ry au, 
 
        Potential amp.       -0.0209 Ry
        Total length         54.7057 bohr
 

     total cpu time spent up to now is      820.8 secs

     total energy              =   -8078.55358472 Ry
     estimated scf accuracy    <       0.00116554 Ry

     total magnetization       =    97.24 Bohr mag/cell
     absolute magnetization    =    98.45 Bohr mag/cell

     iteration # 58     ecut=    50.00 Ry     beta= 0.50
     Davidson diagonalization with overlap
     ethr =  9.94E-08,  avg # of iterations =  2.0

     negative rho (up, down):  6.186E-04 1.903E-04
 
     Adding external electric field

     Computed dipole along edir(3) : 
        Dipole                0.3188 Ry au,          0.8104 Debye
        Dipole field          0.0002 Ry au, 
 
        Potential amp.       -0.0209 Ry
        Total length         54.7057 bohr
 
 
     Adding external electric field

     Computed dipole along edir(3) : 
        Dipole                0.3188 Ry au,          0.8104 Debye
        Dipole field          0.0002 Ry au, 
 
        Potential amp.       -0.0209 Ry
        Total length         54.7057 bohr
 

     total cpu time spent up to now is      835.3 secs

     total energy              =   -8078.55358046 Ry
     estimated scf accuracy    <       0.00058056 Ry

     total magnetization       =    97.22 Bohr mag/cell
     absolute magnetization    =    98.44 Bohr mag/cell

     iteration # 59     ecut=    50.00 Ry     beta= 0.50
     Davidson diagonalization with overlap
     ethr =  5.24E-08,  avg # of iterations =  2.0

     negative rho (up, down):  9.011E-04 4.988E-04
 
     Adding external electric field

     Computed dipole along edir(3) : 
        Dipole                0.3102 Ry au,          0.7883 Debye
[...]
    -5.9881  -5.9839  -5.9547  -5.9321  -5.8969  -5.8818  -5.8587  -5.8481
    -5.8179  -5.8105  -5.7963  -5.7625  -5.7552  -5.7396  -5.7122  -5.6810
    -5.6695  -5.6424  -5.6330  -5.6118  -5.5774  -5.5665  -5.5633  -5.5364
    -5.5182  -5.5153  -5.4808  -5.4710  -5.4653  -5.4579  -5.3921  -5.3749
    -5.3609  -5.3135  -5.3013  -5.2850  -5.2352  -5.2043  -5.1736  -5.1699
    -5.1498  -5.1021  -5.1008  -4.9983  -4.9634  -4.9602  -4.9498  -4.9143
    -4.8924  -4.8630  -4.8042  -4.7979  -4.7907  -4.7303  -4.7175  -4.7051
    -4.6576  -4.6021  -4.5807  -4.5651  -4.5090  -4.4694  -4.4572  -4.3926
    -4.3749  -4.3559  -4.3216  -4.2957  -4.2746  -4.2493  -4.2092  -4.1867
    -4.1346  -4.1089  -4.0943  -4.0544  -4.0442  -4.0119  -3.9978  -3.9606
    -3.8706  -3.8667  -3.8312  -3.8088  -3.8019  -3.7766  -3.7496  -3.7202
    -3.7098  -3.7024  -3.6735  -3.6180  -3.6095  -3.5896  -3.5791  -3.5713
    -3.5486  -3.5373  -3.5018  -3.4978  -3.4876  -3.4847  -3.4440  -3.4279
    -3.4095  -3.3968  -3.3954  -3.3715  -3.3309  -3.3239  -3.3100  -3.2993
    -3.2904  -3.2856  -3.2646  -3.2429  -3.2248  -3.1918  -3.1783  -3.1491
    -3.1366  -3.1020  -3.0551  -3.0336  -3.0267  -3.0169  -3.0035  -2.9830
    -2.9799  -2.9695  -2.9472  -2.8998  -2.8781  -2.8653  -2.8402  -2.8113
    -2.7998  -2.7803  -2.7243  -2.7110  -2.6989  -2.6923  -2.6777  -2.6603
    -2.6573  -2.6394  -2.6319  -2.6119  -2.5957  -2.5941  -2.5859  -2.5769
    -2.5572  -2.5483  -2.5297  -2.5193  -2.4989  -2.4899  -2.4806  -2.4436
    -2.4302  -2.4194  -2.3847  -2.3696  -2.3505  -2.3416  -2.3237  -2.3041
    -2.2864  -2.2839  -2.2660  -2.2557  -2.2195  -2.2085  -2.1890  -2.1829
    -2.1571  -2.1248  -2.1041  -2.0883  -2.0846  -2.0647  -2.0486  -2.0288
    -2.0167  -1.9909  -1.9769  -1.9581  -1.9328  -1.9158  -1.9091  -1.8823
    -1.8699  -1.8597  -1.8449  -1.8404  -1.8305  -1.7970  -1.7621  -1.7493
    -1.7384  -1.7176  -1.7021  -1.6911  -1.6692  -1.6499  -1.6015  -1.5913
    -1.5708  -1.5603  -1.5300  -1.5173  -1.4972  -1.4877  -1.4721  -1.4567
    -1.4357  -1.4321  -1.4102  -1.3801  -1.3727  -1.3517  -1.3230  -1.3036
    -1.2966  -1.2897  -1.2311  -1.2074  -1.1868  -1.1529  -1.1438  -1.1353
    -1.0789  -1.0703  -0.9998  -0.9783  -0.9424  -0.8210  -0.8139  -0.7700
    -0.7127  -0.6878  -0.6712  -0.4869  -0.3383  -0.2766  -0.2508  -0.1755
     0.1828   0.1941   0.2402   0.2505   0.2589   0.2676   0.2731   0.3008
     0.3379   0.3514   0.3818   0.3925   0.3953   0.3969   0.3992   0.4106
     0.4161   0.4244   0.4416   0.4464   0.4520   0.4629   0.4689   0.4725
     0.4746   0.4848   0.4935   0.5033   0.5136   0.5215   0.5275   0.5379
     0.5460   0.5524   0.5786   0.5839   0.5860   0.5877   0.5949   0.6061
     0.6160   0.6229   0.6365   0.6424   0.6504   0.6632   0.6705   0.6794
     0.6910   0.7045   0.7107   0.7173   0.7272   0.7340   0.7385   0.7528
     0.7635   0.7757   0.7921   0.7931   0.8080   0.8146   0.8165   0.8254
     0.8341   0.8484   0.8633   0.8679   0.8778   0.8891   0.9102   0.9435
     0.9500   0.9950   1.0065   1.0239   1.0361   1.1031   1.1693   1.2192
     1.7034   1.7698   1.7804   1.7877   1.8131   1.8181   1.8419   1.8629
     1.8910   1.9038   1.9195   1.9298   1.9578   1.9773   2.0157   2.0449
     2.0529   2.0693   2.0915   2.0956   2.1204   2.1267   2.1463   2.1663
     2.1865   2.2005   2.2121   2.2361   2.2425   2.2813   2.2947   2.3062
     2.3354   2.3380   2.3473   2.3637   2.3822   2.3862   2.4194   2.4344
     2.4570   2.4741   2.4854   2.5286   2.5364   2.5473   2.5803   2.6074
     2.6474   2.6555   2.7581   2.7826   2.8197   2.8383   2.8947   3.4954
     3.5715   3.6754   3.7198   3.7441   3.7699   3.7900   3.7955   3.9152
     3.9246   3.9509   3.9777   3.9884   3.9918   3.9997   4.0027   4.0557
     4.0632   4.0820   4.0890   4.1229   4.1511   4.1616   4.2071   4.2255
     4.2353   4.2436   4.2500   4.2679   4.3140   4.6044   4.6969   4.7811
     4.8096   4.8629   4.8955   4.9146   4.9775   4.9989   5.0247   5.0712
     5.1041   5.1094   5.1426   5.1775   5.2207   5.2325   5.3827   6.2065
     6.3410   6.4480   6.5317   6.6859   6.7087   6.7783   6.8461   6.9008
     6.9370   6.9900   7.0098   7.0541   7.2468   7.2943   7.3112   7.3696
     7.4098   7.4210   7.5109   7.5189   7.5615   7.6576   7.7027   7.7590
     7.8242   7.8396   7.9130   7.9340   7.9465   8.0062   8.0216   8.0703
     8.0828   8.1075   8.1206   8.1403   8.1754   8.2507   8.2793   8.2937
     8.3267   8.3475   8.3770   8.3867   8.3937   8.4283   8.4429   8.4500
     8.4688   8.4989   8.5064   8.5528   8.5705   8.6042   8.6119   8.6309
     8.6434

     the Fermi energy is     1.6944 ev

!    total energy              =   -8078.55359208 Ry
     estimated scf accuracy    <       0.00000051 Ry
     smearing contrib. (-TS)   =      -0.02584937 Ry
     internal energy E=F+TS    =   -8078.52774271 Ry

     The total energy is F=E-TS. E is the sum of the following terms:
     one-electron contribution =  -94603.48202734 Ry
     hartree contribution      =   47886.37540963 Ry
     xc contribution           =   -2177.37660717 Ry
     ewald contribution        =   40817.72372435 Ry
     Dispersion Correction     =      -1.76830322 Ry
     electric field correction =       0.00006104 Ry

     total magnetization       =    97.20 Bohr mag/cell
     absolute magnetization    =    98.41 Bohr mag/cell

     convergence has been achieved in  71 iterations

     negative rho (up, down):  1.156E-03 6.235E-04

     Forces acting on atoms (cartesian axes, Ry/au):

     atom    1 type  1   force =     0.00203296   -0.00151636   -0.00189421
     atom    2 type  1   force =    -0.00004075    0.00004193   -0.00033777
     atom    3 type  2   force =    -0.00004813    0.00094186   -0.00025079
     atom    4 type  1   force =    -0.00025807    0.00015954    0.00018598
     atom    5 type  1   force =     0.00014964    0.00023338    0.00019109
     atom    6 type  1   force =    -0.00055945    0.00046640    0.00014940
     atom    7 type  1   force =    -0.00059463    0.00035717    0.00004821
     atom    8 type  2   force =     0.00044406    0.00029839    0.00008599
     atom    9 type  2   force =     0.00007818    0.00006056    0.00022309
     atom   10 type  1   force =    -0.00004295    0.00005682    0.00039239
     atom   11 type  1   force =     0.00091680   -0.00032786   -0.00004999
     atom   12 type  1   force =    -0.00048099    0.00005063    0.00038346
     atom   13 type  3   force =     0.00013807    0.00004251   -0.00009295
     atom   14 type  3   force =    -0.00018515   -0.00050900    0.00006220
     atom   15 type  3   force =    -0.00028546    0.00020032    0.00036353
     atom   16 type  3   force =     0.00010599    0.00010746   -0.00007131
     atom   17 type  4   force =    -0.00006526    0.00012878    0.00018159
     atom   18 type  4   force =    -0.00049737   -0.00051288   -0.00009542
     atom   19 type  4   force =    -0.00041633   -0.00019555   -0.00077759
     atom   20 type  4   force =     0.00002434   -0.00027141   -0.00021468
     atom   21 type  4   force =     0.00006961    0.00014152   -0.00000032
     atom   22 type  4   force =    -0.00045726    0.00028595    0.00044645
     atom   23 type  4   force =     0.00037029    0.00003275    0.00048937
     atom   24 type  4   force =     0.00000664    0.00018511    0.00002750
     atom   25 type  4   force =     0.00024276    0.00024518    0.00014678
     atom   26 type  4   force =     0.00031617   -0.00001770   -0.00022025
     atom   27 type  4   force =    -0.00004753   -0.00003512    0.00027287
     atom   28 type  4   force =    -0.00039416   -0.00054045   -0.00043371
     atom   29 type  4   force =    -0.00007381   -0.00010471    0.00014715
     atom   30 type  4   force =    -0.00020877   -0.00031310   -0.00044375
     atom   31 type  4   force =    -0.00015108    0.00009253    0.00036533
     atom   32 type  4   force =    -0.00005790    0.00031102    0.00008209
     atom   33 type  3   force =    -0.00046128    0.00015315   -0.00001650
     atom   34 type  3   force =     0.00025907   -0.00063628   -0.00045285
     atom   35 type  3   force =    -0.00097281   -0.00034898   -0.00011521
     atom   36 type  3   force =    -0.00011458   -0.00011743    0.00004686
     atom   37 type  4   force =    -0.00019140    0.00013866    0.00023939
     atom   38 type  4   force =    -0.00025994   -0.00052491   -0.00009367
     atom   39 type  4   force =     0.00004739   -0.00056285    0.00001462
     atom   40 type  4   force =     0.00000985   -0.00032241    0.00009047
     atom   41 type  4   force =    -0.00010095    0.00017408    0.00013762
     atom   42 type  4   force =     0.00029490    0.00113119    0.00012887
     atom   43 type  4   force =     0.00084759    0.00047474    0.00035146
     atom   44 type  4   force =    -0.00025983    0.00009400    0.00018885
     atom   45 type  4   force =     0.00010879    0.00025951   -0.00008860
     atom   46 type  4   force =    -0.00001944   -0.00012056   -0.00009563
     atom   47 type  4   force =    -0.00007917   -0.00024590   -0.00015153
     atom   48 type  4   force =    -0.00011171   -0.00008160   -0.00004024
     atom   49 type  4   force =    -0.00028644    0.00022421    0.00018617
     atom   50 type  4   force =    -0.00017711   -0.00044994   -0.00006590
     atom   51 type  4   force =    -0.00022107    0.00013362    0.00016946
     atom   52 type  4   force =     0.00002484    0.00040808    0.00002171
     atom   53 type  1   force =    -0.00042580    0.00098705    0.00274501
     atom   54 type  1   force =     0.00082596    0.00057975   -0.00146643
     atom   55 type  2   force =     0.00162947    0.00122331    0.00573998
     atom   56 type  1   force =    -0.00063549   -0.00114486   -0.00109651
     atom   57 type  1   force =     0.00047460   -0.00005864   -0.00011784
     atom   58 type  1   force =     0.00002548    0.00035940    0.00007891
     atom   59 type  1   force =     0.00216737   -0.00102737   -0.00125382
     atom   60 type  2   force =     0.00007922    0.00028752   -0.00173438
     atom   61 type  2   force =     0.00050605    0.00089417    0.00411625
     atom   62 type  1   force =    -0.00045317   -0.00085558   -0.00130475
     atom   63 type  1   force =    -0.00038402    0.00004524   -0.00025063
     atom   64 type  1   force =     0.00005289    0.00011067    0.00017399
     atom   65 type  3   force =    -0.00020041   -0.00101399   -0.00210224
     atom   66 type  3   force =    -0.00029440    0.00038834    0.00111732
     atom   67 type  3   force =    -0.00020718   -0.00151799    0.00157689
     atom   68 type  3   force =    -0.00071588    0.00082365   -0.00095137
     atom   69 type  4   force =    -0.00071128    0.00040153    0.00067785
     atom   70 type  4   force =     0.00059546   -0.00071393   -0.00110110
     atom   71 type  4   force =     0.00044603    0.00051017   -0.00033469
     atom   72 type  4   force =     0.00026684   -0.00051334    0.00163467
     atom   73 type  4   force =    -0.00079281    0.00068886    0.00170768
     atom   74 type  4   force =     0.00147649   -0.00265967   -0.00230440
     atom   75 type  4   force =    -0.00173241    0.00063605    0.00004876
     atom   76 type  4   force =     0.00012537   -0.00073872    0.00142648
     atom   77 type  4   force =    -0.00046134   -0.00003776    0.00060286
     atom   78 type  4   force =    -0.00099874    0.00066619   -0.00015061
     atom   79 type  4   force =     0.00025551    0.00025234    0.00064095
     atom   80 type  4   force =     0.00018858    0.00100197   -0.00022640
     atom   81 type  4   force =    -0.00042285   -0.00153421   -0.00102330
     atom   82 type  4   force =     0.00099214   -0.00149691    0.00079206
     atom   83 type  4   force =    -0.00006203    0.00075958    0.00039997
     atom   84 type  4   force =    -0.00058999    0.00028503    0.00056415
     atom   85 type  3   force =    -0.00027646   -0.00089348   -0.00264284
     atom   86 type  3   force =     0.00079006    0.00183181    0.00359356
     atom   87 type  3   force =    -0.00053101   -0.00061457   -0.00029880
     atom   88 type  3   force =    -0.00068421    0.00085943   -0.00081364
     atom   89 type  4   force =    -0.00012224   -0.00015376    0.00043920
     atom   90 type  4   force =    -0.00053064   -0.00036761   -0.00125981
     atom   91 type  4   force =     0.00032240    0.00027055   -0.00032952
     atom   92 type  4   force =     0.00038264   -0.00040957    0.00117423
     atom   93 type  4   force =    -0.00008409    0.00116346    0.00101603
     atom   94 type  4   force =     0.00176487    0.00075081    0.00320112
     atom   95 type  4   force =    -0.00031970    0.00001556   -0.00017016
     atom   96 type  4   force =    -0.00019067   -0.00029294    0.00111869
     atom   97 type  4   force =    -0.00001474   -0.00057994    0.00074449
     atom   98 type  4   force =    -0.00039185    0.00054234   -0.00008218
     atom   99 type  4   force =     0.00057239   -0.00009215    0.00074518
     atom  100 type  4   force =     0.00076024    0.00069244   -0.00027543
     atom  101 type  4   force =    -0.00025371   -0.00082293   -0.00075032
     atom  102 type  4   force =     0.00135008   -0.00183427    0.00040207
     atom  103 type  4   force =     0.00041694    0.00027875    0.00031025
     atom  104 type  4   force =    -0.00003433   -0.00055718   -0.00010055
     atom  105 type  1   force =    -0.00067995    0.00206660   -0.00648345
     atom  106 type  1   force =     0.02820304    0.01374292    0.02193354
     atom  107 type  2   force =     0.00177998    0.00022402   -0.01039506
     atom  108 type  1   force =    -0.03103223    0.02294348    0.01665986
     atom  109 type  1   force =     0.00417896   -0.00287544   -0.00337632
     atom  110 type  1   force =    -0.00125647   -0.00647722   -0.00545290
     atom  111 type  1   force =    -0.00384109    0.00238652   -0.00576022
     atom  112 type  2   force =     0.03232863    0.01655212   -0.01050599
     atom  113 type  2   force =     0.00143070    0.00100614   -0.01000775
     atom  114 type  1   force =    -0.03193915    0.02424430    0.01759930
     atom  115 type  1   force =     0.00347349   -0.00484096   -0.00436742
     atom  116 type  1   force =    -0.00494462   -0.00803202   -0.00657622
     atom  117 type  3   force =    -0.02899894   -0.03570608   -0.06278463
     atom  118 type  3   force =     0.00317592    0.00036425   -0.00693240
     atom  119 type  3   force =     0.00072381   -0.00066252   -0.00912399
     atom  120 type  3   force =     0.02796354   -0.05774599   -0.08375022
     atom  121 type  4   force =    -0.00654369   -0.00323934    0.03052389
     atom  122 type  4   force =    -0.00147114   -0.00108001    0.00253334
     atom  123 type  4   force =     0.00157550   -0.00098413    0.00476864
     atom  124 type  4   force =     0.00361446    0.00308447    0.03400397
     atom  125 type  4   force =    -0.00226372   -0.00227564    0.03399442
     atom  126 type  4   force =    -0.00086875    0.00071167    0.00301732
     atom  127 type  4   force =     0.00219449    0.00314205    0.00436566
     atom  128 type  4   force =    -0.00312226   -0.00174046    0.02225326
     atom  129 type  4   force =    -0.01244239    0.03645553    0.00490944
     atom  130 type  4   force =    -0.00146569    0.00030281    0.00235988
     atom  131 type  4   force =    -0.01951665    0.00354323    0.00990278
     atom  132 type  4   force =    -0.00113651    0.00353221    0.00433232
     atom  133 type  4   force =    -0.00280724    0.00064189    0.00241754
     atom  134 type  4   force =     0.00142283   -0.00442686    0.00352977
     atom  135 type  4   force =     0.01379984    0.02366440   -0.00094440
     atom  136 type  4   force =     0.01325005   -0.00062921    0.00236660
     atom  137 type  3   force =    -0.03818661   -0.04126172   -0.06619665
     atom  138 type  3   force =     0.00646031   -0.00301727   -0.00138973
     atom  139 type  3   force =     0.00027764   -0.00156336   -0.00939378
     atom  140 type  3   force =     0.02906713   -0.05119255   -0.08330269
     atom  141 type  4   force =    -0.00106644    0.00271225    0.02937716
     atom  142 type  4   force =     0.00040575    0.00243045   -0.00635516
     atom  143 type  4   force =     0.00167980   -0.00081913    0.00416760
     atom  144 type  4   force =     0.00423933    0.00178186    0.03466261
     atom  145 type  4   force =     0.00896870    0.00383459    0.03117442
     atom  146 type  4   force =    -0.00036116    0.00059008    0.00178414
     atom  147 type  4   force =     0.00272691    0.00346830    0.00402754
     atom  148 type  4   force =    -0.00396043   -0.00138951    0.02213372
     atom  149 type  4   force =    -0.00994243    0.03024462    0.00420680
     atom  150 type  4   force =    -0.00187733    0.00034986    0.00281196
     atom  151 type  4   force =    -0.01861703    0.00504663    0.00986369
     atom  152 type  4   force =    -0.00092254    0.00342723    0.00432762
     atom  153 type  4   force =    -0.00124207    0.00026609    0.00297316
     atom  154 type  4   force =     0.00208029   -0.00262324    0.00284711
     atom  155 type  4   force =     0.01469320    0.02467639    0.00011554
     atom  156 type  4   force =     0.02244417   -0.00365350    0.00140240
     atom  157 type  4   force =    -0.01389064   -0.00611170    0.00488480
     atom  158 type  5   force =     0.00992591    0.00766028   -0.00359674

     Total force =     0.238529     Total SCF correction =     0.002393
 
     init_run     :      7.45s CPU      8.06s WALL (       1 calls)
     electrons    :    943.07s CPU    989.26s WALL (       1 calls)
     forces       :      4.03s CPU      4.36s WALL (       1 calls)
     force_london :      0.12s CPU      0.12s WALL (       1 calls)

     Called by init_run:
     wfcinit      :      4.12s CPU      4.27s WALL (       1 calls)
     potinit      :      0.87s CPU      1.06s WALL (       1 calls)
     hinit0       :      1.41s CPU      1.50s WALL (       1 calls)

     Called by electrons:
     c_bands      :    751.28s CPU    775.70s WALL (      71 calls)
     sum_band     :    123.18s CPU    133.51s WALL (      71 calls)
     v_of_rho     :     16.69s CPU     19.56s WALL (      72 calls)
     newd         :     35.11s CPU     43.53s WALL (      72 calls)
     mix_rho      :     16.22s CPU     16.58s WALL (      71 calls)
     energy_londo :      0.08s CPU      0.08s WALL (       1 calls)

     Called by c_bands:
     init_us_2    :      2.07s CPU      2.12s WALL (     288 calls)
     init_us_2:cp :      2.06s CPU      2.12s WALL (     288 calls)
     regterg      :    735.62s CPU    759.81s WALL (     143 calls)

     Called by *egterg:
     rdiaghg      :    221.55s CPU    233.97s WALL (     600 calls)
     h_psi        :    286.54s CPU    291.80s WALL (     602 calls)
     s_psi        :     51.87s CPU     51.90s WALL (     602 calls)
     g_psi        :      0.38s CPU      0.39s WALL (     457 calls)

     Called by h_psi:
     h_psi:calbec :     69.62s CPU     73.70s WALL (     602 calls)
     vloc_psi     :    163.67s CPU    164.34s WALL (     602 calls)
     add_vuspsi   :     52.56s CPU     53.06s WALL (     602 calls)

     General routines
     calbec       :    103.07s CPU    109.13s WALL (     752 calls)
     fft          :     13.91s CPU     17.36s WALL (    1309 calls)
     ffts         :     10.87s CPU     10.90s WALL (    8069 calls)
     fftw         :    185.20s CPU    185.87s WALL (  246502 calls)
     interpolate  :      1.42s CPU      1.48s WALL (     144 calls)
 
     Parallel routines
 
     PWSCF        :  15m56.54s CPU  16m43.98s WALL

 
   This run was terminated on:  23:42:11  19Nov2025            

=------------------------------------------------------------------------------=
   JOB DONE.
=------------------------------------------------------------------------------=
