
     Program PWSCF v.7.2 starts on 18Nov2025 at  0:27:49 

     This program is part of the open-source Quantum ESPRESSO suite
     for quantum simulation of materials; please cite
         "P. Giannozzi et al., J. Phys.:Condens. Matter 21 395502 (2009);
         "P. Giannozzi et al., J. Phys.:Condens. Matter 29 465901 (2017);
         "P. Giannozzi et al., J. Chem. Phys. 152 154105 (2020);
          URL http://www.quantum-espresso.org", 
     in publications or presentations arising from this work. More details at
     http://www.quantum-espresso.org/quote

     Parallel version (MPI), running on    64 processors

     MPI processes distributed on     4 nodes
     472613 MiB available memory on the printing compute node when the environment starts
 
     Reading input from PWINPUT_atm158_ym

     Current dimensions of program PWSCF are:
     Max number of different atomic species (ntypx) = 10
     Max number of k-points (npk) =  40000
     Max angular momentum in pseudopotentials (lmaxx) =  4
     Presently no symmetry can be used with electric field

     file Ni.pbe-n-rrkjus_psl.1.0.0.UPF: wavefunction(s)  3D renormalized
     file Mn.pbe-spn-rrkjus_psl.0.3.1.UPF: wavefunction(s)  3D renormalized
     file O.pbe-rrkjus.UPF: wavefunction(s)  2S renormalized
     file H.pbe-rrkjus.UPF: wavefunction(s)  1S renormalized

     gamma-point specific algorithms are used
 
     R & G space division:  proc/nbgrp/npool/nimage =      64
     Subspace diagonalization in iterative solution of the eigenvalue problem:
     one sub-group per band group will be used
     custom distributed-memory algorithm (size of sub-group:  7*  7 procs)

 
     Parallelization info
     --------------------
     sticks:   dense  smooth     PW     G-vecs:    dense   smooth      PW
     Min         207      82     20                60552    15302    1896
     Max         210      84     22                60574    15336    1950
     Sum       13325    5345   1333              3876045   980655  122653
 
     Using Slab Decomposition
 


     bravais-lattice index     =            0
     lattice parameter (alat)  =      17.4067  a.u.
     unit-cell volume          =   20529.8182 (a.u.)^3
     number of atoms/cell      =          158
     number of atomic types    =            5
     number of electrons       =      1093.00
     number of Kohn-Sham states=          656
     kinetic-energy cutoff     =      50.0000  Ry
     charge density cutoff     =     500.0000  Ry
     scf convergence threshold =      1.0E-06
     mixing beta               =       0.1000
     number of iterations used =            8  local-TF  mixing
     Exchange-correlation=  SLA  PW   PBE  PBE
                           (   1   4   3   4   0   0   0)

     celldm(1)=  17.406729  celldm(2)=   0.000000  celldm(3)=   0.000000
     celldm(4)=   0.000000  celldm(5)=   0.000000  celldm(6)=   0.000000

     crystal axes: (cart. coord. in units of alat)
               a(1) = (   1.000000   0.000000   0.000000 )  
               a(2) = (  -0.001404   1.105696   0.000000 )  
               a(3) = (   0.000000   0.000000   3.520448 )  

     reciprocal axes: (cart. coord. in units 2 pi/alat)
               b(1) = (  1.000000  0.001270  0.000000 )  
               b(2) = (  0.000000  0.904408  0.000000 )  
               b(3) = (  0.000000  0.000000  0.284055 )  


     PseudoPot. # 1 for Ni read from file:
     ~/PSEUDO/Ni.pbe-n-rrkjus_psl.1.0.0.UPF
     MD5 check sum: Not computed, couldn't open file
     Pseudo is Ultrasoft + core correction, Zval = 10.0
     Generated using "atomic" code by A. Dal Corso  v.5.1.2
     Using radial grid of 1195 points,  6 beta functions with: 
                l(1) =   0
                l(2) =   0
                l(3) =   1
                l(4) =   1
                l(5) =   2
                l(6) =   2
     Q(r) pseudized with 0 coefficients 


     PseudoPot. # 2 for Mn read from file:
     ~/PSEUDO/Mn.pbe-spn-rrkjus_psl.0.3.1.UPF
     MD5 check sum: Not computed, couldn't open file
     Pseudo is Ultrasoft + core correction, Zval = 15.0
     Generated using &quot;atomic&quot; code by A. Dal Corso  v.6.2.2
     Using radial grid of 1187 points,  6 beta functions with: 
                l(1) =   0
                l(2) =   0
                l(3) =   1
                l(4) =   1
                l(5) =   2
                l(6) =   2
     Q(r) pseudized with 0 coefficients 


     PseudoPot. # 3 for P  read from file:
     ~/PSEUDO/P.pbe-n-rrkjus_psl.1.0.0.UPF
     MD5 check sum: Not computed, couldn't open file
     Pseudo is Ultrasoft + core correction, Zval =  5.0
     Generated using "atomic" code by A. Dal Corso  v.5.1
     Using radial grid of 1147 points,  6 beta functions with: 
                l(1) =   0
                l(2) =   0
                l(3) =   1
                l(4) =   1
                l(5) =   2
                l(6) =   2
     Q(r) pseudized with 0 coefficients 


     PseudoPot. # 4 for O  read from file:
     ~/PSEUDO/O.pbe-rrkjus.UPF
     MD5 check sum: Not computed, couldn't open file
     Pseudo is Ultrasoft, Zval =  6.0
     Generated by new atomic code, or converted to UPF format
     Using radial grid of 1269 points,  4 beta functions with: 
                l(1) =   0
                l(2) =   0
                l(3) =   1
                l(4) =   1
     Q(r) pseudized with 0 coefficients 


     PseudoPot. # 5 for H  read from file:
     ~/PSEUDO/H.pbe-rrkjus.UPF
     MD5 check sum: Not computed, couldn't open file
     Pseudo is Ultrasoft, Zval =  1.0
     Generated by new atomic code, or converted to UPF format
     Using radial grid of 1061 points,  2 beta functions with: 
                l(1) =   0
                l(2) =   0
     Q(r) pseudized with 0 coefficients 


     atomic species   valence    mass     pseudopotential
     Ni               10.00    58.69300     Ni( 1.00)
     Mn               15.00    54.93800     Mn( 1.00)
     P                 5.00    30.97300     P ( 1.00)
     O                 6.00    15.99900     O ( 1.00)
     H                 1.00     1.00790     H ( 1.00)

     Starting magnetic structure 
     atomic species   magnetization
     Ni              1.000
     Mn              1.000
     P               1.000
     O               1.000
     H               0.000

     No symmetry found



   Cartesian axes

     site n.     atom                  positions (alat units)
         1        Ni     tau(   1) = (   0.2421002   0.8609138   0.1302181  )
         2        Mn     tau(   2) = (   0.4924481   0.7886602   0.4655392  )
         3        Ni     tau(   3) = (   0.0052341   0.3031820   0.1284544  )
         4        Ni     tau(   4) = (   0.2570603   0.2374878   0.4617901  )
         5        Ni     tau(   5) = (   0.4976584   1.1048203   0.2964410  )
         6        Ni     tau(   6) = (   0.2495781   0.5440308   0.2953805  )
         7        P      tau(   7) = (   0.2083492   0.9982113   0.4588145  )
         8        P      tau(   8) = (   0.4584476   0.6559264   0.1347090  )
         9        P      tau(   9) = (   0.2889394   0.1031966   0.1319347  )
        10        P      tau(  10) = (   0.0400379   0.4338094   0.4586283  )
        11        O      tau(  11) = (   0.1314218   0.9248062   0.3189972  )
        12        O      tau(  12) = (   0.3797244   0.7272031   0.2742874  )
        13        O      tau(  13) = (   0.3662315   0.1762062   0.2720888  )
        14        O      tau(  14) = (   0.1171240   0.3646150   0.3169340  )
        15        O      tau(  15) = (   0.1510364   0.9068326   0.5881934  )
        16        O      tau(  16) = (   0.3981989   0.7453439   0.0053495  )
        17        O      tau(  17) = (   0.3490561   0.1888693   0.0010856  )
        18        O      tau(  18) = (   0.0982395   0.3475583   0.5894443  )
        19        O      tau(  19) = (   0.0992163   0.5918099   0.4542505  )
        20        O      tau(  20) = (   0.3467441   1.0504690   0.1405000  )
        21        O      tau(  21) = (   0.3739183   0.4303319   0.4477971  )
        22        O      tau(  22) = (   0.1230967   0.1088895   0.1422960  )
        23        O      tau(  23) = (   0.1242901   0.6635968   0.1442928  )
        24        O      tau(  24) = (   0.4011802   0.4971632   0.1376281  )
        25        O      tau(  25) = (   0.1484006   0.0497464   0.4550965  )
        26        O      tau(  26) = (   0.3736100   0.9942556   0.4492158  )
        27        Ni     tau(  27) = (   0.2413539   0.8509941   0.7820408  )
        28        Mn     tau(  28) = (   0.4917018   0.7787406   1.1173619  )
        29        Ni     tau(  29) = (   0.0044877   0.2932623   0.7802771  )
        30        Ni     tau(  30) = (   0.2563139   0.2275682   1.1136128  )
        31        Ni     tau(  31) = (   0.4969120   1.0949007   0.9482637  )
        32        Ni     tau(  32) = (   0.2488318   0.5341111   0.9472032  )
        33        P      tau(  33) = (   0.2076029   0.9882917   1.1106372  )
        34        P      tau(  34) = (   0.4577012   0.6460068   0.7865316  )
        35        P      tau(  35) = (   0.2881931   0.0932770   0.7837574  )
        36        P      tau(  36) = (   0.0392916   0.4238898   1.1104509  )
        37        O      tau(  37) = (   0.1306755   0.9148866   0.9708199  )
        38        O      tau(  38) = (   0.3789780   0.7172835   0.9261101  )
        39        O      tau(  39) = (   0.3654852   0.1662865   0.9239115  )
        40        O      tau(  40) = (   0.1163776   0.3546954   0.9687567  )
        41        O      tau(  41) = (   0.1502901   0.8969129   1.2400160  )
        42        O      tau(  42) = (   0.3974525   0.7354243   0.6571722  )
        43        O      tau(  43) = (   0.3483097   0.1789497   0.6529083  )
        44        O      tau(  44) = (   0.0974932   0.3376387   1.2412670  )
        45        O      tau(  45) = (   0.0984699   0.5818903   1.1060732  )
        46        O      tau(  46) = (   0.3459978   1.0405493   0.7923226  )
        47        O      tau(  47) = (   0.3731719   0.4204123   1.0996198  )
        48        O      tau(  48) = (   0.1223503   0.0989699   0.7941187  )
        49        O      tau(  49) = (   0.1235438   0.6536772   0.7961155  )
        50        O      tau(  50) = (   0.4004339   0.4872435   0.7894508  )
        51        O      tau(  51) = (   0.1476543   0.0398268   1.1069192  )
        52        O      tau(  52) = (   0.3728637   0.9843360   1.1010385  )
        53        Ni     tau(  53) = (   0.2408392   0.8320559   1.4307548  )
        54        Mn     tau(  54) = (   0.4954146   0.7586327   1.7610775  )
        55        Ni     tau(  55) = (   0.0038240   0.2752655   1.4301830  )
        56        Ni     tau(  56) = (   0.2490297   0.2126224   1.7413163  )
        57        Ni     tau(  57) = (   0.5009698   1.0727426   1.5934065  )
        58        Ni     tau(  58) = (   0.2431858   0.5187785   1.5959132  )
        59        P      tau(  59) = (   0.2122300   0.9646931   1.7577827  )
        60        P      tau(  60) = (   0.4560273   0.6255665   1.4349308  )
        61        P      tau(  61) = (   0.2895010   0.0747953   1.4294223  )
        62        P      tau(  62) = (   0.0342753   0.4049908   1.7624825  )
        63        O      tau(  63) = (   0.1360342   0.9011422   1.6115162  )
        64        O      tau(  64) = (   0.3787980   0.6986865   1.5736904  )
        65        O      tau(  65) = (   0.3677510   0.1474149   1.5681507  )
        66        O      tau(  66) = (   0.1091522   0.3445019   1.6130708  )
        67        O      tau(  67) = (   0.1535140   0.8654492   1.8774963  )
        68        O      tau(  68) = (   0.3948076   0.7176264   1.3082772  )
        69        O      tau(  69) = (   0.3502162   0.1643066   1.3009305  )
        70        O      tau(  70) = (   0.0993202   0.3091187   1.8805971  )
        71        O      tau(  71) = (   0.0903777   0.5660296   1.7630811  )
        72        O      tau(  72) = (   0.3492636   1.0227954   1.4341724  )
        73        O      tau(  73) = (   0.3646020   0.4001049   1.7428273  )
        74        O      tau(  74) = (   0.1232632   0.0821777   1.4436547  )
        75        O      tau(  75) = (   0.1218485   0.6357099   1.4465986  )
        76        O      tau(  76) = (   0.3950879   0.4683338   1.4358038  )
        77        O      tau(  77) = (   0.1575600   0.0186245   1.7589158  )
        78        O      tau(  78) = (   0.3794955   0.9564473   1.7469906  )
        79        Ni     tau(  79) = (   0.7421002   0.8609138   0.1302181  )
        80        Mn     tau(  80) = (   0.9924481   0.7886602   0.4655392  )
        81        Ni     tau(  81) = (   0.5052341   0.3031820   0.1284544  )
        82        Ni     tau(  82) = (   0.7570603   0.2374878   0.4617901  )
        83        Ni     tau(  83) = (   0.9976584   1.1048203   0.2964410  )
        84        Ni     tau(  84) = (   0.7495781   0.5440308   0.2953805  )
        85        P      tau(  85) = (   0.7083492   0.9982113   0.4588145  )
        86        P      tau(  86) = (   0.9584476   0.6559264   0.1347090  )
        87        P      tau(  87) = (   0.7889394   0.1031966   0.1319347  )
        88        P      tau(  88) = (   0.5400379   0.4338094   0.4586283  )
        89        O      tau(  89) = (   0.6314218   0.9248062   0.3189972  )
        90        O      tau(  90) = (   0.8797244   0.7272031   0.2742874  )
        91        O      tau(  91) = (   0.8662315   0.1762062   0.2720888  )
        92        O      tau(  92) = (   0.6171240   0.3646150   0.3169340  )
        93        O      tau(  93) = (   0.6510364   0.9068326   0.5881934  )
        94        O      tau(  94) = (   0.8981989   0.7453439   0.0053495  )
        95        O      tau(  95) = (   0.8490561   0.1888693   0.0010856  )
        96        O      tau(  96) = (   0.5982395   0.3475583   0.5894443  )
        97        O      tau(  97) = (   0.5992163   0.5918099   0.4542505  )
        98        O      tau(  98) = (   0.8467441   1.0504690   0.1405000  )
        99        O      tau(  99) = (   0.8739183   0.4303319   0.4477971  )
       100        O      tau( 100) = (   0.6230967   0.1088895   0.1422960  )
       101        O      tau( 101) = (   0.6242901   0.6635968   0.1442928  )
       102        O      tau( 102) = (   0.9011802   0.4971632   0.1376281  )
       103        O      tau( 103) = (   0.6484006   0.0497464   0.4550965  )
       104        O      tau( 104) = (   0.8736100   0.9942556   0.4492158  )
       105        Ni     tau( 105) = (   0.7413539   0.8509941   0.7820408  )
       106        Mn     tau( 106) = (   0.9917018   0.7787406   1.1173619  )
       107        Ni     tau( 107) = (   0.5044877   0.2932623   0.7802771  )
       108        Ni     tau( 108) = (   0.7563139   0.2275682   1.1136128  )
       109        Ni     tau( 109) = (   0.9969120   1.0949007   0.9482637  )
       110        Ni     tau( 110) = (   0.7488318   0.5341111   0.9472032  )
       111        P      tau( 111) = (   0.7076029   0.9882917   1.1106372  )
       112        P      tau( 112) = (   0.9577012   0.6460068   0.7865316  )
       113        P      tau( 113) = (   0.7881931   0.0932770   0.7837574  )
       114        P      tau( 114) = (   0.5392916   0.4238898   1.1104509  )
       115        O      tau( 115) = (   0.6306755   0.9148866   0.9708199  )
       116        O      tau( 116) = (   0.8789780   0.7172835   0.9261101  )
       117        O      tau( 117) = (   0.8654852   0.1662865   0.9239115  )
       118        O      tau( 118) = (   0.6163776   0.3546954   0.9687567  )
       119        O      tau( 119) = (   0.6502901   0.8969129   1.2400160  )
       120        O      tau( 120) = (   0.8974525   0.7354243   0.6571722  )
       121        O      tau( 121) = (   0.8483097   0.1789497   0.6529083  )
       122        O      tau( 122) = (   0.5974932   0.3376387   1.2412670  )
       123        O      tau( 123) = (   0.5984699   0.5818903   1.1060732  )
       124        O      tau( 124) = (   0.8459978   1.0405493   0.7923226  )
       125        O      tau( 125) = (   0.8731719   0.4204123   1.0996198  )
       126        O      tau( 126) = (   0.6223503   0.0989699   0.7941187  )
       127        O      tau( 127) = (   0.6235438   0.6536772   0.7961155  )
       128        O      tau( 128) = (   0.9004339   0.4872435   0.7894508  )
       129        O      tau( 129) = (   0.6476543   0.0398268   1.1069192  )
       130        O      tau( 130) = (   0.8728637   0.9843360   1.1010385  )
       131        Ni     tau( 131) = (   0.7412940   0.8317433   1.4310133  )
       132        Mn     tau( 132) = (   0.9942976   0.7631104   1.7617718  )
       133        Ni     tau( 133) = (   0.5047574   0.2752797   1.4288709  )
       134        Ni     tau( 134) = (   0.7578350   0.2028549   1.7762646  )
       135        Ni     tau( 135) = (   0.9991757   1.0753039   1.5972728  )
       136        Ni     tau( 136) = (   0.7442600   0.5152897   1.5986856  )
       137        P      tau( 137) = (   0.7103622   0.9612778   1.7571285  )
       138        P      tau( 138) = (   0.9553703   0.6259627   1.4358934  )
       139        P      tau( 139) = (   0.7893263   0.0766982   1.4325513  )
       140        P      tau( 140) = (   0.5325678   0.3983667   1.7561030  )
       141        O      tau( 141) = (   0.6347348   0.8960507   1.6104236  )
       142        O      tau( 142) = (   0.8786872   0.6982692   1.5748233  )
       143        O      tau( 143) = (   0.8656120   0.1503721   1.5709854  )
       144        O      tau( 144) = (   0.6103215   0.3431354   1.6091064  )
       145        O      tau( 145) = (   0.6551320   0.8592875   1.8763947  )
       146        O      tau( 146) = (   0.8944353   0.7174045   1.3087138  )
       147        O      tau( 147) = (   0.8496681   0.1651992   1.3026615  )
       148        O      tau( 148) = (   0.5874463   0.2980729   1.8752625  )
       149        O      tau( 149) = (   0.5882302   0.5598447   1.7638488  )
       150        O      tau( 150) = (   0.8489894   1.0242576   1.4369886  )
       151        O      tau( 151) = (   0.8668845   0.4032412   1.7522286  )
       152        O      tau( 152) = (   0.6225444   0.0814235   1.4420664  )
       153        O      tau( 153) = (   0.6223363   0.6337860   1.4464754  )
       154        O      tau( 154) = (   0.8959961   0.4681766   1.4379317  )
       155        O      tau( 155) = (   0.6491461   0.0122190   1.7550753  )
       156        O      tau( 156) = (   0.8775761   0.9554460   1.7441695  )
       157        O      tau( 157) = (   0.8703181   0.1184006   1.9156559  )
       158        H      tau( 158) = (   0.9557521   0.1776162   1.9403932  )

     -------------------------------------------------
     Parameters for Dispersion (Grimme-D2) Correction:
     -------------------------------------------------
       atom      VdW radius       C_6     

        Ni         2.952        374.666
        Mn         2.952        374.666
        P          3.222        271.980
        O          2.536         24.284
        H          1.892          4.857

     number of k points=     1  Gaussian smearing, width (Ry)=  0.0100
                       cart. coord. in units 2pi/alat
        k(    1) = (   0.0000000   0.0000000   0.0000000), wk =   1.0000000

     Dense  grid:  1938023 G-vectors     FFT dimensions: ( 125, 144, 450)

     Smooth grid:   490328 G-vectors     FFT dimensions: (  80,  90, 288)

     Estimated max dynamical RAM per process >     326.29 MB

     Estimated total dynamical RAM >      20.39 GB

     Check: negative core charge=   -0.000001
     Generating pointlists ...
     new r_m :   0.0817 (alat units)  1.4219 (a.u.) for type    1
     new r_m :   0.0904 (alat units)  1.5743 (a.u.) for type    2
     new r_m :   0.0681 (alat units)  1.1857 (a.u.) for type    3
     new r_m :   0.0441 (alat units)  0.7672 (a.u.) for type    4
     new r_m :   0.0441 (alat units)  0.7672 (a.u.) for type    5

     Initial potential from superposition of free atoms

     starting charge    1092.8893, renormalised to    1093.0000

     negative rho (up, down):  1.375E-03 4.569E-04
 
     Adding external electric field

     Computed dipole along edir(3) : 
        Dipole                1.6484 Ry au,          4.1898 Debye
        Dipole field          0.0010 Ry au, 
 
        Potential amp.       -0.1113 Ry
        Total length         55.1515 bohr
 
 
     Adding external electric field

     Computed dipole along edir(3) : 
        Dipole                1.6484 Ry au,          4.1898 Debye
        Dipole field          0.0010 Ry au, 
 
        Potential amp.       -0.1113 Ry
        Total length         55.1515 bohr
 
     Starting wfcs are  815 randomized atomic wfcs

     total cpu time spent up to now is       11.7 secs

     Self-consistent Calculation

     iteration #  1     ecut=    50.00 Ry     beta= 0.10
     Davidson diagonalization with overlap
     ethr =  1.00E-02,  avg # of iterations =  6.0

     negative rho (up, down):  3.932E-01 2.174E-06
 
     Adding external electric field

     Computed dipole along edir(3) : 
        Dipole               -3.4040 Ry au,         -8.6522 Debye
        Dipole field         -0.0021 Ry au, 
 
        Potential amp.        0.2298 Ry
        Total length         55.1515 bohr
 
 
     Adding external electric field

     Computed dipole along edir(3) : 
        Dipole               -3.4040 Ry au,         -8.6522 Debye
        Dipole field         -0.0021 Ry au, 
 
        Potential amp.        0.2298 Ry
        Total length         55.1515 bohr
 

     total cpu time spent up to now is       41.7 secs

     total energy              =   -7519.10707120 Ry
     estimated scf accuracy    <     750.88344960 Ry

     total magnetization       =   219.00 Bohr mag/cell
     absolute magnetization    =   307.77 Bohr mag/cell

     iteration #  2     ecut=    50.00 Ry     beta= 0.10
     Davidson diagonalization with overlap
     ethr =  1.00E-02,  avg # of iterations =  2.0

     negative rho (up, down):  3.638E-01 1.476E-06
 
     Adding external electric field

     Computed dipole along edir(3) : 
        Dipole               -2.4478 Ry au,         -6.2218 Debye
        Dipole field         -0.0015 Ry au, 
 
        Potential amp.        0.1653 Ry
        Total length         55.1515 bohr
 
 
     Adding external electric field

     Computed dipole along edir(3) : 
        Dipole               -2.4478 Ry au,         -6.2218 Debye
        Dipole field         -0.0015 Ry au, 
 
        Potential amp.        0.1653 Ry
        Total length         55.1515 bohr
 

     total cpu time spent up to now is       59.6 secs

     total energy              =   -7602.51119129 Ry
     estimated scf accuracy    <     171.59072313 Ry

     total magnetization       =   154.85 Bohr mag/cell
     absolute magnetization    =   204.60 Bohr mag/cell

     iteration #  3     ecut=    50.00 Ry     beta= 0.10
     Davidson diagonalization with overlap
     ethr =  1.00E-02,  avg # of iterations =  1.5

     negative rho (up, down):  3.178E-01 1.556E-06
 
     Adding external electric field

     Computed dipole along edir(3) : 
        Dipole               -2.0237 Ry au,         -5.1438 Debye
        Dipole field         -0.0012 Ry au, 
 
        Potential amp.        0.1366 Ry
        Total length         55.1515 bohr
 
 
     Adding external electric field

     Computed dipole along edir(3) : 
        Dipole               -2.0237 Ry au,         -5.1438 Debye
        Dipole field         -0.0012 Ry au, 
 
        Potential amp.        0.1366 Ry
        Total length         55.1515 bohr
 

     total cpu time spent up to now is       73.6 secs

     total energy              =   -7635.38203355 Ry
     estimated scf accuracy    <     101.62260239 Ry

     total magnetization       =   132.03 Bohr mag/cell
     absolute magnetization    =   183.66 Bohr mag/cell

     iteration #  4     ecut=    50.00 Ry     beta= 0.10
     Davidson diagonalization with overlap
     ethr =  9.30E-03,  avg # of iterations =  1.5

     negative rho (up, down):  2.472E-01 6.440E-07
 
     Adding external electric field

     Computed dipole along edir(3) : 
        Dipole               -2.0091 Ry au,         -5.1065 Debye
        Dipole field         -0.0012 Ry au, 
 
        Potential amp.        0.1356 Ry
        Total length         55.1515 bohr
 
 
     Adding external electric field

     Computed dipole along edir(3) : 
        Dipole               -2.0091 Ry au,         -5.1065 Debye
        Dipole field         -0.0012 Ry au, 
 
        Potential amp.        0.1356 Ry
        Total length         55.1515 bohr
 

     total cpu time spent up to now is       87.5 secs

     total energy              =   -7666.03534822 Ry
     estimated scf accuracy    <      79.90245357 Ry

     total magnetization       =   114.99 Bohr mag/cell
     absolute magnetization    =   168.39 Bohr mag/cell

     iteration #  5     ecut=    50.00 Ry     beta= 0.10
     Davidson diagonalization with overlap
     ethr =  7.31E-03,  avg # of iterations =  1.0

     negative rho (up, down):  1.193E-02 2.642E-07
 
     Adding external electric field

     Computed dipole along edir(3) : 
        Dipole               -1.4614 Ry au,         -3.7145 Debye
        Dipole field         -0.0009 Ry au, 
 
        Potential amp.        0.0987 Ry
        Total length         55.1515 bohr
 
 
     Adding external electric field

     Computed dipole along edir(3) : 
        Dipole               -1.4614 Ry au,         -3.7145 Debye
        Dipole field         -0.0009 Ry au, 
 
        Potential amp.        0.0987 Ry
        Total length         55.1515 bohr
 

     total cpu time spent up to now is      100.4 secs

     total energy              =   -7727.07934442 Ry
     estimated scf accuracy    <      63.92435812 Ry

     total magnetization       =    97.04 Bohr mag/cell
     absolute magnetization    =   151.37 Bohr mag/cell

     iteration #  6     ecut=    50.00 Ry     beta= 0.10
     Davidson diagonalization with overlap
     ethr =  5.85E-03,  avg # of iterations =  1.0

     negative rho (up, down):  2.517E-04 4.564E-04
 
     Adding external electric field

     Computed dipole along edir(3) : 
        Dipole               -1.0435 Ry au,         -2.6524 Debye
        Dipole field         -0.0006 Ry au, 
 
        Potential amp.        0.0705 Ry
        Total length         55.1515 bohr
 
 
     Adding external electric field

     Computed dipole along edir(3) : 
        Dipole               -1.0435 Ry au,         -2.6524 Debye
        Dipole field         -0.0006 Ry au, 
 
        Potential amp.        0.0705 Ry
        Total length         55.1515 bohr
 

     total cpu time spent up to now is      113.7 secs

     total energy              =   -7736.26354090 Ry
     estimated scf accuracy    <      10.66578457 Ry

     total magnetization       =    90.99 Bohr mag/cell
     absolute magnetization    =   121.20 Bohr mag/cell

     iteration #  7     ecut=    50.00 Ry     beta= 0.10
     Davidson diagonalization with overlap
     ethr =  9.76E-04,  avg # of iterations =  6.5

     negative rho (up, down):  2.456E-04 4.572E-04
 
     Adding external electric field

     Computed dipole along edir(3) : 
        Dipole               -1.0288 Ry au,         -2.6149 Debye
        Dipole field         -0.0006 Ry au, 
 
        Potential amp.        0.0695 Ry
        Total length         55.1515 bohr
 
 
     Adding external electric field

     Computed dipole along edir(3) : 
        Dipole               -1.0288 Ry au,         -2.6149 Debye
        Dipole field         -0.0006 Ry au, 
 
        Potential amp.        0.0695 Ry
        Total length         55.1515 bohr
 

     total cpu time spent up to now is      138.6 secs

     total energy              =   -7738.38176975 Ry
     estimated scf accuracy    <      25.39925909 Ry

     total magnetization       =    70.31 Bohr mag/cell
     absolute magnetization    =    87.57 Bohr mag/cell

     iteration #  8     ecut=    50.00 Ry     beta= 0.10
     Davidson diagonalization with overlap
     ethr =  9.76E-04,  avg # of iterations =  1.0

     negative rho (up, down):  2.222E-04 4.236E-04
 
     Adding external electric field

     Computed dipole along edir(3) : 
        Dipole               -1.0028 Ry au,         -2.5489 Debye
        Dipole field         -0.0006 Ry au, 
 
        Potential amp.        0.0677 Ry
        Total length         55.1515 bohr
 
 
     Adding external electric field

     Computed dipole along edir(3) : 
        Dipole               -1.0028 Ry au,         -2.5489 Debye
        Dipole field         -0.0006 Ry au, 
 
        Potential amp.        0.0677 Ry
        Total length         55.1515 bohr
 

     total cpu time spent up to now is      152.7 secs

     total energy              =   -7738.36154048 Ry
     estimated scf accuracy    <      24.39393696 Ry

     total magnetization       =    70.57 Bohr mag/cell
     absolute magnetization    =    87.39 Bohr mag/cell

     iteration #  9     ecut=    50.00 Ry     beta= 0.10
     Davidson diagonalization with overlap
     ethr =  9.76E-04,  avg # of iterations =  1.0

     negative rho (up, down):  6.102E-05 3.249E-04
 
     Adding external electric field

     Computed dipole along edir(3) : 
        Dipole               -0.8031 Ry au,         -2.0413 Debye
        Dipole field         -0.0005 Ry au, 
 
        Potential amp.        0.0542 Ry
        Total length         55.1515 bohr
 
 
     Adding external electric field

     Computed dipole along edir(3) : 
        Dipole               -0.8031 Ry au,         -2.0413 Debye
        Dipole field         -0.0005 Ry au, 
 
        Potential amp.        0.0542 Ry
        Total length         55.1515 bohr
 

     total cpu time spent up to now is      166.1 secs

     total energy              =   -7737.95440744 Ry
     estimated scf accuracy    <      22.83815603 Ry

     total magnetization       =    70.91 Bohr mag/cell
     absolute magnetization    =    87.28 Bohr mag/cell

     iteration # 10     ecut=    50.00 Ry     beta= 0.10
     Davidson diagonalization with overlap
     ethr =  9.76E-04,  avg # of iterations =  1.0

     negative rho (up, down):  7.924E-05 4.161E-04
 
     Adding external electric field

     Computed dipole along edir(3) : 
        Dipole               -0.6891 Ry au,         -1.7516 Debye
        Dipole field         -0.0004 Ry au, 
 
        Potential amp.        0.0465 Ry
        Total length         55.1515 bohr
 
 
     Adding external electric field

     Computed dipole along edir(3) : 
        Dipole               -0.6891 Ry au,         -1.7516 Debye
        Dipole field         -0.0004 Ry au, 
 
        Potential amp.        0.0465 Ry
        Total length         55.1515 bohr
 

     total cpu time spent up to now is      178.7 secs

     total energy              =   -7737.89926869 Ry
     estimated scf accuracy    <      10.70399766 Ry

     total magnetization       =    75.38 Bohr mag/cell
     absolute magnetization    =    88.57 Bohr mag/cell

     iteration # 11     ecut=    50.00 Ry     beta= 0.10
     Davidson diagonalization with overlap
     ethr =  9.76E-04,  avg # of iterations =  1.0

     negative rho (up, down):  8.150E-05 4.852E-04
 
     Adding external electric field

     Computed dipole along edir(3) : 
        Dipole               -0.6597 Ry au,         -1.6768 Debye
        Dipole field         -0.0004 Ry au, 
 
        Potential amp.        0.0445 Ry
        Total length         55.1515 bohr
 
 
     Adding external electric field

     Computed dipole along edir(3) : 
        Dipole               -0.6597 Ry au,         -1.6768 Debye
        Dipole field         -0.0004 Ry au, 
 
        Potential amp.        0.0445 Ry
        Total length         55.1515 bohr
 

     total cpu time spent up to now is      190.7 secs

     total energy              =   -7737.95099164 Ry
     estimated scf accuracy    <       5.44358802 Ry

     total magnetization       =    80.62 Bohr mag/cell
     absolute magnetization    =    91.56 Bohr mag/cell

     iteration # 12     ecut=    50.00 Ry     beta= 0.10
     Davidson diagonalization with overlap
     ethr =  4.98E-04,  avg # of iterations =  1.5

     negative rho (up, down):  6.237E-05 5.192E-04
 
     Adding external electric field

     Computed dipole along edir(3) : 
        Dipole               -0.7105 Ry au,         -1.8059 Debye
        Dipole field         -0.0004 Ry au, 
 
        Potential amp.        0.0480 Ry
        Total length         55.1515 bohr
 
 
     Adding external electric field

     Computed dipole along edir(3) : 
        Dipole               -0.7105 Ry au,         -1.8059 Debye
        Dipole field         -0.0004 Ry au, 
 
        Potential amp.        0.0480 Ry
        Total length         55.1515 bohr
 

     total cpu time spent up to now is      203.3 secs

     total energy              =   -7737.96495107 Ry
     estimated scf accuracy    <       4.71531678 Ry

     total magnetization       =    81.04 Bohr mag/cell
     absolute magnetization    =    91.60 Bohr mag/cell

     iteration # 13     ecut=    50.00 Ry     beta= 0.10
     Davidson diagonalization with overlap
     ethr =  4.31E-04,  avg # of iterations =  1.5

     negative rho (up, down):  6.443E-05 6.978E-04
 
     Adding external electric field

     Computed dipole along edir(3) : 
        Dipole               -0.6851 Ry au,         -1.7413 Debye
        Dipole field         -0.0004 Ry au, 
 
        Potential amp.        0.0463 Ry
        Total length         55.1515 bohr
 
 
     Adding external electric field

     Computed dipole along edir(3) : 
        Dipole               -0.6851 Ry au,         -1.7413 Debye
        Dipole field         -0.0004 Ry au, 
 
        Potential amp.        0.0463 Ry
        Total length         55.1515 bohr
 

     total cpu time spent up to now is      216.1 secs

     total energy              =   -7737.96444867 Ry
     estimated scf accuracy    <       7.62939694 Ry

     total magnetization       =    77.12 Bohr mag/cell
     absolute magnetization    =    88.48 Bohr mag/cell

     iteration # 14     ecut=    50.00 Ry     beta= 0.10
     Davidson diagonalization with overlap
     ethr =  4.31E-04,  avg # of iterations =  1.5

     negative rho (up, down):  7.451E-04 1.278E-03
 
     Adding external electric field

     Computed dipole along edir(3) : 
        Dipole               -0.3895 Ry au,         -0.9899 Debye
        Dipole field         -0.0002 Ry au, 
 
        Potential amp.        0.0263 Ry
        Total length         55.1515 bohr
 
 
     Adding external electric field

     Computed dipole along edir(3) : 
        Dipole               -0.3895 Ry au,         -0.9899 Debye
        Dipole field         -0.0002 Ry au, 
 
        Potential amp.        0.0263 Ry
        Total length         55.1515 bohr
 

     total cpu time spent up to now is      228.9 secs

     total energy              =   -7737.62849820 Ry
     estimated scf accuracy    <       7.29005483 Ry

     total magnetization       =    76.63 Bohr mag/cell
     absolute magnetization    =    87.68 Bohr mag/cell

     iteration # 15     ecut=    50.00 Ry     beta= 0.10
     Davidson diagonalization with overlap
     ethr =  4.31E-04,  avg # of iterations =  2.0

     negative rho (up, down):  4.274E-04 2.676E-03
 
     Adding external electric field

     Computed dipole along edir(3) : 
        Dipole               -0.2932 Ry au,         -0.7453 Debye
        Dipole field         -0.0002 Ry au, 
 
        Potential amp.        0.0198 Ry
        Total length         55.1515 bohr
 
 
     Adding external electric field

     Computed dipole along edir(3) : 
        Dipole               -0.2932 Ry au,         -0.7453 Debye
        Dipole field         -0.0002 Ry au, 
 
        Potential amp.        0.0198 Ry
        Total length         55.1515 bohr
 

     total cpu time spent up to now is      242.9 secs

     total energy              =   -7738.04766884 Ry
     estimated scf accuracy    <       1.45881567 Ry

     total magnetization       =    88.64 Bohr mag/cell
     absolute magnetization    =    96.73 Bohr mag/cell

     iteration # 16     ecut=    50.00 Ry     beta= 0.10
     Davidson diagonalization with overlap
     ethr =  1.33E-04,  avg # of iterations =  7.5

     negative rho (up, down):  2.489E-04 2.632E-03
 
     Adding external electric field

     Computed dipole along edir(3) : 
        Dipole               -0.2625 Ry au,         -0.6673 Debye
        Dipole field         -0.0002 Ry au, 
 
        Potential amp.        0.0177 Ry
        Total length         55.1515 bohr
 
 
     Adding external electric field

     Computed dipole along edir(3) : 
        Dipole               -0.2625 Ry au,         -0.6673 Debye
        Dipole field         -0.0002 Ry au, 
 
        Potential amp.        0.0177 Ry
        Total length         55.1515 bohr
 

     total cpu time spent up to now is      259.9 secs

     total energy              =   -7738.02277951 Ry
     estimated scf accuracy    <       1.57766367 Ry

     total magnetization       =    87.44 Bohr mag/cell
     absolute magnetization    =    94.21 Bohr mag/cell

     iteration # 17     ecut=    50.00 Ry     beta= 0.10
     Davidson diagonalization with overlap
     ethr =  1.33E-04,  avg # of iterations =  1.0

     negative rho (up, down):  6.550E-05 1.877E-03
 
     Adding external electric field

     Computed dipole along edir(3) : 
        Dipole               -0.2796 Ry au,         -0.7107 Debye
        Dipole field         -0.0002 Ry au, 
 
        Potential amp.        0.0189 Ry
        Total length         55.1515 bohr
 
 
     Adding external electric field

     Computed dipole along edir(3) : 
        Dipole               -0.2796 Ry au,         -0.7107 Debye
        Dipole field         -0.0002 Ry au, 
 
        Potential amp.        0.0189 Ry
        Total length         55.1515 bohr
 

     total cpu time spent up to now is      272.6 secs

     total energy              =   -7737.99414079 Ry
     estimated scf accuracy    <       1.08874793 Ry

     total magnetization       =    88.80 Bohr mag/cell
     absolute magnetization    =    94.80 Bohr mag/cell

     iteration # 18     ecut=    50.00 Ry     beta= 0.10
     Davidson diagonalization with overlap
     ethr =  9.96E-05,  avg # of iterations =  2.0

     negative rho (up, down):  3.717E-05 1.500E-03
 
     Adding external electric field

     Computed dipole along edir(3) : 
        Dipole               -0.2494 Ry au,         -0.6338 Debye
        Dipole field         -0.0002 Ry au, 
 
        Potential amp.        0.0168 Ry
        Total length         55.1515 bohr
 
 
     Adding external electric field

     Computed dipole along edir(3) : 
        Dipole               -0.2494 Ry au,         -0.6338 Debye
        Dipole field         -0.0002 Ry au, 
 
        Potential amp.        0.0168 Ry
        Total length         55.1515 bohr
 

     total cpu time spent up to now is      286.6 secs

     total energy              =   -7738.05350596 Ry
     estimated scf accuracy    <       1.77512295 Ry

     total magnetization       =    87.00 Bohr mag/cell
     absolute magnetization    =    92.76 Bohr mag/cell

     iteration # 19     ecut=    50.00 Ry     beta= 0.10
     Davidson diagonalization with overlap
     ethr =  9.96E-05,  avg # of iterations =  1.0

     negative rho (up, down):  1.196E-05 5.106E-04
 
     Adding external electric field

     Computed dipole along edir(3) : 
        Dipole               -0.1240 Ry au,         -0.3153 Debye
        Dipole field         -0.0001 Ry au, 
 
        Potential amp.        0.0084 Ry
        Total length         55.1515 bohr
 
 
     Adding external electric field

     Computed dipole along edir(3) : 
        Dipole               -0.1240 Ry au,         -0.3153 Debye
        Dipole field         -0.0001 Ry au, 
 
        Potential amp.        0.0084 Ry
        Total length         55.1515 bohr
 

     total cpu time spent up to now is      299.4 secs

     total energy              =   -7738.19772093 Ry
     estimated scf accuracy    <       1.98080715 Ry

     total magnetization       =    86.35 Bohr mag/cell
     absolute magnetization    =    91.77 Bohr mag/cell

     iteration # 20     ecut=    50.00 Ry     beta= 0.10
     Davidson diagonalization with overlap
     ethr =  9.96E-05,  avg # of iterations =  2.0

     negative rho (up, down):  1.636E-05 4.706E-04
 
     Adding external electric field

     Computed dipole along edir(3) : 
        Dipole               -0.0365 Ry au,         -0.0927 Debye
        Dipole field         -0.0000 Ry au, 
 
        Potential amp.        0.0025 Ry
        Total length         55.1515 bohr
 
 
     Adding external electric field

     Computed dipole along edir(3) : 
        Dipole               -0.0365 Ry au,         -0.0927 Debye
        Dipole field         -0.0000 Ry au, 
 
        Potential amp.        0.0025 Ry
        Total length         55.1515 bohr
 

     total cpu time spent up to now is      313.4 secs

     total energy              =   -7738.24225479 Ry
     estimated scf accuracy    <       2.98676573 Ry

     total magnetization       =    84.51 Bohr mag/cell
     absolute magnetization    =    89.00 Bohr mag/cell

     iteration # 21     ecut=    50.00 Ry     beta= 0.10
     Davidson diagonalization with overlap
     ethr =  9.96E-05,  avg # of iterations =  1.0

     negative rho (up, down):  2.049E-04 6.288E-04
 
     Adding external electric field

     Computed dipole along edir(3) : 
        Dipole                0.4581 Ry au,          1.1644 Debye
        Dipole field          0.0003 Ry au, 
 
        Potential amp.       -0.0309 Ry
        Total length         55.1515 bohr
 
 
     Adding external electric field

     Computed dipole along edir(3) : 
        Dipole                0.4581 Ry au,          1.1644 Debye
        Dipole field          0.0003 Ry au, 
 
        Potential amp.       -0.0309 Ry
        Total length         55.1515 bohr
 

     total cpu time spent up to now is      325.4 secs

     total energy              =   -7738.30172326 Ry
     estimated scf accuracy    <       2.81455894 Ry

     total magnetization       =    85.34 Bohr mag/cell
     absolute magnetization    =    89.13 Bohr mag/cell

     iteration # 22     ecut=    50.00 Ry     beta= 0.10
     Davidson diagonalization with overlap
     ethr =  9.96E-05,  avg # of iterations =  2.0

     negative rho (up, down):  1.953E-04 5.991E-04
 
     Adding external electric field

     Computed dipole along edir(3) : 
        Dipole                0.4601 Ry au,          1.1696 Debye
        Dipole field          0.0003 Ry au, 
 
        Potential amp.       -0.0311 Ry
        Total length         55.1515 bohr
 
 
     Adding external electric field

     Computed dipole along edir(3) : 
        Dipole                0.4601 Ry au,          1.1696 Debye
        Dipole field          0.0003 Ry au, 
 
        Potential amp.       -0.0311 Ry
        Total length         55.1515 bohr
 

     total cpu time spent up to now is      338.8 secs

     total energy              =   -7738.35628334 Ry
     estimated scf accuracy    <       3.14872748 Ry

     total magnetization       =    88.19 Bohr mag/cell
     absolute magnetization    =    89.77 Bohr mag/cell

     iteration # 23     ecut=    50.00 Ry     beta= 0.10
     Davidson diagonalization with overlap
     ethr =  9.96E-05,  avg # of iterations =  1.0

     negative rho (up, down):  2.631E-04 1.083E-03
 
     Adding external electric field

     Computed dipole along edir(3) : 
        Dipole                0.2895 Ry au,          0.7359 Debye
        Dipole field          0.0002 Ry au, 
 
        Potential amp.       -0.0195 Ry
        Total length         55.1515 bohr
 
 
     Adding external electric field

     Computed dipole along edir(3) : 
        Dipole                0.2895 Ry au,          0.7359 Debye
        Dipole field          0.0002 Ry au, 
 
        Potential amp.       -0.0195 Ry
        Total length         55.1515 bohr
 

     total cpu time spent up to now is      350.7 secs

     total energy              =   -7738.35233179 Ry
     estimated scf accuracy    <       2.85561066 Ry

     total magnetization       =    88.09 Bohr mag/cell
     absolute magnetization    =    89.62 Bohr mag/cell

     iteration # 24     ecut=    50.00 Ry     beta= 0.10
     Davidson diagonalization with overlap
     ethr =  9.96E-05,  avg # of iterations =  2.0

     negative rho (up, down):  2.588E-04 2.156E-04
 
     Adding external electric field

     Computed dipole along edir(3) : 
        Dipole                0.1641 Ry au,          0.4171 Debye
        Dipole field          0.0001 Ry au, 
 
        Potential amp.       -0.0111 Ry
        Total length         55.1515 bohr
 
 
     Adding external electric field

     Computed dipole along edir(3) : 
        Dipole                0.1641 Ry au,          0.4171 Debye
        Dipole field          0.0001 Ry au, 
 
        Potential amp.       -0.0111 Ry
        Total length         55.1515 bohr
 

     total cpu time spent up to now is      364.3 secs

     total energy              =   -7738.32807070 Ry
     estimated scf accuracy    <       5.38490089 Ry

     total magnetization       =    89.61 Bohr mag/cell
     absolute magnetization    =    91.21 Bohr mag/cell

     iteration # 25     ecut=    50.00 Ry     beta= 0.10
     Davidson diagonalization with overlap
     ethr =  9.96E-05,  avg # of iterations =  1.0

     negative rho (up, down):  1.713E-04 2.073E-04
 
     Adding external electric field

     Computed dipole along edir(3) : 
        Dipole                0.1030 Ry au,          0.2618 Debye
        Dipole field          0.0001 Ry au, 
 
        Potential amp.       -0.0070 Ry
        Total length         55.1515 bohr
 
 
     Adding external electric field

     Computed dipole along edir(3) : 
        Dipole                0.1030 Ry au,          0.2618 Debye
        Dipole field          0.0001 Ry au, 
 
        Potential amp.       -0.0070 Ry
        Total length         55.1515 bohr
 

     total cpu time spent up to now is      376.5 secs

     total energy              =   -7738.32512591 Ry
     estimated scf accuracy    <       2.56130910 Ry

     total magnetization       =    90.56 Bohr mag/cell
     absolute magnetization    =    93.15 Bohr mag/cell

     iteration # 26     ecut=    50.00 Ry     beta= 0.10
     Davidson diagonalization with overlap
     ethr =  9.96E-05,  avg # of iterations =  1.5

     negative rho (up, down):  4.526E-05 2.984E-05
 
     Adding external electric field

     Computed dipole along edir(3) : 
        Dipole               -0.0147 Ry au,         -0.0373 Debye
        Dipole field         -0.0000 Ry au, 
 
        Potential amp.        0.0010 Ry
        Total length         55.1515 bohr
 
 
     Adding external electric field

     Computed dipole along edir(3) : 
        Dipole               -0.0147 Ry au,         -0.0373 Debye
        Dipole field         -0.0000 Ry au, 
 
        Potential amp.        0.0010 Ry
        Total length         55.1515 bohr
 

     total cpu time spent up to now is      389.9 secs

     total energy              =   -7738.23976133 Ry
     estimated scf accuracy    <       2.25763617 Ry

     total magnetization       =    90.34 Bohr mag/cell
     absolute magnetization    =    93.25 Bohr mag/cell

     iteration # 27     ecut=    50.00 Ry     beta= 0.10
     Davidson diagonalization with overlap
     ethr =  9.96E-05,  avg # of iterations =  1.0

     negative rho (up, down):  4.748E-05 4.517E-05
 
     Adding external electric field

     Computed dipole along edir(3) : 
        Dipole                0.0394 Ry au,          0.1003 Debye
        Dipole field          0.0000 Ry au, 
 
        Potential amp.       -0.0027 Ry
        Total length         55.1515 bohr
 
 
     Adding external electric field

     Computed dipole along edir(3) : 
        Dipole                0.0394 Ry au,          0.1003 Debye
        Dipole field          0.0000 Ry au, 
 
        Potential amp.       -0.0027 Ry
        Total length         55.1515 bohr
 

     total cpu time spent up to now is      401.6 secs

     total energy              =   -7738.27570797 Ry
     estimated scf accuracy    <       2.22428190 Ry

     total magnetization       =    87.48 Bohr mag/cell
     absolute magnetization    =    91.55 Bohr mag/cell

     iteration # 28     ecut=    50.00 Ry     beta= 0.10
     Davidson diagonalization with overlap
     ethr =  9.96E-05,  avg # of iterations =  1.5

     negative rho (up, down):  4.776E-05 5.407E-05
 
     Adding external electric field

     Computed dipole along edir(3) : 
        Dipole                0.0036 Ry au,          0.0092 Debye
        Dipole field          0.0000 Ry au, 
 
        Potential amp.       -0.0002 Ry
        Total length         55.1515 bohr
 
 
     Adding external electric field

     Computed dipole along edir(3) : 
        Dipole                0.0036 Ry au,          0.0092 Debye
        Dipole field          0.0000 Ry au, 
 
        Potential amp.       -0.0002 Ry
        Total length         55.1515 bohr
 

     total cpu time spent up to now is      413.8 secs

     total energy              =   -7738.26511777 Ry
     estimated scf accuracy    <       2.10603657 Ry

     total magnetization       =    87.27 Bohr mag/cell
     absolute magnetization    =    91.26 Bohr mag/cell

     iteration # 29     ecut=    50.00 Ry     beta= 0.10
     Davidson diagonalization with overlap
     ethr =  9.96E-05,  avg # of iterations =  1.0

     negative rho (up, down):  3.185E-05 3.629E-05
 
     Adding external electric field

     Computed dipole along edir(3) : 
        Dipole               -0.0991 Ry au,         -0.2519 Debye
        Dipole field         -0.0001 Ry au, 
 
        Potential amp.        0.0067 Ry
        Total length         55.1515 bohr
 
 
     Adding external electric field

     Computed dipole along edir(3) : 
        Dipole               -0.0991 Ry au,         -0.2519 Debye
        Dipole field         -0.0001 Ry au, 
 
        Potential amp.        0.0067 Ry
        Total length         55.1515 bohr
 

     total cpu time spent up to now is      426.0 secs

     total energy              =   -7738.25021560 Ry
     estimated scf accuracy    <       1.78690464 Ry

     total magnetization       =    87.54 Bohr mag/cell
     absolute magnetization    =    91.69 Bohr mag/cell

     iteration # 30     ecut=    50.00 Ry     beta= 0.10
     Davidson diagonalization with overlap
     ethr =  9.96E-05,  avg # of iterations =  1.5

     negative rho (up, down):  6.120E-05 5.359E-05
 
     Adding external electric field

     Computed dipole along edir(3) : 
        Dipole               -0.0831 Ry au,         -0.2113 Debye
        Dipole field         -0.0001 Ry au, 
 
        Potential amp.        0.0056 Ry
        Total length         55.1515 bohr
 
 
     Adding external electric field

     Computed dipole along edir(3) : 
        Dipole               -0.0831 Ry au,         -0.2113 Debye
        Dipole field         -0.0001 Ry au, 
 
        Potential amp.        0.0056 Ry
        Total length         55.1515 bohr
 

     total cpu time spent up to now is      438.2 secs

     total energy              =   -7738.25960219 Ry
     estimated scf accuracy    <       2.36642882 Ry

     total magnetization       =    86.31 Bohr mag/cell
     absolute magnetization    =    90.98 Bohr mag/cell

     iteration # 31     ecut=    50.00 Ry     beta= 0.10
     Davidson diagonalization with overlap
     ethr =  9.96E-05,  avg # of iterations =  1.0

     negative rho (up, down):  1.148E-03 6.723E-04
 
     Adding external electric field

     Computed dipole along edir(3) : 
        Dipole               -0.3239 Ry au,         -0.8232 Debye
        Dipole field         -0.0002 Ry au, 
 
        Potential amp.        0.0219 Ry
        Total length         55.1515 bohr
 
 
     Adding external electric field

     Computed dipole along edir(3) : 
        Dipole               -0.3239 Ry au,         -0.8232 Debye
        Dipole field         -0.0002 Ry au, 
 
        Potential amp.        0.0219 Ry
        Total length         55.1515 bohr
 

     total cpu time spent up to now is      449.6 secs

     total energy              =   -7738.29838819 Ry
     estimated scf accuracy    <       1.42640151 Ry

     total magnetization       =    88.16 Bohr mag/cell
     absolute magnetization    =    92.31 Bohr mag/cell

     iteration # 32     ecut=    50.00 Ry     beta= 0.10
     Davidson diagonalization with overlap
     ethr =  9.96E-05,  avg # of iterations =  1.5

     negative rho (up, down):  4.751E-04 4.475E-04
 
     Adding external electric field

     Computed dipole along edir(3) : 
        Dipole               -0.5742 Ry au,         -1.4594 Debye
        Dipole field         -0.0004 Ry au, 
 
        Potential amp.        0.0388 Ry
        Total length         55.1515 bohr
 
 
     Adding external electric field

     Computed dipole along edir(3) : 
        Dipole               -0.5742 Ry au,         -1.4594 Debye
        Dipole field         -0.0004 Ry au, 
 
        Potential amp.        0.0388 Ry
        Total length         55.1515 bohr
 

     total cpu time spent up to now is      462.1 secs

     total energy              =   -7738.27069296 Ry
     estimated scf accuracy    <       1.40255655 Ry

     total magnetization       =    88.63 Bohr mag/cell
     absolute magnetization    =    91.59 Bohr mag/cell

     iteration # 33     ecut=    50.00 Ry     beta= 0.10
     Davidson diagonalization with overlap
     ethr =  9.96E-05,  avg # of iterations =  1.0

     negative rho (up, down):  1.127E-03 1.463E-03
 
     Adding external electric field

     Computed dipole along edir(3) : 
        Dipole               -0.4817 Ry au,         -1.2243 Debye
        Dipole field         -0.0003 Ry au, 
 
        Potential amp.        0.0325 Ry
        Total length         55.1515 bohr
 
 
     Adding external electric field

     Computed dipole along edir(3) : 
        Dipole               -0.4817 Ry au,         -1.2243 Debye
        Dipole field         -0.0003 Ry au, 
 
        Potential amp.        0.0325 Ry
        Total length         55.1515 bohr
 

     total cpu time spent up to now is      474.0 secs

     total energy              =   -7738.23725829 Ry
     estimated scf accuracy    <       3.67989121 Ry

     total magnetization       =    83.89 Bohr mag/cell
     absolute magnetization    =    87.86 Bohr mag/cell

     iteration # 34     ecut=    50.00 Ry     beta= 0.10
     Davidson diagonalization with overlap
     ethr =  9.96E-05,  avg # of iterations =  1.5

     negative rho (up, down):  2.644E-03 3.860E-03
 
     Adding external electric field

     Computed dipole along edir(3) : 
        Dipole               -0.8626 Ry au,         -2.1926 Debye
        Dipole field         -0.0005 Ry au, 
 
        Potential amp.        0.0582 Ry
        Total length         55.1515 bohr
 
 
     Adding external electric field

     Computed dipole along edir(3) : 
        Dipole               -0.8626 Ry au,         -2.1926 Debye
        Dipole field         -0.0005 Ry au, 
 
        Potential amp.        0.0582 Ry
        Total length         55.1515 bohr
 

     total cpu time spent up to now is      486.7 secs

     total energy              =   -7738.31859196 Ry
     estimated scf accuracy    <       0.72629264 Ry

     total magnetization       =    88.88 Bohr mag/cell
     absolute magnetization    =    91.10 Bohr mag/cell

     iteration # 35     ecut=    50.00 Ry     beta= 0.10
     Davidson diagonalization with overlap
     ethr =  6.64E-05,  avg # of iterations =  2.0

     negative rho (up, down):  1.193E-03 2.320E-03
 
     Adding external electric field

     Computed dipole along edir(3) : 
        Dipole               -0.6721 Ry au,         -1.7084 Debye
        Dipole field         -0.0004 Ry au, 
 
        Potential amp.        0.0454 Ry
        Total length         55.1515 bohr
 
 
     Adding external electric field

     Computed dipole along edir(3) : 
        Dipole               -0.6721 Ry au,         -1.7084 Debye
        Dipole field         -0.0004 Ry au, 
 
        Potential amp.        0.0454 Ry
        Total length         55.1515 bohr
 

     total cpu time spent up to now is      500.2 secs

     total energy              =   -7738.31681398 Ry
     estimated scf accuracy    <       0.42391418 Ry

     total magnetization       =    88.32 Bohr mag/cell
     absolute magnetization    =    90.12 Bohr mag/cell

     iteration # 36     ecut=    50.00 Ry     beta= 0.10
     Davidson diagonalization with overlap
     ethr =  3.88E-05,  avg # of iterations = 11.5

     negative rho (up, down):  7.059E-04 2.116E-03
 
     Adding external electric field

     Computed dipole along edir(3) : 
        Dipole               -0.8383 Ry au,         -2.1307 Debye
        Dipole field         -0.0005 Ry au, 
 
        Potential amp.        0.0566 Ry
        Total length         55.1515 bohr
 
 
     Adding external electric field

     Computed dipole along edir(3) : 
        Dipole               -0.8383 Ry au,         -2.1307 Debye
        Dipole field         -0.0005 Ry au, 
 
        Potential amp.        0.0566 Ry
        Total length         55.1515 bohr
 

     total cpu time spent up to now is      523.3 secs

     total energy              =   -7738.30657425 Ry
     estimated scf accuracy    <       0.42170290 Ry

     total magnetization       =    89.00 Bohr mag/cell
     absolute magnetization    =    90.55 Bohr mag/cell

     iteration # 37     ecut=    50.00 Ry     beta= 0.10
     Davidson diagonalization with overlap
     ethr =  3.86E-05,  avg # of iterations =  1.5

     negative rho (up, down):  2.361E-04 9.699E-04
 
     Adding external electric field

     Computed dipole along edir(3) : 
        Dipole               -0.7743 Ry au,         -1.9680 Debye
        Dipole field         -0.0005 Ry au, 
 
        Potential amp.        0.0523 Ry
        Total length         55.1515 bohr
 
 
     Adding external electric field

     Computed dipole along edir(3) : 
        Dipole               -0.7743 Ry au,         -1.9680 Debye
        Dipole field         -0.0005 Ry au, 
 
        Potential amp.        0.0523 Ry
        Total length         55.1515 bohr
 

     total cpu time spent up to now is      536.3 secs

     total energy              =   -7738.30488846 Ry
     estimated scf accuracy    <       0.25108320 Ry

     total magnetization       =    88.44 Bohr mag/cell
     absolute magnetization    =    89.90 Bohr mag/cell

     iteration # 38     ecut=    50.00 Ry     beta= 0.10
     Davidson diagonalization with overlap
     ethr =  2.30E-05,  avg # of iterations =  2.0

     negative rho (up, down):  1.657E-04 8.122E-04
 
     Adding external electric field

     Computed dipole along edir(3) : 
        Dipole               -0.9362 Ry au,         -2.3797 Debye
        Dipole field         -0.0006 Ry au, 
 
        Potential amp.        0.0632 Ry
        Total length         55.1515 bohr
 
 
     Adding external electric field

     Computed dipole along edir(3) : 
        Dipole               -0.9362 Ry au,         -2.3797 Debye
        Dipole field         -0.0006 Ry au, 
 
        Potential amp.        0.0632 Ry
        Total length         55.1515 bohr
 

     total cpu time spent up to now is      550.0 secs

     total energy              =   -7738.30170244 Ry
     estimated scf accuracy    <       0.24839986 Ry

     total magnetization       =    88.71 Bohr mag/cell
     absolute magnetization    =    90.18 Bohr mag/cell

     iteration # 39     ecut=    50.00 Ry     beta= 0.10
     Davidson diagonalization with overlap
     ethr =  2.27E-05,  avg # of iterations =  2.0

     negative rho (up, down):  1.060E-04 5.241E-04
 
     Adding external electric field

     Computed dipole along edir(3) : 
        Dipole               -0.8248 Ry au,         -2.0964 Debye
        Dipole field         -0.0005 Ry au, 
 
        Potential amp.        0.0557 Ry
        Total length         55.1515 bohr
 
 
     Adding external electric field

     Computed dipole along edir(3) : 
        Dipole               -0.8248 Ry au,         -2.0964 Debye
        Dipole field         -0.0005 Ry au, 
 
        Potential amp.        0.0557 Ry
        Total length         55.1515 bohr
 

     total cpu time spent up to now is      564.1 secs

     total energy              =   -7738.30642649 Ry
     estimated scf accuracy    <       0.12659998 Ry

     total magnetization       =    87.77 Bohr mag/cell
     absolute magnetization    =    89.39 Bohr mag/cell

     iteration # 40     ecut=    50.00 Ry     beta= 0.10
     Davidson diagonalization with overlap
     c_bands:  3 eigenvalues not converged
     ethr =  1.16E-05,  avg # of iterations = 12.0

     negative rho (up, down):  1.088E-05 2.085E-04
 
     Adding external electric field

     Computed dipole along edir(3) : 
        Dipole               -0.8899 Ry au,         -2.2618 Debye
        Dipole field         -0.0005 Ry au, 
 
        Potential amp.        0.0601 Ry
        Total length         55.1515 bohr
 
 
     Adding external electric field

     Computed dipole along edir(3) : 
        Dipole               -0.8899 Ry au,         -2.2618 Debye
        Dipole field         -0.0005 Ry au, 
 
        Potential amp.        0.0601 Ry
        Total length         55.1515 bohr
 

     total cpu time spent up to now is      583.9 secs

     total energy              =   -7738.30405328 Ry
     estimated scf accuracy    <       0.20353933 Ry

     total magnetization       =    88.37 Bohr mag/cell
     absolute magnetization    =    90.02 Bohr mag/cell

     iteration # 41     ecut=    50.00 Ry     beta= 0.10
     Davidson diagonalization with overlap
     ethr =  1.16E-05,  avg # of iterations =  2.5

     negative rho (up, down):  1.664E-06 8.846E-05
 
     Adding external electric field

     Computed dipole along edir(3) : 
        Dipole               -0.8715 Ry au,         -2.2152 Debye
        Dipole field         -0.0005 Ry au, 
 
        Potential amp.        0.0588 Ry
        Total length         55.1515 bohr
 
 
     Adding external electric field

     Computed dipole along edir(3) : 
        Dipole               -0.8715 Ry au,         -2.2152 Debye
        Dipole field         -0.0005 Ry au, 
 
        Potential amp.        0.0588 Ry
        Total length         55.1515 bohr
 

     total cpu time spent up to now is      598.3 secs

     total energy              =   -7738.31224032 Ry
     estimated scf accuracy    <       0.12928165 Ry

     total magnetization       =    87.44 Bohr mag/cell
     absolute magnetization    =    89.14 Bohr mag/cell

     iteration # 42     ecut=    50.00 Ry     beta= 0.10
     Davidson diagonalization with overlap
     ethr =  1.16E-05,  avg # of iterations =  2.0

     negative rho (up, down):  4.429E-06 1.193E-04
 
     Adding external electric field

     Computed dipole along edir(3) : 
        Dipole               -0.7556 Ry au,         -1.9206 Debye
        Dipole field         -0.0005 Ry au, 
 
        Potential amp.        0.0510 Ry
        Total length         55.1515 bohr
 
 
     Adding external electric field

     Computed dipole along edir(3) : 
        Dipole               -0.7556 Ry au,         -1.9206 Debye
        Dipole field         -0.0005 Ry au, 
 
        Potential amp.        0.0510 Ry
        Total length         55.1515 bohr
 

     total cpu time spent up to now is      612.3 secs

     total energy              =   -7738.30084604 Ry
     estimated scf accuracy    <       0.26351631 Ry

     total magnetization       =    87.20 Bohr mag/cell
     absolute magnetization    =    88.79 Bohr mag/cell

     iteration # 43     ecut=    50.00 Ry     beta= 0.10
     Davidson diagonalization with overlap
     ethr =  1.16E-05,  avg # of iterations =  3.0

     negative rho (up, down):  1.987E-07 8.350E-08
 
     Adding external electric field

     Computed dipole along edir(3) : 
        Dipole               -0.6584 Ry au,         -1.6734 Debye
        Dipole field         -0.0004 Ry au, 
 
        Potential amp.        0.0445 Ry
        Total length         55.1515 bohr
 
 
     Adding external electric field

     Computed dipole along edir(3) : 
        Dipole               -0.6584 Ry au,         -1.6734 Debye
        Dipole field         -0.0004 Ry au, 
 
        Potential amp.        0.0445 Ry
        Total length         55.1515 bohr
 

     total cpu time spent up to now is      626.5 secs

     total energy              =   -7738.31072077 Ry
     estimated scf accuracy    <       0.13095717 Ry

     total magnetization       =    88.44 Bohr mag/cell
     absolute magnetization    =    89.78 Bohr mag/cell

     iteration # 44     ecut=    50.00 Ry     beta= 0.10
     Davidson diagonalization with overlap
     ethr =  1.16E-05,  avg # of iterations =  2.0

     negative rho (up, down):  7.081E-06 7.311E-06
 
     Adding external electric field

     Computed dipole along edir(3) : 
        Dipole               -0.6928 Ry au,         -1.7609 Debye
        Dipole field         -0.0004 Ry au, 
 
        Potential amp.        0.0468 Ry
        Total length         55.1515 bohr
 
 
     Adding external electric field

     Computed dipole along edir(3) : 
        Dipole               -0.6928 Ry au,         -1.7609 Debye
        Dipole field         -0.0004 Ry au, 
 
        Potential amp.        0.0468 Ry
        Total length         55.1515 bohr
 

     total cpu time spent up to now is      640.4 secs

     total energy              =   -7738.31166240 Ry
     estimated scf accuracy    <       0.15481432 Ry

     total magnetization       =    88.78 Bohr mag/cell
     absolute magnetization    =    90.03 Bohr mag/cell

     iteration # 45     ecut=    50.00 Ry     beta= 0.10
     Davidson diagonalization with overlap
     ethr =  1.16E-05,  avg # of iterations =  2.0

     negative rho (up, down):  2.472E-05 2.933E-05
 
     Adding external electric field

     Computed dipole along edir(3) : 
        Dipole               -0.7052 Ry au,         -1.7925 Debye
        Dipole field         -0.0004 Ry au, 
 
        Potential amp.        0.0476 Ry
        Total length         55.1515 bohr
 
 
     Adding external electric field

     Computed dipole along edir(3) : 
        Dipole               -0.7052 Ry au,         -1.7925 Debye
        Dipole field         -0.0004 Ry au, 
 
        Potential amp.        0.0476 Ry
        Total length         55.1515 bohr
 

     total cpu time spent up to now is      654.8 secs

     total energy              =   -7738.31132977 Ry
     estimated scf accuracy    <       0.09892797 Ry

     total magnetization       =    88.45 Bohr mag/cell
     absolute magnetization    =    89.64 Bohr mag/cell

     iteration # 46     ecut=    50.00 Ry     beta= 0.10
     Davidson diagonalization with overlap
     ethr =  9.05E-06,  avg # of iterations =  2.0

     negative rho (up, down):  7.277E-05 8.129E-05
 
     Adding external electric field

     Computed dipole along edir(3) : 
        Dipole               -0.7205 Ry au,         -1.8312 Debye
        Dipole field         -0.0004 Ry au, 
 
        Potential amp.        0.0486 Ry
        Total length         55.1515 bohr
 
 
     Adding external electric field

     Computed dipole along edir(3) : 
        Dipole               -0.7205 Ry au,         -1.8312 Debye
        Dipole field         -0.0004 Ry au, 
 
        Potential amp.        0.0486 Ry
        Total length         55.1515 bohr
 

     total cpu time spent up to now is      669.5 secs

     total energy              =   -7738.31155897 Ry
     estimated scf accuracy    <       0.08229482 Ry

     total magnetization       =    88.26 Bohr mag/cell
     absolute magnetization    =    89.42 Bohr mag/cell

     iteration # 47     ecut=    50.00 Ry     beta= 0.10
     Davidson diagonalization with overlap
     ethr =  7.53E-06,  avg # of iterations = 14.5

     negative rho (up, down):  2.553E-05 2.899E-05
 
     Adding external electric field

     Computed dipole along edir(3) : 
        Dipole               -0.7018 Ry au,         -1.7838 Debye
        Dipole field         -0.0004 Ry au, 
 
        Potential amp.        0.0474 Ry
        Total length         55.1515 bohr
 
 
     Adding external electric field

     Computed dipole along edir(3) : 
        Dipole               -0.7018 Ry au,         -1.7838 Debye
        Dipole field         -0.0004 Ry au, 
 
        Potential amp.        0.0474 Ry
        Total length         55.1515 bohr
 

     total cpu time spent up to now is      696.3 secs

     total energy              =   -7738.31119783 Ry
     estimated scf accuracy    <       0.07592017 Ry

     total magnetization       =    88.12 Bohr mag/cell
     absolute magnetization    =    89.30 Bohr mag/cell

     iteration # 48     ecut=    50.00 Ry     beta= 0.10
     Davidson diagonalization with overlap
     ethr =  6.95E-06,  avg # of iterations =  2.0

     negative rho (up, down):  1.704E-05 2.050E-05
 
     Adding external electric field

     Computed dipole along edir(3) : 
        Dipole               -0.6863 Ry au,         -1.7443 Debye
        Dipole field         -0.0004 Ry au, 
 
        Potential amp.        0.0463 Ry
        Total length         55.1515 bohr
 
 
     Adding external electric field

     Computed dipole along edir(3) : 
        Dipole               -0.6863 Ry au,         -1.7443 Debye
        Dipole field         -0.0004 Ry au, 
 
        Potential amp.        0.0463 Ry
        Total length         55.1515 bohr
 

     total cpu time spent up to now is      710.9 secs

     total energy              =   -7738.31113049 Ry
     estimated scf accuracy    <       0.08228513 Ry

     total magnetization       =    88.22 Bohr mag/cell
     absolute magnetization    =    89.37 Bohr mag/cell

     iteration # 49     ecut=    50.00 Ry     beta= 0.10
     Davidson diagonalization with overlap
     ethr =  6.95E-06,  avg # of iterations =  1.5

     negative rho (up, down):  2.372E-09 1.320E-07
 
     Adding external electric field

     Computed dipole along edir(3) : 
        Dipole               -0.7615 Ry au,         -1.9355 Debye
        Dipole field         -0.0005 Ry au, 
 
        Potential amp.        0.0514 Ry
        Total length         55.1515 bohr
 
 
     Adding external electric field

     Computed dipole along edir(3) : 
        Dipole               -0.7615 Ry au,         -1.9355 Debye
        Dipole field         -0.0005 Ry au, 
 
        Potential amp.        0.0514 Ry
        Total length         55.1515 bohr
 

     total cpu time spent up to now is      724.6 secs

     total energy              =   -7738.31011766 Ry
     estimated scf accuracy    <       0.08729155 Ry

     total magnetization       =    88.27 Bohr mag/cell
     absolute magnetization    =    89.40 Bohr mag/cell

     iteration # 50     ecut=    50.00 Ry     beta= 0.10
     Davidson diagonalization with overlap
     ethr =  6.95E-06,  avg # of iterations =  2.0

     negative rho (up, down):  1.043E-09 1.033E-07
 
     Adding external electric field

     Computed dipole along edir(3) : 
        Dipole               -0.7756 Ry au,         -1.9715 Debye
        Dipole field         -0.0005 Ry au, 
 
        Potential amp.        0.0524 Ry
        Total length         55.1515 bohr
 
 
     Adding external electric field

     Computed dipole along edir(3) : 
        Dipole               -0.7756 Ry au,         -1.9715 Debye
        Dipole field         -0.0005 Ry au, 
 
        Potential amp.        0.0524 Ry
        Total length         55.1515 bohr
 

     total cpu time spent up to now is      738.6 secs

     total energy              =   -7738.31219806 Ry
     estimated scf accuracy    <       0.05451832 Ry

     total magnetization       =    87.95 Bohr mag/cell
     absolute magnetization    =    89.18 Bohr mag/cell

     iteration # 51     ecut=    50.00 Ry     beta= 0.10
     Davidson diagonalization with overlap
     ethr =  4.99E-06,  avg # of iterations =  1.5

     negative rho (up, down):  3.651E-07 2.894E-07
 
     Adding external electric field

     Computed dipole along edir(3) : 
        Dipole               -0.7360 Ry au,         -1.8708 Debye
        Dipole field         -0.0005 Ry au, 
 
        Potential amp.        0.0497 Ry
        Total length         55.1515 bohr
 
 
     Adding external electric field

     Computed dipole along edir(3) : 
        Dipole               -0.7360 Ry au,         -1.8708 Debye
        Dipole field         -0.0005 Ry au, 
 
        Potential amp.        0.0497 Ry
        Total length         55.1515 bohr
 

     total cpu time spent up to now is      751.7 secs

     total energy              =   -7738.31127382 Ry
     estimated scf accuracy    <       0.05036440 Ry

     total magnetization       =    87.95 Bohr mag/cell
     absolute magnetization    =    89.20 Bohr mag/cell

     iteration # 52     ecut=    50.00 Ry     beta= 0.10
     Davidson diagonalization with overlap
     ethr =  4.61E-06,  avg # of iterations =  2.0

     negative rho (up, down):  1.002E-07 1.585E-07
 
     Adding external electric field

     Computed dipole along edir(3) : 
        Dipole               -0.6982 Ry au,         -1.7747 Debye
        Dipole field         -0.0004 Ry au, 
 
        Potential amp.        0.0471 Ry
        Total length         55.1515 bohr
 
 
     Adding external electric field

     Computed dipole along edir(3) : 
        Dipole               -0.6982 Ry au,         -1.7747 Debye
        Dipole field         -0.0004 Ry au, 
 
        Potential amp.        0.0471 Ry
        Total length         55.1515 bohr
 

     total cpu time spent up to now is      765.6 secs

     total energy              =   -7738.31171674 Ry
     estimated scf accuracy    <       0.06618590 Ry

     total magnetization       =    88.27 Bohr mag/cell
     absolute magnetization    =    89.43 Bohr mag/cell

     iteration # 53     ecut=    50.00 Ry     beta= 0.10
     Davidson diagonalization with overlap
     ethr =  4.61E-06,  avg # of iterations =  1.5

     negative rho (up, down):  1.565E-07 2.388E-07
 
     Adding external electric field

     Computed dipole along edir(3) : 
        Dipole               -0.7335 Ry au,         -1.8643 Debye
        Dipole field         -0.0004 Ry au, 
 
        Potential amp.        0.0495 Ry
        Total length         55.1515 bohr
 
 
     Adding external electric field

     Computed dipole along edir(3) : 
        Dipole               -0.7335 Ry au,         -1.8643 Debye
        Dipole field         -0.0004 Ry au, 
 
        Potential amp.        0.0495 Ry
        Total length         55.1515 bohr
 

     total cpu time spent up to now is      779.0 secs

     total energy              =   -7738.31225476 Ry
     estimated scf accuracy    <       0.09933854 Ry

     total magnetization       =    88.38 Bohr mag/cell
     absolute magnetization    =    89.59 Bohr mag/cell

     iteration # 54     ecut=    50.00 Ry     beta= 0.10
     Davidson diagonalization with overlap
     ethr =  4.61E-06,  avg # of iterations =  2.0

     negative rho (up, down):  1.848E-07 2.424E-07
 
     Adding external electric field

     Computed dipole along edir(3) : 
        Dipole               -0.7718 Ry au,         -1.9616 Debye
        Dipole field         -0.0005 Ry au, 
 
        Potential amp.        0.0521 Ry
        Total length         55.1515 bohr
 
 
     Adding external electric field

     Computed dipole along edir(3) : 
        Dipole               -0.7718 Ry au,         -1.9616 Debye
        Dipole field         -0.0005 Ry au, 
 
        Potential amp.        0.0521 Ry
        Total length         55.1515 bohr
 

     total cpu time spent up to now is      793.3 secs

     total energy              =   -7738.31300788 Ry
     estimated scf accuracy    <       0.06988187 Ry

     total magnetization       =    88.27 Bohr mag/cell
     absolute magnetization    =    89.52 Bohr mag/cell

     iteration # 55     ecut=    50.00 Ry     beta= 0.10
     Davidson diagonalization with overlap
     ethr =  4.61E-06,  avg # of iterations =  2.0

     negative rho (up, down):  1.135E-07 1.433E-07
 
     Adding external electric field

     Computed dipole along edir(3) : 
        Dipole               -0.7685 Ry au,         -1.9535 Debye
        Dipole field         -0.0005 Ry au, 
 
        Potential amp.        0.0519 Ry
        Total length         55.1515 bohr
 
 
     Adding external electric field

     Computed dipole along edir(3) : 
        Dipole               -0.7685 Ry au,         -1.9535 Debye
        Dipole field         -0.0005 Ry au, 
 
        Potential amp.        0.0519 Ry
        Total length         55.1515 bohr
 

     total cpu time spent up to now is      807.0 secs

     total energy              =   -7738.31322610 Ry
     estimated scf accuracy    <       0.05487929 Ry

     total magnetization       =    88.21 Bohr mag/cell
     absolute magnetization    =    89.53 Bohr mag/cell

     iteration # 56     ecut=    50.00 Ry     beta= 0.10
     Davidson diagonalization with overlap
     ethr =  4.61E-06,  avg # of iterations =  1.0

     negative rho (up, down):  2.911E-06 3.317E-06
 
     Adding external electric field

     Computed dipole along edir(3) : 
        Dipole               -0.7493 Ry au,         -1.9045 Debye
        Dipole field         -0.0005 Ry au, 
 
        Potential amp.        0.0506 Ry
        Total length         55.1515 bohr
 
 
     Adding external electric field

     Computed dipole along edir(3) : 
        Dipole               -0.7493 Ry au,         -1.9045 Debye
        Dipole field         -0.0005 Ry au, 
 
        Potential amp.        0.0506 Ry
        Total length         55.1515 bohr
 

     total cpu time spent up to now is      819.0 secs

     total energy              =   -7738.31242880 Ry
     estimated scf accuracy    <       0.05598211 Ry

     total magnetization       =    88.22 Bohr mag/cell
     absolute magnetization    =    89.53 Bohr mag/cell

     iteration # 57     ecut=    50.00 Ry     beta= 0.10
     Davidson diagonalization with overlap
     ethr =  4.61E-06,  avg # of iterations =  2.0

     negative rho (up, down):  3.180E-06 3.652E-06
 
     Adding external electric field

     Computed dipole along edir(3) : 
        Dipole               -0.7486 Ry au,         -1.9028 Debye
        Dipole field         -0.0005 Ry au, 
 
        Potential amp.        0.0505 Ry
        Total length         55.1515 bohr
 
 
     Adding external electric field

     Computed dipole along edir(3) : 
        Dipole               -0.7486 Ry au,         -1.9028 Debye
        Dipole field         -0.0005 Ry au, 
 
        Potential amp.        0.0505 Ry
        Total length         55.1515 bohr
 

     total cpu time spent up to now is      832.7 secs

     total energy              =   -7738.31265658 Ry
     estimated scf accuracy    <       0.07593815 Ry

     total magnetization       =    88.27 Bohr mag/cell
     absolute magnetization    =    89.61 Bohr mag/cell

     iteration # 58     ecut=    50.00 Ry     beta= 0.10
     Davidson diagonalization with overlap
     ethr =  4.61E-06,  avg # of iterations =  1.0

     negative rho (up, down):  1.027E-04 1.147E-04
 
     Adding external electric field

     Computed dipole along edir(3) : 
        Dipole               -0.7653 Ry au,         -1.9452 Debye
        Dipole field         -0.0005 Ry au, 
 
        Potential amp.        0.0517 Ry
        Total length         55.1515 bohr
 
 
[...]
    -5.9165  -5.8987  -5.8842  -5.8760  -5.8629  -5.8425  -5.8344  -5.8048
    -5.7777  -5.7711  -5.7319  -5.7215  -5.7051  -5.6766  -5.6676  -5.6487
    -5.6305  -5.5993  -5.5521  -5.5505  -5.5258  -5.4959  -5.4800  -5.4697
    -5.4654  -5.4341  -5.4279  -5.3997  -5.3822  -5.3665  -5.3527  -5.3244
    -5.2072  -5.1959  -5.1811  -5.1744  -5.1597  -5.1348  -5.0713  -5.0253
    -5.0093  -4.9900  -4.9472  -4.9195  -4.9079  -4.8899  -4.8567  -4.8143
    -4.7918  -4.7367  -4.7259  -4.7105  -4.6717  -4.6543  -4.6229  -4.5463
    -4.5435  -4.4763  -4.4588  -4.4003  -4.3936  -4.3758  -4.3358  -4.3275
    -4.3108  -4.2543  -4.1899  -4.1791  -4.1434  -4.1170  -4.0984  -4.0721
    -4.0634  -4.0394  -4.0371  -3.9653  -3.9196  -3.8988  -3.8880  -3.8481
    -3.8292  -3.8085  -3.7670  -3.7566  -3.7500  -3.7195  -3.6971  -3.6582
    -3.6328  -3.5855  -3.5833  -3.5780  -3.5568  -3.5371  -3.5350  -3.5161
    -3.4998  -3.4774  -3.4561  -3.4500  -3.4413  -3.4275  -3.4032  -3.3887
    -3.3608  -3.3566  -3.3411  -3.3118  -3.3069  -3.2668  -3.2519  -3.2058
    -3.2001  -3.1894  -3.1835  -3.1646  -3.1552  -3.1024  -3.0781  -3.0548
    -3.0317  -3.0134  -3.0083  -2.9983  -2.9951  -2.9834  -2.9665  -2.9284
    -2.9107  -2.8984  -2.8745  -2.8335  -2.8280  -2.8190  -2.7796  -2.7641
    -2.7414  -2.7284  -2.7131  -2.6994  -2.6961  -2.6758  -2.6618  -2.6527
    -2.6359  -2.6293  -2.6222  -2.6004  -2.5903  -2.5800  -2.5727  -2.5586
    -2.5416  -2.5287  -2.5133  -2.4928  -2.4748  -2.4688  -2.4455  -2.4358
    -2.4070  -2.3992  -2.3743  -2.3494  -2.3130  -2.2983  -2.2779  -2.2558
    -2.2450  -2.2301  -2.2084  -2.1682  -2.1554  -2.1355  -2.1245  -2.0995
    -2.0962  -2.0747  -2.0656  -2.0535  -2.0397  -2.0168  -1.9987  -1.9524
    -1.9384  -1.9099  -1.9051  -1.8972  -1.8855  -1.8755  -1.8434  -1.8196
    -1.8091  -1.7940  -1.7762  -1.7693  -1.7579  -1.7480  -1.7307  -1.7117
    -1.6892  -1.6609  -1.6437  -1.6055  -1.5972  -1.5804  -1.5596  -1.5414
    -1.5291  -1.4961  -1.4754  -1.4577  -1.4500  -1.4409  -1.4148  -1.3907
    -1.3836  -1.3730  -1.3515  -1.3424  -1.3176  -1.3023  -1.2474  -1.2419
    -1.2236  -1.2139  -1.1941  -1.1551  -1.1482  -1.0824  -1.0405  -1.0230
    -0.9791  -0.8742  -0.8564  -0.8170  -0.7485  -0.6832  -0.6739  -0.4485
    -0.2845  -0.2379  -0.2310  -0.1058   0.2165   0.2495   0.2715   0.2800
     0.2847   0.3014   0.3344   0.3440   0.3692   0.3814   0.3938   0.3996
     0.4062   0.4187   0.4281   0.4345   0.4425   0.4545   0.4615   0.4702
     0.4769   0.4878   0.4880   0.4963   0.5016   0.5121   0.5137   0.5249
     0.5412   0.5438   0.5533   0.5596   0.5647   0.5697   0.5729   0.5986
     0.6055   0.6079   0.6153   0.6193   0.6332   0.6461   0.6474   0.6496
     0.6653   0.6689   0.6721   0.6825   0.6845   0.7049   0.7091   0.7126
     0.7214   0.7271   0.7296   0.7393   0.7563   0.7689   0.7812   0.7844
     0.7923   0.7963   0.8058   0.8291   0.8339   0.8439   0.8477   0.8505
     0.8619   0.8652   0.8835   0.8989   0.9015   0.9070   0.9187   0.9227
     0.9310   0.9597   0.9697   0.9834   0.9847   0.9872   0.9908   1.0164
     1.0549   1.1301   1.1323   1.2310   1.2532   1.7024   1.7805   1.7885
     1.7939   1.8093   1.8202   1.8368   1.8469   1.8593   1.9427   1.9591
     1.9712   1.9913   2.0165   2.0405   2.0518   2.0808   2.0944   2.1462
     2.1554   2.1714   2.1823   2.2090   2.2224   2.2375   2.2524   2.2682
     2.2791   2.3028   2.3209   2.3372   2.3467   2.3611   2.3909   2.3988
     2.4111   2.4132   2.4606   2.4614   2.4910   2.5090   2.5164   2.5219
     2.5322   2.5391   2.5588   2.5699   2.5877   2.6200   2.6268   2.6450
     2.6665   2.6715   2.6837   2.7423   2.8099   2.8266   2.8842   2.8941
     2.9011   2.9414   3.5172   3.5527   3.6020   3.6334   3.7628   3.7913
     3.8772   3.8905   3.9016   3.9504   3.9637   4.0177   4.1012   4.1091
     4.1182   4.1412   4.1660   4.1712   4.1930   4.2071   4.6768   4.7952
     4.8473   4.8825   4.9508   4.9649   4.9993   5.0535   5.0618   5.1355
     5.1370   5.1949   5.4385   6.3010   6.3922   6.5289   6.6406   6.7347
     6.8155   6.8667   6.9200   6.9641   7.0020   7.0815   7.1499   7.2172
     7.2946   7.3588   7.4074   7.4202   7.4669   7.5052   7.6484   7.6886
     7.7268   7.7629   7.7744   7.8186   7.8626   7.9085   7.9277   7.9681
     8.0252   8.0605   8.0892   8.1171   8.1734   8.1906   8.2117   8.2440
     8.2783   8.3156   8.3704   8.3854   8.4248   8.4351   8.4450   8.4709
     8.4851   8.5117   8.5368   8.5537   8.5898   8.5984   8.6192   8.6718
     8.6946   8.7080   8.7248   8.7469   8.7693   8.8099   8.8374   8.8686

     the Fermi energy is     1.6934 ev

!    total energy              =   -7738.30223492 Ry
     estimated scf accuracy    <       0.00000057 Ry
     smearing contrib. (-TS)   =      -0.02507075 Ry
     internal energy E=F+TS    =   -7738.27716417 Ry

     The total energy is F=E-TS. E is the sum of the following terms:
     one-electron contribution =  -95041.09861646 Ry
     hartree contribution      =   48138.12115569 Ry
     xc contribution           =   -2218.74188825 Ry
     ewald contribution        =   41385.25082305 Ry
     Dispersion Correction     =      -1.80881790 Ry
     electric field correction =       0.00017971 Ry

     total magnetization       =    88.32 Bohr mag/cell
     absolute magnetization    =    89.69 Bohr mag/cell

     convergence has been achieved in 127 iterations

     negative rho (up, down):  1.048E-03 5.888E-04

     Forces acting on atoms (cartesian axes, Ry/au):

     atom    1 type  1   force =     0.02548466   -0.03109360    0.01839712
     atom    2 type  2   force =    -0.01389197   -0.00157961   -0.01006714
     atom    3 type  1   force =    -0.02342092   -0.01871324    0.01987148
     atom    4 type  1   force =     0.00573404    0.00411653   -0.00610017
     atom    5 type  1   force =    -0.00197924    0.00112248   -0.00535072
     atom    6 type  1   force =     0.00212801    0.00792567   -0.00905900
     atom    7 type  3   force =    -0.00773350    0.00116443   -0.01043725
     atom    8 type  3   force =    -0.03498743    0.05415265   -0.08329264
     atom    9 type  3   force =     0.03414136    0.03817447   -0.06428824
     atom   10 type  3   force =    -0.00304927   -0.00247171   -0.01160256
     atom   11 type  4   force =     0.00673892    0.00560464    0.01388025
     atom   12 type  4   force =    -0.00024406   -0.00292765    0.01482457
     atom   13 type  4   force =     0.00196280    0.00172682    0.01742345
     atom   14 type  4   force =    -0.00048114   -0.00129179    0.01269747
     atom   15 type  4   force =    -0.00067868    0.00455990   -0.00198243
     atom   16 type  4   force =    -0.00042730    0.00263940    0.04033822
     atom   17 type  4   force =     0.00172908    0.00813493    0.03773584
     atom   18 type  4   force =     0.00798253   -0.00446621   -0.00047778
     atom   19 type  4   force =     0.00046034    0.01194169    0.00425735
     atom   20 type  4   force =    -0.00965241   -0.02678310   -0.00369134
     atom   21 type  4   force =    -0.01115170   -0.00041943    0.00066263
     atom   22 type  4   force =    -0.03211557    0.00310664    0.00784628
     atom   23 type  4   force =     0.03206533    0.00060131    0.01408909
     atom   24 type  4   force =     0.00701193   -0.03697014    0.00377680
     atom   25 type  4   force =    -0.00314783    0.00175941    0.00395185
     atom   26 type  4   force =     0.01786536   -0.00687699    0.00078264
     atom   27 type  1   force =    -0.00514257   -0.00866449    0.00267117
     atom   28 type  2   force =    -0.01338832   -0.00008466    0.00521834
     atom   29 type  1   force =     0.00294391   -0.00531172   -0.00124117
     atom   30 type  1   force =     0.00247598    0.00490378   -0.00118260
     atom   31 type  1   force =     0.00171875   -0.00442042    0.00025717
     atom   32 type  1   force =    -0.00071613    0.00099149   -0.00176544
     atom   33 type  3   force =    -0.00624160   -0.00191167   -0.00266406
     atom   34 type  3   force =    -0.00801422    0.00261951   -0.00028336
     atom   35 type  3   force =     0.00447158   -0.00068778    0.00277730
     atom   36 type  3   force =     0.00094153   -0.00219836   -0.00386875
     atom   37 type  4   force =     0.00864365    0.00541030    0.00766304
     atom   38 type  4   force =     0.00376718   -0.00083770   -0.01919909
     atom   39 type  4   force =    -0.00155720    0.00362912   -0.00989770
     atom   40 type  4   force =    -0.00140669   -0.00252138    0.00908833
     atom   41 type  4   force =    -0.00144242    0.00340140   -0.00669769
     atom   42 type  4   force =    -0.00426570   -0.00455688    0.01797562
     atom   43 type  4   force =     0.00769224    0.00339808    0.00773220
     atom   44 type  4   force =     0.00990467   -0.00561146   -0.00574292
     atom   45 type  4   force =     0.00289055    0.00475672    0.00057469
     atom   46 type  4   force =     0.00231617   -0.00007535   -0.00560341
     atom   47 type  4   force =    -0.01289903   -0.00025541   -0.00367137
     atom   48 type  4   force =    -0.01462971    0.00128498    0.00340561
     atom   49 type  4   force =     0.01357537    0.00252083    0.00438820
     atom   50 type  4   force =    -0.00272091   -0.00494124   -0.00048906
     atom   51 type  4   force =    -0.00527678    0.00158345    0.00052343
     atom   52 type  4   force =     0.01537865   -0.00405009   -0.00445600
     atom   53 type  1   force =    -0.00000024   -0.00025034    0.00010140
     atom   54 type  2   force =    -0.00006347   -0.00018141   -0.00019971
     atom   55 type  1   force =    -0.00003759   -0.00014360   -0.00018973
     atom   56 type  1   force =    -0.00036085    0.00008057   -0.00005475
     atom   57 type  1   force =    -0.00055656    0.00059419    0.00037104
     atom   58 type  1   force =     0.00054336    0.00053038   -0.00020063
     atom   59 type  3   force =     0.00040388    0.00016985   -0.00043856
     atom   60 type  3   force =     0.00008234   -0.00006422    0.00022053
     atom   61 type  3   force =     0.00023504   -0.00020689   -0.00000569
     atom   62 type  3   force =    -0.00059528   -0.00057863    0.00069432
     atom   63 type  4   force =     0.00036981    0.00019303   -0.00008893
     atom   64 type  4   force =     0.00017680   -0.00002042    0.00053876
     atom   65 type  4   force =    -0.00023222   -0.00023891    0.00035433
     atom   66 type  4   force =     0.00008141    0.00006883    0.00041098
     atom   67 type  4   force =    -0.00007967   -0.00020639   -0.00034234
     atom   68 type  4   force =     0.00059554    0.00027030    0.00005165
     atom   69 type  4   force =    -0.00045726   -0.00028498    0.00015702
     atom   70 type  4   force =     0.00053363    0.00006815   -0.00022213
     atom   71 type  4   force =    -0.00015887   -0.00026405   -0.00013918
     atom   72 type  4   force =    -0.00038084   -0.00030094   -0.00025728
     atom   73 type  4   force =     0.00020153    0.00030702    0.00014300
     atom   74 type  4   force =    -0.00013793   -0.00033827   -0.00050191
     atom   75 type  4   force =    -0.00007547   -0.00021769   -0.00024732
     atom   76 type  4   force =    -0.00000179   -0.00011738   -0.00032130
     atom   77 type  4   force =     0.00009935   -0.00012430    0.00026223
     atom   78 type  4   force =     0.00003579    0.00012324   -0.00015669
     atom   79 type  1   force =     0.02536641   -0.03108977    0.01839800
     atom   80 type  2   force =    -0.01372936   -0.00158673   -0.01009347
     atom   81 type  1   force =    -0.02344796   -0.01872042    0.01987017
     atom   82 type  1   force =     0.00573256    0.00413331   -0.00608156
     atom   83 type  1   force =    -0.00189676    0.00111982   -0.00531293
     atom   84 type  1   force =     0.00209201    0.00787689   -0.00902379
     atom   85 type  3   force =    -0.00772581    0.00117786   -0.01044550
     atom   86 type  3   force =    -0.03498591    0.05415265   -0.08329616
     atom   87 type  3   force =     0.03414671    0.03817480   -0.06428746
     atom   88 type  3   force =    -0.00306068   -0.00246945   -0.01160703
     atom   89 type  4   force =     0.00684756    0.00560411    0.01388045
     atom   90 type  4   force =    -0.00015547   -0.00282790    0.01484521
     atom   91 type  4   force =     0.00205806    0.00172915    0.01740590
     atom   92 type  4   force =    -0.00031952   -0.00128698    0.01270019
     atom   93 type  4   force =    -0.00067648    0.00476659   -0.00185447
     atom   94 type  4   force =    -0.00049256    0.00261221    0.04009307
     atom   95 type  4   force =     0.00186314    0.00814509    0.03771582
     atom   96 type  4   force =     0.00777588   -0.00448776   -0.00047573
     atom   97 type  4   force =     0.00055205    0.01201223    0.00415170
     atom   98 type  4   force =    -0.00953861   -0.02663924   -0.00366374
     atom   99 type  4   force =    -0.01117445   -0.00038578    0.00086241
     atom  100 type  4   force =    -0.03215166    0.00300161    0.00772097
     atom  101 type  4   force =     0.03208891    0.00060379    0.01409549
     atom  102 type  4   force =     0.00682805   -0.03698675    0.00378061
     atom  103 type  4   force =    -0.00305880    0.00170147    0.00392479
     atom  104 type  4   force =     0.01798443   -0.00687426    0.00078913
     atom  105 type  1   force =    -0.00523370   -0.00865778    0.00274492
     atom  106 type  2   force =    -0.01410089   -0.00066675    0.00573313
     atom  107 type  1   force =     0.00295772   -0.00519706   -0.00118199
     atom  108 type  1   force =     0.00379765    0.00352810    0.00183457
     atom  109 type  1   force =     0.00138339   -0.00444860    0.00015752
     atom  110 type  1   force =    -0.00082825    0.00093822   -0.00173655
     atom  111 type  3   force =    -0.00635499   -0.00074199   -0.00038130
     atom  112 type  3   force =    -0.00798635    0.00259360   -0.00024009
     atom  113 type  3   force =     0.00436247   -0.00059066    0.00292148
     atom  114 type  3   force =     0.00093696   -0.00175341   -0.00496919
     atom  115 type  4   force =     0.00830687    0.00486197    0.00719916
     atom  116 type  4   force =     0.00378260   -0.00085343   -0.01920132
     atom  117 type  4   force =    -0.00137446    0.00368320   -0.00992134
     atom  118 type  4   force =    -0.00171995   -0.00246165    0.00911961
     atom  119 type  4   force =    -0.00033916    0.00314386   -0.00602074
     atom  120 type  4   force =    -0.00424059   -0.00459928    0.01801069
     atom  121 type  4   force =     0.00774052    0.00339927    0.00776175
     atom  122 type  4   force =     0.01021101   -0.00492238   -0.00762721
     atom  123 type  4   force =     0.00278954    0.00438011    0.00051340
     atom  124 type  4   force =     0.00225155   -0.00012600   -0.00561227
     atom  125 type  4   force =    -0.01281280   -0.00011824   -0.00355851
     atom  126 type  4   force =    -0.01465420    0.00128327    0.00334417
     atom  127 type  4   force =     0.01359966    0.00245221    0.00453611
     atom  128 type  4   force =    -0.00285653   -0.00496343   -0.00049627
     atom  129 type  4   force =    -0.00505924    0.00154633   -0.00007847
     atom  130 type  4   force =     0.01597728   -0.00424144   -0.00431060
     atom  131 type  1   force =    -0.00017667   -0.00008526   -0.00000930
     atom  132 type  2   force =     0.00034343   -0.00015120   -0.00010498
     atom  133 type  1   force =    -0.00068786    0.00010127   -0.00007637
     atom  134 type  1   force =     0.00049909   -0.00024339    0.00044534
     atom  135 type  1   force =    -0.00005808    0.00071369   -0.00029449
     atom  136 type  1   force =     0.00055474    0.00052984    0.00019833
     atom  137 type  3   force =     0.00020134    0.00048916   -0.00032773
     atom  138 type  3   force =    -0.00029605    0.00034224    0.00027831
     atom  139 type  3   force =     0.00015198   -0.00036163    0.00018060
     atom  140 type  3   force =    -0.00038411   -0.00013154   -0.00024573
     atom  141 type  4   force =     0.00022313   -0.00020548    0.00041736
     atom  142 type  4   force =    -0.00039094    0.00041871    0.00042122
     atom  143 type  4   force =    -0.00033331   -0.00020135    0.00049888
     atom  144 type  4   force =    -0.00019108   -0.00035343    0.00005747
     atom  145 type  4   force =     0.00014935   -0.00033848   -0.00055374
     atom  146 type  4   force =     0.00062071   -0.00035161   -0.00003025
     atom  147 type  4   force =     0.00007368    0.00007708    0.00034363
     atom  148 type  4   force =     0.00023755   -0.00059562   -0.00071249
     atom  149 type  4   force =    -0.00053917    0.00016204    0.00040002
     atom  150 type  4   force =    -0.00035826   -0.00044494   -0.00022526
     atom  151 type  4   force =    -0.00046796    0.00033567   -0.00020452
     atom  152 type  4   force =     0.00013681   -0.00032458   -0.00045944
     atom  153 type  4   force =    -0.00049623   -0.00034992    0.00002565
     atom  154 type  4   force =     0.00045646    0.00000943   -0.00009487
     atom  155 type  4   force =     0.00023231    0.00019217   -0.00007889
     atom  156 type  4   force =     0.00016883    0.00037486   -0.00033728
     atom  157 type  4   force =    -0.00763538   -0.00614098   -0.00297757
     atom  158 type  5   force =     0.00692513    0.00523296    0.00119601

     Total force =     0.263148     Total SCF correction =     0.003027
 
     init_run     :      8.90s CPU      9.56s WALL (       1 calls)
     electrons    :   1771.07s CPU   1845.70s WALL (       1 calls)
     forces       :      4.36s CPU      4.65s WALL (       1 calls)
     force_london :      0.10s CPU      0.10s WALL (       1 calls)

     Called by init_run:
     wfcinit      :      4.98s CPU      5.15s WALL (       1 calls)
     potinit      :      1.01s CPU      1.22s WALL (       1 calls)
     hinit0       :      1.60s CPU      1.72s WALL (       1 calls)

     Called by electrons:
     c_bands      :   1377.89s CPU   1417.32s WALL (     127 calls)
     sum_band     :    243.16s CPU    261.77s WALL (     127 calls)
     v_of_rho     :     31.49s CPU     33.44s WALL (     128 calls)
     newd         :     79.98s CPU     94.43s WALL (     128 calls)
     mix_rho      :     36.68s CPU     36.85s WALL (     127 calls)
     energy_londo :      0.09s CPU      0.09s WALL (       1 calls)

     Called by c_bands:
     init_us_2    :      3.27s CPU      3.35s WALL (     512 calls)
     init_us_2:cp :      3.26s CPU      3.35s WALL (     512 calls)
     regterg      :   1349.98s CPU   1388.46s WALL (     257 calls)

     Called by *egterg:
     rdiaghg      :    346.80s CPU    366.03s WALL (    1009 calls)
     h_psi        :    516.01s CPU    525.10s WALL (    1011 calls)
     s_psi        :     80.27s CPU     80.30s WALL (    1011 calls)
     g_psi        :      0.58s CPU      0.59s WALL (     752 calls)

     Called by h_psi:
     h_psi:calbec :    137.07s CPU    144.20s WALL (    1011 calls)
     vloc_psi     :    295.87s CPU    296.96s WALL (    1011 calls)
     add_vuspsi   :     82.06s CPU     82.91s WALL (    1011 calls)

     General routines
     calbec       :    201.94s CPU    212.45s WALL (    1273 calls)
     fft          :     55.40s CPU     57.97s WALL (    2317 calls)
     ffts         :     21.19s CPU     21.22s WALL (   15881 calls)
     fftw         :    340.17s CPU    341.32s WALL (  428324 calls)
     interpolate  :      2.47s CPU      2.70s WALL (     256 calls)
 
     Parallel routines
 
     PWSCF        :  29m46.21s CPU  31m 2.30s WALL

 
   This run was terminated on:   0:58:51  18Nov2025            

=------------------------------------------------------------------------------=
   JOB DONE.
=------------------------------------------------------------------------------=
