
     Program PWSCF v.7.2 starts on 17Nov2025 at 21:51:28 

     This program is part of the open-source Quantum ESPRESSO suite
     for quantum simulation of materials; please cite
         "P. Giannozzi et al., J. Phys.:Condens. Matter 21 395502 (2009);
         "P. Giannozzi et al., J. Phys.:Condens. Matter 29 465901 (2017);
         "P. Giannozzi et al., J. Chem. Phys. 152 154105 (2020);
          URL http://www.quantum-espresso.org", 
     in publications or presentations arising from this work. More details at
     http://www.quantum-espresso.org/quote

     Parallel version (MPI), running on    64 processors

     MPI processes distributed on     4 nodes
     462773 MiB available memory on the printing compute node when the environment starts
 
     Reading input from PWINPUT_atm157_ym

     Current dimensions of program PWSCF are:
     Max number of different atomic species (ntypx) = 10
     Max number of k-points (npk) =  40000
     Max angular momentum in pseudopotentials (lmaxx) =  4
     Presently no symmetry can be used with electric field

     file Ni.pbe-n-rrkjus_psl.1.0.0.UPF: wavefunction(s)  3D renormalized
     file Mn.pbe-spn-rrkjus_psl.0.3.1.UPF: wavefunction(s)  3D renormalized
     file O.pbe-rrkjus.UPF: wavefunction(s)  2S renormalized
     file H.pbe-rrkjus.UPF: wavefunction(s)  1S renormalized

     gamma-point specific algorithms are used
 
     R & G space division:  proc/nbgrp/npool/nimage =      64
     Subspace diagonalization in iterative solution of the eigenvalue problem:
     one sub-group per band group will be used
     custom distributed-memory algorithm (size of sub-group:  7*  7 procs)

 
     Parallelization info
     --------------------
     sticks:   dense  smooth     PW     G-vecs:    dense   smooth      PW
     Min         207      82     20                60552    15302    1896
     Max         210      84     22                60574    15336    1950
     Sum       13325    5345   1333              3876045   980655  122653
 
     Using Slab Decomposition
 


     bravais-lattice index     =            0
     lattice parameter (alat)  =      17.4067  a.u.
     unit-cell volume          =   20529.8182 (a.u.)^3
     number of atoms/cell      =          158
     number of atomic types    =            5
     number of electrons       =      1093.00
     number of Kohn-Sham states=          656
     kinetic-energy cutoff     =      50.0000  Ry
     charge density cutoff     =     500.0000  Ry
     scf convergence threshold =      1.0E-06
     mixing beta               =       0.1000
     number of iterations used =            8  local-TF  mixing
     Exchange-correlation=  SLA  PW   PBE  PBE
                           (   1   4   3   4   0   0   0)

     celldm(1)=  17.406729  celldm(2)=   0.000000  celldm(3)=   0.000000
     celldm(4)=   0.000000  celldm(5)=   0.000000  celldm(6)=   0.000000

     crystal axes: (cart. coord. in units of alat)
               a(1) = (   1.000000   0.000000   0.000000 )  
               a(2) = (  -0.001404   1.105696   0.000000 )  
               a(3) = (   0.000000   0.000000   3.520448 )  

     reciprocal axes: (cart. coord. in units 2 pi/alat)
               b(1) = (  1.000000  0.001270  0.000000 )  
               b(2) = (  0.000000  0.904408  0.000000 )  
               b(3) = (  0.000000  0.000000  0.284055 )  


     PseudoPot. # 1 for Ni read from file:
     ~/PSEUDO/Ni.pbe-n-rrkjus_psl.1.0.0.UPF
     MD5 check sum: Not computed, couldn't open file
     Pseudo is Ultrasoft + core correction, Zval = 10.0
     Generated using "atomic" code by A. Dal Corso  v.5.1.2
     Using radial grid of 1195 points,  6 beta functions with: 
                l(1) =   0
                l(2) =   0
                l(3) =   1
                l(4) =   1
                l(5) =   2
                l(6) =   2
     Q(r) pseudized with 0 coefficients 


     PseudoPot. # 2 for Mn read from file:
     ~/PSEUDO/Mn.pbe-spn-rrkjus_psl.0.3.1.UPF
     MD5 check sum: Not computed, couldn't open file
     Pseudo is Ultrasoft + core correction, Zval = 15.0
     Generated using &quot;atomic&quot; code by A. Dal Corso  v.6.2.2
     Using radial grid of 1187 points,  6 beta functions with: 
                l(1) =   0
                l(2) =   0
                l(3) =   1
                l(4) =   1
                l(5) =   2
                l(6) =   2
     Q(r) pseudized with 0 coefficients 


     PseudoPot. # 3 for P  read from file:
     ~/PSEUDO/P.pbe-n-rrkjus_psl.1.0.0.UPF
     MD5 check sum: Not computed, couldn't open file
     Pseudo is Ultrasoft + core correction, Zval =  5.0
     Generated using "atomic" code by A. Dal Corso  v.5.1
     Using radial grid of 1147 points,  6 beta functions with: 
                l(1) =   0
                l(2) =   0
                l(3) =   1
                l(4) =   1
                l(5) =   2
                l(6) =   2
     Q(r) pseudized with 0 coefficients 


     PseudoPot. # 4 for O  read from file:
     ~/PSEUDO/O.pbe-rrkjus.UPF
     MD5 check sum: Not computed, couldn't open file
     Pseudo is Ultrasoft, Zval =  6.0
     Generated by new atomic code, or converted to UPF format
     Using radial grid of 1269 points,  4 beta functions with: 
                l(1) =   0
                l(2) =   0
                l(3) =   1
                l(4) =   1
     Q(r) pseudized with 0 coefficients 


     PseudoPot. # 5 for H  read from file:
     ~/PSEUDO/H.pbe-rrkjus.UPF
     MD5 check sum: Not computed, couldn't open file
     Pseudo is Ultrasoft, Zval =  1.0
     Generated by new atomic code, or converted to UPF format
     Using radial grid of 1061 points,  2 beta functions with: 
                l(1) =   0
                l(2) =   0
     Q(r) pseudized with 0 coefficients 


     atomic species   valence    mass     pseudopotential
     Ni               10.00    58.69300     Ni( 1.00)
     Mn               15.00    54.93800     Mn( 1.00)
     P                 5.00    30.97300     P ( 1.00)
     O                 6.00    15.99900     O ( 1.00)
     H                 1.00     1.00790     H ( 1.00)

     Starting magnetic structure 
     atomic species   magnetization
     Ni              1.000
     Mn              1.000
     P               1.000
     O               1.000
     H               0.000

     No symmetry found



   Cartesian axes

     site n.     atom                  positions (alat units)
         1        Ni     tau(   1) = (   0.2421002   0.8609138   0.1302181  )
         2        Mn     tau(   2) = (   0.4924481   0.7886602   0.4655392  )
         3        Ni     tau(   3) = (   0.0052341   0.3031820   0.1284544  )
         4        Ni     tau(   4) = (   0.2570603   0.2374878   0.4617901  )
         5        Ni     tau(   5) = (   0.4976584   1.1048203   0.2964410  )
         6        Ni     tau(   6) = (   0.2495781   0.5440308   0.2953805  )
         7        P      tau(   7) = (   0.2083492   0.9982113   0.4588145  )
         8        P      tau(   8) = (   0.4584476   0.6559264   0.1347090  )
         9        P      tau(   9) = (   0.2889394   0.1031966   0.1319347  )
        10        P      tau(  10) = (   0.0400379   0.4338094   0.4586283  )
        11        O      tau(  11) = (   0.1314218   0.9248062   0.3189972  )
        12        O      tau(  12) = (   0.3797244   0.7272031   0.2742874  )
        13        O      tau(  13) = (   0.3662315   0.1762062   0.2720888  )
        14        O      tau(  14) = (   0.1171240   0.3646150   0.3169340  )
        15        O      tau(  15) = (   0.1510364   0.9068326   0.5881934  )
        16        O      tau(  16) = (   0.3981989   0.7453439   0.0053495  )
        17        O      tau(  17) = (   0.3490561   0.1888693   0.0010856  )
        18        O      tau(  18) = (   0.0982395   0.3475583   0.5894443  )
        19        O      tau(  19) = (   0.0992163   0.5918099   0.4542505  )
        20        O      tau(  20) = (   0.3467441   1.0504690   0.1405000  )
        21        O      tau(  21) = (   0.3739183   0.4303319   0.4477971  )
        22        O      tau(  22) = (   0.1230967   0.1088895   0.1422960  )
        23        O      tau(  23) = (   0.1242901   0.6635968   0.1442928  )
        24        O      tau(  24) = (   0.4011802   0.4971632   0.1376281  )
        25        O      tau(  25) = (   0.1484006   0.0497464   0.4550965  )
        26        O      tau(  26) = (   0.3736100   0.9942556   0.4492158  )
        27        Ni     tau(  27) = (   0.2413539   0.8509941   0.7820408  )
        28        Mn     tau(  28) = (   0.4917018   0.7787406   1.1173619  )
        29        Ni     tau(  29) = (   0.0044877   0.2932623   0.7802771  )
        30        Ni     tau(  30) = (   0.2563139   0.2275682   1.1136128  )
        31        Ni     tau(  31) = (   0.4969120   1.0949007   0.9482637  )
        32        Ni     tau(  32) = (   0.2488318   0.5341111   0.9472032  )
        33        P      tau(  33) = (   0.2076029   0.9882917   1.1106372  )
        34        P      tau(  34) = (   0.4577012   0.6460068   0.7865316  )
        35        P      tau(  35) = (   0.2881931   0.0932770   0.7837574  )
        36        P      tau(  36) = (   0.0392916   0.4238898   1.1104509  )
        37        O      tau(  37) = (   0.1306755   0.9148866   0.9708199  )
        38        O      tau(  38) = (   0.3789780   0.7172835   0.9261101  )
        39        O      tau(  39) = (   0.3654852   0.1662865   0.9239115  )
        40        O      tau(  40) = (   0.1163776   0.3546954   0.9687567  )
        41        O      tau(  41) = (   0.1502901   0.8969129   1.2400160  )
        42        O      tau(  42) = (   0.3974525   0.7354243   0.6571722  )
        43        O      tau(  43) = (   0.3483097   0.1789497   0.6529083  )
        44        O      tau(  44) = (   0.0974932   0.3376387   1.2412670  )
        45        O      tau(  45) = (   0.0984699   0.5818903   1.1060732  )
        46        O      tau(  46) = (   0.3459978   1.0405493   0.7923226  )
        47        O      tau(  47) = (   0.3731719   0.4204123   1.0996198  )
        48        O      tau(  48) = (   0.1223503   0.0989699   0.7941187  )
        49        O      tau(  49) = (   0.1235438   0.6536772   0.7961155  )
        50        O      tau(  50) = (   0.4004339   0.4872435   0.7894508  )
        51        O      tau(  51) = (   0.1476543   0.0398268   1.1069192  )
        52        O      tau(  52) = (   0.3728637   0.9843360   1.1010385  )
        53        Ni     tau(  53) = (   0.2408392   0.8320559   1.4307548  )
        54        Mn     tau(  54) = (   0.4954146   0.7586327   1.7610775  )
        55        Ni     tau(  55) = (   0.0038240   0.2752655   1.4301830  )
        56        Ni     tau(  56) = (   0.2490297   0.2126224   1.7413163  )
        57        Ni     tau(  57) = (   0.5009698   1.0727426   1.5934065  )
        58        Ni     tau(  58) = (   0.2431858   0.5187785   1.5959132  )
        59        P      tau(  59) = (   0.2122300   0.9646931   1.7577827  )
        60        P      tau(  60) = (   0.4560273   0.6255665   1.4349308  )
        61        P      tau(  61) = (   0.2895010   0.0747953   1.4294223  )
        62        P      tau(  62) = (   0.0342753   0.4049908   1.7624825  )
        63        O      tau(  63) = (   0.1360342   0.9011422   1.6115162  )
        64        O      tau(  64) = (   0.3787980   0.6986865   1.5736904  )
        65        O      tau(  65) = (   0.3677510   0.1474149   1.5681507  )
        66        O      tau(  66) = (   0.1091522   0.3445019   1.6130708  )
        67        O      tau(  67) = (   0.1535140   0.8654492   1.8774963  )
        68        O      tau(  68) = (   0.3948076   0.7176264   1.3082772  )
        69        O      tau(  69) = (   0.3502162   0.1643066   1.3009305  )
        70        O      tau(  70) = (   0.0993202   0.3091187   1.8805971  )
        71        O      tau(  71) = (   0.0903777   0.5660296   1.7630811  )
        72        O      tau(  72) = (   0.3492636   1.0227954   1.4341724  )
        73        O      tau(  73) = (   0.3646020   0.4001049   1.7428273  )
        74        O      tau(  74) = (   0.1232632   0.0821777   1.4436547  )
        75        O      tau(  75) = (   0.1218485   0.6357099   1.4465986  )
        76        O      tau(  76) = (   0.3950879   0.4683338   1.4358038  )
        77        O      tau(  77) = (   0.1575600   0.0186245   1.7589158  )
        78        O      tau(  78) = (   0.3794955   0.9564473   1.7469906  )
        79        Ni     tau(  79) = (   0.7421002   0.8609138   0.1302181  )
        80        Mn     tau(  80) = (   0.9924481   0.7886602   0.4655392  )
        81        Ni     tau(  81) = (   0.5052341   0.3031820   0.1284544  )
        82        Ni     tau(  82) = (   0.7570603   0.2374878   0.4617901  )
        83        Ni     tau(  83) = (   0.9976584   1.1048203   0.2964410  )
        84        Ni     tau(  84) = (   0.7495781   0.5440308   0.2953805  )
        85        P      tau(  85) = (   0.7083492   0.9982113   0.4588145  )
        86        P      tau(  86) = (   0.9584476   0.6559264   0.1347090  )
        87        P      tau(  87) = (   0.7889394   0.1031966   0.1319347  )
        88        P      tau(  88) = (   0.5400379   0.4338094   0.4586283  )
        89        O      tau(  89) = (   0.6314218   0.9248062   0.3189972  )
        90        O      tau(  90) = (   0.8797244   0.7272031   0.2742874  )
        91        O      tau(  91) = (   0.8662315   0.1762062   0.2720888  )
        92        O      tau(  92) = (   0.6171240   0.3646150   0.3169340  )
        93        O      tau(  93) = (   0.6510364   0.9068326   0.5881934  )
        94        O      tau(  94) = (   0.8981989   0.7453439   0.0053495  )
        95        O      tau(  95) = (   0.8490561   0.1888693   0.0010856  )
        96        O      tau(  96) = (   0.5982395   0.3475583   0.5894443  )
        97        O      tau(  97) = (   0.5992163   0.5918099   0.4542505  )
        98        O      tau(  98) = (   0.8467441   1.0504690   0.1405000  )
        99        O      tau(  99) = (   0.8739183   0.4303319   0.4477971  )
       100        O      tau( 100) = (   0.6230967   0.1088895   0.1422960  )
       101        O      tau( 101) = (   0.6242901   0.6635968   0.1442928  )
       102        O      tau( 102) = (   0.9011802   0.4971632   0.1376281  )
       103        O      tau( 103) = (   0.6484006   0.0497464   0.4550965  )
       104        O      tau( 104) = (   0.8736100   0.9942556   0.4492158  )
       105        Ni     tau( 105) = (   0.7413539   0.8509941   0.7820408  )
       106        Mn     tau( 106) = (   0.9917018   0.7787406   1.1173619  )
       107        Ni     tau( 107) = (   0.5044877   0.2932623   0.7802771  )
       108        Ni     tau( 108) = (   0.7563139   0.2275682   1.1136128  )
       109        Ni     tau( 109) = (   0.9969120   1.0949007   0.9482637  )
       110        Ni     tau( 110) = (   0.7488318   0.5341111   0.9472032  )
       111        P      tau( 111) = (   0.7076029   0.9882917   1.1106372  )
       112        P      tau( 112) = (   0.9577012   0.6460068   0.7865316  )
       113        P      tau( 113) = (   0.7881931   0.0932770   0.7837574  )
       114        P      tau( 114) = (   0.5392916   0.4238898   1.1104509  )
       115        O      tau( 115) = (   0.6306755   0.9148866   0.9708199  )
       116        O      tau( 116) = (   0.8789780   0.7172835   0.9261101  )
       117        O      tau( 117) = (   0.8654852   0.1662865   0.9239115  )
       118        O      tau( 118) = (   0.6163776   0.3546954   0.9687567  )
       119        O      tau( 119) = (   0.6502901   0.8969129   1.2400160  )
       120        O      tau( 120) = (   0.8974525   0.7354243   0.6571722  )
       121        O      tau( 121) = (   0.8483097   0.1789497   0.6529083  )
       122        O      tau( 122) = (   0.5974932   0.3376387   1.2412670  )
       123        O      tau( 123) = (   0.5984699   0.5818903   1.1060732  )
       124        O      tau( 124) = (   0.8459978   1.0405493   0.7923226  )
       125        O      tau( 125) = (   0.8731719   0.4204123   1.0996198  )
       126        O      tau( 126) = (   0.6223503   0.0989699   0.7941187  )
       127        O      tau( 127) = (   0.6235438   0.6536772   0.7961155  )
       128        O      tau( 128) = (   0.9004339   0.4872435   0.7894508  )
       129        O      tau( 129) = (   0.6476543   0.0398268   1.1069192  )
       130        O      tau( 130) = (   0.8728637   0.9843360   1.1010385  )
       131        Ni     tau( 131) = (   0.7412940   0.8317433   1.4310133  )
       132        Mn     tau( 132) = (   0.9942976   0.7631104   1.7617718  )
       133        Ni     tau( 133) = (   0.5047574   0.2752797   1.4288709  )
       134        Ni     tau( 134) = (   0.7578350   0.2028549   1.7762646  )
       135        Ni     tau( 135) = (   0.9991757   1.0753039   1.5972728  )
       136        Ni     tau( 136) = (   0.7442600   0.5152897   1.5986856  )
       137        P      tau( 137) = (   0.7103622   0.9612778   1.7571285  )
       138        P      tau( 138) = (   0.9553703   0.6259627   1.4358934  )
       139        P      tau( 139) = (   0.7893263   0.0766982   1.4325513  )
       140        P      tau( 140) = (   0.5325678   0.3983667   1.7561030  )
       141        O      tau( 141) = (   0.6347348   0.8960507   1.6104236  )
       142        O      tau( 142) = (   0.8786872   0.6982692   1.5748233  )
       143        O      tau( 143) = (   0.8656120   0.1503721   1.5709854  )
       144        O      tau( 144) = (   0.6103215   0.3431354   1.6091064  )
       145        O      tau( 145) = (   0.6551320   0.8592875   1.8763947  )
       146        O      tau( 146) = (   0.8944353   0.7174045   1.3087138  )
       147        O      tau( 147) = (   0.8496681   0.1651992   1.3026615  )
       148        O      tau( 148) = (   0.5874463   0.2980729   1.8752625  )
       149        O      tau( 149) = (   0.5882302   0.5598447   1.7638488  )
       150        O      tau( 150) = (   0.8489894   1.0242576   1.4369886  )
       151        O      tau( 151) = (   0.8668845   0.4032412   1.7522286  )
       152        O      tau( 152) = (   0.6225444   0.0814235   1.4420664  )
       153        O      tau( 153) = (   0.6223363   0.6337860   1.4464754  )
       154        O      tau( 154) = (   0.8959961   0.4681766   1.4379317  )
       155        O      tau( 155) = (   0.6491461   0.0122190   1.7550753  )
       156        O      tau( 156) = (   0.8775761   0.9554460   1.7441695  )
       157        O      tau( 157) = (   0.8703181   0.1173150   1.9156559  )
       158        H      tau( 158) = (   0.9557521   0.1787018   1.9403932  )

     -------------------------------------------------
     Parameters for Dispersion (Grimme-D2) Correction:
     -------------------------------------------------
       atom      VdW radius       C_6     

        Ni         2.952        374.666
        Mn         2.952        374.666
        P          3.222        271.980
        O          2.536         24.284
        H          1.892          4.857

     number of k points=     1  Gaussian smearing, width (Ry)=  0.0100
                       cart. coord. in units 2pi/alat
        k(    1) = (   0.0000000   0.0000000   0.0000000), wk =   1.0000000

     Dense  grid:  1938023 G-vectors     FFT dimensions: ( 125, 144, 450)

     Smooth grid:   490328 G-vectors     FFT dimensions: (  80,  90, 288)

     Estimated max dynamical RAM per process >     326.29 MB

     Estimated total dynamical RAM >      20.39 GB

     Check: negative core charge=   -0.000001
     Generating pointlists ...
     new r_m :   0.0819 (alat units)  1.4252 (a.u.) for type    1
     new r_m :   0.0904 (alat units)  1.5743 (a.u.) for type    2
     new r_m :   0.0681 (alat units)  1.1857 (a.u.) for type    3
     new r_m :   0.0446 (alat units)  0.7760 (a.u.) for type    4
     new r_m :   0.0446 (alat units)  0.7760 (a.u.) for type    5

     Initial potential from superposition of free atoms

     starting charge    1092.8893, renormalised to    1093.0000

     negative rho (up, down):  1.375E-03 4.556E-04
 
     Adding external electric field

     Computed dipole along edir(3) : 
        Dipole                1.6484 Ry au,          4.1898 Debye
        Dipole field          0.0010 Ry au, 
 
        Potential amp.       -0.1113 Ry
        Total length         55.1515 bohr
 
 
     Adding external electric field

     Computed dipole along edir(3) : 
        Dipole                1.6484 Ry au,          4.1898 Debye
        Dipole field          0.0010 Ry au, 
 
        Potential amp.       -0.1113 Ry
        Total length         55.1515 bohr
 
     Starting wfcs are  815 randomized atomic wfcs

     total cpu time spent up to now is       11.0 secs

     Self-consistent Calculation

     iteration #  1     ecut=    50.00 Ry     beta= 0.10
     Davidson diagonalization with overlap
     ethr =  1.00E-02,  avg # of iterations =  6.0

     negative rho (up, down):  3.881E-01 1.621E-06
 
     Adding external electric field

     Computed dipole along edir(3) : 
        Dipole               -3.5238 Ry au,         -8.9565 Debye
        Dipole field         -0.0022 Ry au, 
 
        Potential amp.        0.2379 Ry
        Total length         55.1515 bohr
 
 
     Adding external electric field

     Computed dipole along edir(3) : 
        Dipole               -3.5238 Ry au,         -8.9565 Debye
        Dipole field         -0.0022 Ry au, 
 
        Potential amp.        0.2379 Ry
        Total length         55.1515 bohr
 

     total cpu time spent up to now is       42.6 secs

     total energy              =   -7518.25086064 Ry
     estimated scf accuracy    <     751.58097512 Ry

     total magnetization       =   219.00 Bohr mag/cell
     absolute magnetization    =   307.81 Bohr mag/cell

     iteration #  2     ecut=    50.00 Ry     beta= 0.10
     Davidson diagonalization with overlap
     ethr =  1.00E-02,  avg # of iterations =  2.0

     negative rho (up, down):  3.625E-01 1.195E-06
 
     Adding external electric field

     Computed dipole along edir(3) : 
        Dipole               -2.4612 Ry au,         -6.2556 Debye
        Dipole field         -0.0015 Ry au, 
 
        Potential amp.        0.1662 Ry
        Total length         55.1515 bohr
 
 
     Adding external electric field

     Computed dipole along edir(3) : 
        Dipole               -2.4612 Ry au,         -6.2556 Debye
        Dipole field         -0.0015 Ry au, 
 
        Potential amp.        0.1662 Ry
        Total length         55.1515 bohr
 

     total cpu time spent up to now is       61.1 secs

     total energy              =   -7601.70174059 Ry
     estimated scf accuracy    <     185.77612893 Ry

     total magnetization       =   156.58 Bohr mag/cell
     absolute magnetization    =   205.79 Bohr mag/cell

     iteration #  3     ecut=    50.00 Ry     beta= 0.10
     Davidson diagonalization with overlap
     ethr =  1.00E-02,  avg # of iterations =  1.5

     negative rho (up, down):  3.186E-01 9.544E-07
 
     Adding external electric field

     Computed dipole along edir(3) : 
        Dipole               -2.0566 Ry au,         -5.2275 Debye
        Dipole field         -0.0013 Ry au, 
 
        Potential amp.        0.1389 Ry
        Total length         55.1515 bohr
 
 
     Adding external electric field

     Computed dipole along edir(3) : 
        Dipole               -2.0566 Ry au,         -5.2275 Debye
        Dipole field         -0.0013 Ry au, 
 
        Potential amp.        0.1389 Ry
        Total length         55.1515 bohr
 

     total cpu time spent up to now is       75.2 secs

     total energy              =   -7633.55628587 Ry
     estimated scf accuracy    <     101.94917191 Ry

     total magnetization       =   133.33 Bohr mag/cell
     absolute magnetization    =   184.76 Bohr mag/cell

     iteration #  4     ecut=    50.00 Ry     beta= 0.10
     Davidson diagonalization with overlap
     ethr =  9.33E-03,  avg # of iterations =  1.5

     negative rho (up, down):  2.485E-01 3.577E-07
 
     Adding external electric field

     Computed dipole along edir(3) : 
        Dipole               -2.0326 Ry au,         -5.1664 Debye
        Dipole field         -0.0012 Ry au, 
 
        Potential amp.        0.1372 Ry
        Total length         55.1515 bohr
 
 
     Adding external electric field

     Computed dipole along edir(3) : 
        Dipole               -2.0326 Ry au,         -5.1664 Debye
        Dipole field         -0.0012 Ry au, 
 
        Potential amp.        0.1372 Ry
        Total length         55.1515 bohr
 

     total cpu time spent up to now is       89.6 secs

     total energy              =   -7664.53001399 Ry
     estimated scf accuracy    <      80.84203607 Ry

     total magnetization       =   116.84 Bohr mag/cell
     absolute magnetization    =   169.83 Bohr mag/cell

     iteration #  5     ecut=    50.00 Ry     beta= 0.10
     Davidson diagonalization with overlap
     ethr =  7.40E-03,  avg # of iterations =  1.0

     negative rho (up, down):  1.862E-02 3.610E-07
 
     Adding external electric field

     Computed dipole along edir(3) : 
        Dipole               -1.5752 Ry au,         -4.0037 Debye
        Dipole field         -0.0010 Ry au, 
 
        Potential amp.        0.1064 Ry
        Total length         55.1515 bohr
 
 
     Adding external electric field

     Computed dipole along edir(3) : 
        Dipole               -1.5752 Ry au,         -4.0037 Debye
        Dipole field         -0.0010 Ry au, 
 
        Potential amp.        0.1064 Ry
        Total length         55.1515 bohr
 

     total cpu time spent up to now is      103.1 secs

     total energy              =   -7724.90023150 Ry
     estimated scf accuracy    <      65.18459164 Ry

     total magnetization       =    97.16 Bohr mag/cell
     absolute magnetization    =   152.27 Bohr mag/cell

     iteration #  6     ecut=    50.00 Ry     beta= 0.10
     Davidson diagonalization with overlap
     ethr =  5.96E-03,  avg # of iterations =  1.0

     negative rho (up, down):  3.404E-04 4.997E-04
 
     Adding external electric field

     Computed dipole along edir(3) : 
        Dipole               -1.1127 Ry au,         -2.8281 Debye
        Dipole field         -0.0007 Ry au, 
 
        Potential amp.        0.0751 Ry
        Total length         55.1515 bohr
 
 
     Adding external electric field

     Computed dipole along edir(3) : 
        Dipole               -1.1127 Ry au,         -2.8281 Debye
        Dipole field         -0.0007 Ry au, 
 
        Potential amp.        0.0751 Ry
        Total length         55.1515 bohr
 

     total cpu time spent up to now is      116.4 secs

     total energy              =   -7736.03215190 Ry
     estimated scf accuracy    <      13.30317066 Ry

     total magnetization       =    91.00 Bohr mag/cell
     absolute magnetization    =   123.38 Bohr mag/cell

     iteration #  7     ecut=    50.00 Ry     beta= 0.10
     Davidson diagonalization with overlap
     ethr =  1.22E-03,  avg # of iterations =  6.0

     negative rho (up, down):  3.208E-04 4.806E-04
 
     Adding external electric field

     Computed dipole along edir(3) : 
        Dipole               -1.0935 Ry au,         -2.7793 Debye
        Dipole field         -0.0007 Ry au, 
 
        Potential amp.        0.0738 Ry
        Total length         55.1515 bohr
 
 
     Adding external electric field

     Computed dipole along edir(3) : 
        Dipole               -1.0935 Ry au,         -2.7793 Debye
        Dipole field         -0.0007 Ry au, 
 
        Potential amp.        0.0738 Ry
        Total length         55.1515 bohr
 

     total cpu time spent up to now is      140.1 secs

     total energy              =   -7738.36983344 Ry
     estimated scf accuracy    <      25.72295830 Ry

     total magnetization       =    70.31 Bohr mag/cell
     absolute magnetization    =    87.57 Bohr mag/cell

     iteration #  8     ecut=    50.00 Ry     beta= 0.10
     Davidson diagonalization with overlap
     ethr =  1.22E-03,  avg # of iterations =  1.0

     negative rho (up, down):  2.649E-04 4.109E-04
 
     Adding external electric field

     Computed dipole along edir(3) : 
        Dipole               -1.0359 Ry au,         -2.6331 Debye
        Dipole field         -0.0006 Ry au, 
 
        Potential amp.        0.0699 Ry
        Total length         55.1515 bohr
 
 
     Adding external electric field

     Computed dipole along edir(3) : 
        Dipole               -1.0359 Ry au,         -2.6331 Debye
        Dipole field         -0.0006 Ry au, 
 
        Potential amp.        0.0699 Ry
        Total length         55.1515 bohr
 

     total cpu time spent up to now is      153.3 secs

     total energy              =   -7738.29979383 Ry
     estimated scf accuracy    <      24.50957622 Ry

     total magnetization       =    70.63 Bohr mag/cell
     absolute magnetization    =    87.47 Bohr mag/cell

     iteration #  9     ecut=    50.00 Ry     beta= 0.10
     Davidson diagonalization with overlap
     ethr =  1.22E-03,  avg # of iterations =  1.0

     negative rho (up, down):  9.715E-05 4.043E-04
 
     Adding external electric field

     Computed dipole along edir(3) : 
        Dipole               -0.6487 Ry au,         -1.6487 Debye
        Dipole field         -0.0004 Ry au, 
 
        Potential amp.        0.0438 Ry
        Total length         55.1515 bohr
 
 
     Adding external electric field

     Computed dipole along edir(3) : 
        Dipole               -0.6487 Ry au,         -1.6487 Debye
        Dipole field         -0.0004 Ry au, 
 
        Potential amp.        0.0438 Ry
        Total length         55.1515 bohr
 

     total cpu time spent up to now is      166.6 secs

     total energy              =   -7737.47311182 Ry
     estimated scf accuracy    <      21.94049895 Ry

     total magnetization       =    70.99 Bohr mag/cell
     absolute magnetization    =    87.22 Bohr mag/cell

     iteration # 10     ecut=    50.00 Ry     beta= 0.10
     Davidson diagonalization with overlap
     ethr =  1.22E-03,  avg # of iterations =  1.0

     negative rho (up, down):  1.346E-04 5.139E-04
 
     Adding external electric field

     Computed dipole along edir(3) : 
        Dipole               -0.5951 Ry au,         -1.5126 Debye
        Dipole field         -0.0004 Ry au, 
 
        Potential amp.        0.0402 Ry
        Total length         55.1515 bohr
 
 
     Adding external electric field

     Computed dipole along edir(3) : 
        Dipole               -0.5951 Ry au,         -1.5126 Debye
        Dipole field         -0.0004 Ry au, 
 
        Potential amp.        0.0402 Ry
        Total length         55.1515 bohr
 

     total cpu time spent up to now is      178.1 secs

     total energy              =   -7737.90678357 Ry
     estimated scf accuracy    <       3.05880164 Ry

     total magnetization       =    83.96 Bohr mag/cell
     absolute magnetization    =    95.01 Bohr mag/cell

     iteration # 11     ecut=    50.00 Ry     beta= 0.10
     Davidson diagonalization with overlap
     ethr =  2.80E-04,  avg # of iterations =  2.0

     negative rho (up, down):  9.292E-05 5.994E-04
 
     Adding external electric field

     Computed dipole along edir(3) : 
        Dipole               -0.6183 Ry au,         -1.5717 Debye
        Dipole field         -0.0004 Ry au, 
 
        Potential amp.        0.0417 Ry
        Total length         55.1515 bohr
 
 
     Adding external electric field

     Computed dipole along edir(3) : 
        Dipole               -0.6183 Ry au,         -1.5717 Debye
        Dipole field         -0.0004 Ry au, 
 
        Potential amp.        0.0417 Ry
        Total length         55.1515 bohr
 

     total cpu time spent up to now is      191.9 secs

     total energy              =   -7737.93042128 Ry
     estimated scf accuracy    <       1.68031280 Ry

     total magnetization       =    88.16 Bohr mag/cell
     absolute magnetization    =    97.85 Bohr mag/cell

     iteration # 12     ecut=    50.00 Ry     beta= 0.10
     Davidson diagonalization with overlap
     ethr =  1.54E-04,  avg # of iterations =  9.5

     negative rho (up, down):  5.441E-05 5.433E-04
 
     Adding external electric field

     Computed dipole along edir(3) : 
        Dipole               -0.7247 Ry au,         -1.8420 Debye
        Dipole field         -0.0004 Ry au, 
 
        Potential amp.        0.0489 Ry
        Total length         55.1515 bohr
 
 
     Adding external electric field

     Computed dipole along edir(3) : 
        Dipole               -0.7247 Ry au,         -1.8420 Debye
        Dipole field         -0.0004 Ry au, 
 
        Potential amp.        0.0489 Ry
        Total length         55.1515 bohr
 

     total cpu time spent up to now is      210.4 secs

     total energy              =   -7737.97859996 Ry
     estimated scf accuracy    <       1.75223967 Ry

     total magnetization       =    85.97 Bohr mag/cell
     absolute magnetization    =    95.31 Bohr mag/cell

     iteration # 13     ecut=    50.00 Ry     beta= 0.10
     Davidson diagonalization with overlap
     ethr =  1.54E-04,  avg # of iterations =  2.5

     negative rho (up, down):  7.820E-05 7.047E-04
 
     Adding external electric field

     Computed dipole along edir(3) : 
        Dipole               -0.6294 Ry au,         -1.5997 Debye
        Dipole field         -0.0004 Ry au, 
 
        Potential amp.        0.0425 Ry
        Total length         55.1515 bohr
 
 
     Adding external electric field

     Computed dipole along edir(3) : 
        Dipole               -0.6294 Ry au,         -1.5997 Debye
        Dipole field         -0.0004 Ry au, 
 
        Potential amp.        0.0425 Ry
        Total length         55.1515 bohr
 

     total cpu time spent up to now is      224.7 secs

     total energy              =   -7737.99219875 Ry
     estimated scf accuracy    <       3.79284015 Ry

     total magnetization       =    80.99 Bohr mag/cell
     absolute magnetization    =    89.71 Bohr mag/cell

     iteration # 14     ecut=    50.00 Ry     beta= 0.10
     Davidson diagonalization with overlap
     ethr =  1.54E-04,  avg # of iterations =  1.5

     negative rho (up, down):  1.247E-04 7.587E-04
 
     Adding external electric field

     Computed dipole along edir(3) : 
        Dipole               -0.5223 Ry au,         -1.3276 Debye
        Dipole field         -0.0003 Ry au, 
 
        Potential amp.        0.0353 Ry
        Total length         55.1515 bohr
 
 
     Adding external electric field

     Computed dipole along edir(3) : 
        Dipole               -0.5223 Ry au,         -1.3276 Debye
        Dipole field         -0.0003 Ry au, 
 
        Potential amp.        0.0353 Ry
        Total length         55.1515 bohr
 

     total cpu time spent up to now is      238.2 secs

     total energy              =   -7738.13412811 Ry
     estimated scf accuracy    <       0.63322998 Ry

     total magnetization       =    86.70 Bohr mag/cell
     absolute magnetization    =    94.02 Bohr mag/cell

     iteration # 15     ecut=    50.00 Ry     beta= 0.10
     Davidson diagonalization with overlap
     ethr =  5.79E-05,  avg # of iterations = 13.0

     negative rho (up, down):  1.015E-04 7.666E-04
 
     Adding external electric field

     Computed dipole along edir(3) : 
        Dipole               -0.4781 Ry au,         -1.2151 Debye
        Dipole field         -0.0003 Ry au, 
 
        Potential amp.        0.0323 Ry
        Total length         55.1515 bohr
 
 
     Adding external electric field

     Computed dipole along edir(3) : 
        Dipole               -0.4781 Ry au,         -1.2151 Debye
        Dipole field         -0.0003 Ry au, 
 
        Potential amp.        0.0323 Ry
        Total length         55.1515 bohr
 

     total cpu time spent up to now is      265.9 secs

     total energy              =   -7738.20534999 Ry
     estimated scf accuracy    <       0.67497288 Ry

     total magnetization       =    89.78 Bohr mag/cell
     absolute magnetization    =    95.00 Bohr mag/cell

     iteration # 16     ecut=    50.00 Ry     beta= 0.10
     Davidson diagonalization with overlap
     ethr =  5.79E-05,  avg # of iterations =  2.0

     negative rho (up, down):  8.863E-05 5.182E-04
 
     Adding external electric field

     Computed dipole along edir(3) : 
        Dipole               -0.4289 Ry au,         -1.0901 Debye
        Dipole field         -0.0003 Ry au, 
 
        Potential amp.        0.0290 Ry
        Total length         55.1515 bohr
 
 
     Adding external electric field

     Computed dipole along edir(3) : 
        Dipole               -0.4289 Ry au,         -1.0901 Debye
        Dipole field         -0.0003 Ry au, 
 
        Potential amp.        0.0290 Ry
        Total length         55.1515 bohr
 

     total cpu time spent up to now is      280.0 secs

     total energy              =   -7738.27312459 Ry
     estimated scf accuracy    <       0.58131625 Ry

     total magnetization       =    89.32 Bohr mag/cell
     absolute magnetization    =    93.29 Bohr mag/cell

     iteration # 17     ecut=    50.00 Ry     beta= 0.10
     Davidson diagonalization with overlap
     ethr =  5.32E-05,  avg # of iterations =  2.0

     negative rho (up, down):  6.055E-05 1.626E-04
 
     Adding external electric field

     Computed dipole along edir(3) : 
        Dipole               -0.4601 Ry au,         -1.1696 Debye
        Dipole field         -0.0003 Ry au, 
 
        Potential amp.        0.0311 Ry
        Total length         55.1515 bohr
 
 
     Adding external electric field

     Computed dipole along edir(3) : 
        Dipole               -0.4601 Ry au,         -1.1696 Debye
        Dipole field         -0.0003 Ry au, 
 
        Potential amp.        0.0311 Ry
        Total length         55.1515 bohr
 

     total cpu time spent up to now is      294.5 secs

     total energy              =   -7738.29793427 Ry
     estimated scf accuracy    <       0.43977192 Ry

     total magnetization       =    89.02 Bohr mag/cell
     absolute magnetization    =    91.46 Bohr mag/cell

     iteration # 18     ecut=    50.00 Ry     beta= 0.10
     Davidson diagonalization with overlap
     ethr =  4.02E-05,  avg # of iterations =  2.0

     negative rho (up, down):  4.805E-05 3.402E-04
 
     Adding external electric field

     Computed dipole along edir(3) : 
        Dipole               -0.4593 Ry au,         -1.1674 Debye
        Dipole field         -0.0003 Ry au, 
 
        Potential amp.        0.0310 Ry
        Total length         55.1515 bohr
 
 
     Adding external electric field

     Computed dipole along edir(3) : 
        Dipole               -0.4593 Ry au,         -1.1674 Debye
        Dipole field         -0.0003 Ry au, 
 
        Potential amp.        0.0310 Ry
        Total length         55.1515 bohr
 

     total cpu time spent up to now is      308.5 secs

     total energy              =   -7738.29067121 Ry
     estimated scf accuracy    <       0.20137599 Ry

     total magnetization       =    88.76 Bohr mag/cell
     absolute magnetization    =    91.03 Bohr mag/cell

     iteration # 19     ecut=    50.00 Ry     beta= 0.10
     Davidson diagonalization with overlap
     c_bands:  5 eigenvalues not converged
     ethr =  1.84E-05,  avg # of iterations = 11.0

     negative rho (up, down):  7.248E-05 2.352E-04
 
     Adding external electric field

     Computed dipole along edir(3) : 
        Dipole               -0.4512 Ry au,         -1.1469 Debye
        Dipole field         -0.0003 Ry au, 
 
        Potential amp.        0.0305 Ry
        Total length         55.1515 bohr
 
 
     Adding external electric field

     Computed dipole along edir(3) : 
        Dipole               -0.4512 Ry au,         -1.1469 Debye
        Dipole field         -0.0003 Ry au, 
 
        Potential amp.        0.0305 Ry
        Total length         55.1515 bohr
 

     total cpu time spent up to now is      328.5 secs

     total energy              =   -7738.30424446 Ry
     estimated scf accuracy    <       0.20411449 Ry

     total magnetization       =    88.28 Bohr mag/cell
     absolute magnetization    =    90.47 Bohr mag/cell

     iteration # 20     ecut=    50.00 Ry     beta= 0.10
     Davidson diagonalization with overlap
     ethr =  1.84E-05,  avg # of iterations =  2.0

     negative rho (up, down):  9.398E-06 1.280E-04
 
     Adding external electric field

     Computed dipole along edir(3) : 
        Dipole               -0.4424 Ry au,         -1.1245 Debye
        Dipole field         -0.0003 Ry au, 
 
        Potential amp.        0.0299 Ry
        Total length         55.1515 bohr
 
 
     Adding external electric field

     Computed dipole along edir(3) : 
        Dipole               -0.4424 Ry au,         -1.1245 Debye
        Dipole field         -0.0003 Ry au, 
 
        Potential amp.        0.0299 Ry
        Total length         55.1515 bohr
 

     total cpu time spent up to now is      342.6 secs

     total energy              =   -7738.29833045 Ry
     estimated scf accuracy    <       0.29154968 Ry

     total magnetization       =    88.53 Bohr mag/cell
     absolute magnetization    =    90.63 Bohr mag/cell

     iteration # 21     ecut=    50.00 Ry     beta= 0.10
     Davidson diagonalization with overlap
     ethr =  1.84E-05,  avg # of iterations =  2.0

     negative rho (up, down):  4.514E-06 1.217E-04
 
     Adding external electric field

     Computed dipole along edir(3) : 
        Dipole               -0.4186 Ry au,         -1.0639 Debye
        Dipole field         -0.0003 Ry au, 
 
        Potential amp.        0.0283 Ry
        Total length         55.1515 bohr
 
 
     Adding external electric field

     Computed dipole along edir(3) : 
        Dipole               -0.4186 Ry au,         -1.0639 Debye
        Dipole field         -0.0003 Ry au, 
 
        Potential amp.        0.0283 Ry
        Total length         55.1515 bohr
 

     total cpu time spent up to now is      357.1 secs

     total energy              =   -7738.30200864 Ry
     estimated scf accuracy    <       0.13625862 Ry

     total magnetization       =    87.35 Bohr mag/cell
     absolute magnetization    =    89.06 Bohr mag/cell

     iteration # 22     ecut=    50.00 Ry     beta= 0.10
     Davidson diagonalization with overlap
     ethr =  1.25E-05,  avg # of iterations =  1.5

     negative rho (up, down):  9.725E-07 3.511E-05
 
     Adding external electric field

     Computed dipole along edir(3) : 
        Dipole               -0.3891 Ry au,         -0.9891 Debye
        Dipole field         -0.0002 Ry au, 
 
        Potential amp.        0.0263 Ry
        Total length         55.1515 bohr
 
 
     Adding external electric field

     Computed dipole along edir(3) : 
        Dipole               -0.3891 Ry au,         -0.9891 Debye
        Dipole field         -0.0002 Ry au, 
 
        Potential amp.        0.0263 Ry
        Total length         55.1515 bohr
 

     total cpu time spent up to now is      370.1 secs

     total energy              =   -7738.30567159 Ry
     estimated scf accuracy    <       0.07149995 Ry

     total magnetization       =    87.61 Bohr mag/cell
     absolute magnetization    =    89.20 Bohr mag/cell

     iteration # 23     ecut=    50.00 Ry     beta= 0.10
     Davidson diagonalization with overlap
     c_bands:  4 eigenvalues not converged
     ethr =  6.54E-06,  avg # of iterations = 11.0

     negative rho (up, down):  1.081E-07 4.519E-07
 
     Adding external electric field

     Computed dipole along edir(3) : 
        Dipole               -0.3176 Ry au,         -0.8073 Debye
        Dipole field         -0.0002 Ry au, 
 
        Potential amp.        0.0214 Ry
        Total length         55.1515 bohr
 
 
     Adding external electric field

     Computed dipole along edir(3) : 
        Dipole               -0.3176 Ry au,         -0.8073 Debye
        Dipole field         -0.0002 Ry au, 
 
        Potential amp.        0.0214 Ry
        Total length         55.1515 bohr
 

     total cpu time spent up to now is      392.8 secs

     total energy              =   -7738.30675890 Ry
     estimated scf accuracy    <       0.06323205 Ry

     total magnetization       =    87.64 Bohr mag/cell
     absolute magnetization    =    89.08 Bohr mag/cell

     iteration # 24     ecut=    50.00 Ry     beta= 0.10
     Davidson diagonalization with overlap
     ethr =  5.79E-06,  avg # of iterations = 19.0

     negative rho (up, down):  1.540E-08 1.313E-08
 
     Adding external electric field

     Computed dipole along edir(3) : 
        Dipole               -0.2479 Ry au,         -0.6302 Debye
        Dipole field         -0.0002 Ry au, 
 
        Potential amp.        0.0167 Ry
        Total length         55.1515 bohr
 
 
     Adding external electric field

     Computed dipole along edir(3) : 
        Dipole               -0.2479 Ry au,         -0.6302 Debye
        Dipole field         -0.0002 Ry au, 
 
        Potential amp.        0.0167 Ry
        Total length         55.1515 bohr
 

     total cpu time spent up to now is      421.5 secs

     total energy              =   -7738.30613099 Ry
     estimated scf accuracy    <       0.04739367 Ry

     total magnetization       =    87.92 Bohr mag/cell
     absolute magnetization    =    89.27 Bohr mag/cell

     iteration # 25     ecut=    50.00 Ry     beta= 0.10
     Davidson diagonalization with overlap
     ethr =  4.34E-06,  avg # of iterations =  2.0
 
     Adding external electric field

     Computed dipole along edir(3) : 
        Dipole               -0.2359 Ry au,         -0.5997 Debye
        Dipole field         -0.0001 Ry au, 
 
        Potential amp.        0.0159 Ry
        Total length         55.1515 bohr
 
 
     Adding external electric field

     Computed dipole along edir(3) : 
        Dipole               -0.2359 Ry au,         -0.5997 Debye
        Dipole field         -0.0001 Ry au, 
 
        Potential amp.        0.0159 Ry
        Total length         55.1515 bohr
 

     total cpu time spent up to now is      435.3 secs

     total energy              =   -7738.30693585 Ry
     estimated scf accuracy    <       0.05894071 Ry

     total magnetization       =    88.31 Bohr mag/cell
     absolute magnetization    =    89.64 Bohr mag/cell

     iteration # 26     ecut=    50.00 Ry     beta= 0.10
     Davidson diagonalization with overlap
     ethr =  4.34E-06,  avg # of iterations =  1.5

     negative rho (up, down):  5.051E-09 1.239E-08
 
     Adding external electric field

     Computed dipole along edir(3) : 
        Dipole               -0.2518 Ry au,         -0.6400 Debye
        Dipole field         -0.0002 Ry au, 
 
        Potential amp.        0.0170 Ry
        Total length         55.1515 bohr
 
 
     Adding external electric field

     Computed dipole along edir(3) : 
        Dipole               -0.2518 Ry au,         -0.6400 Debye
        Dipole field         -0.0002 Ry au, 
 
        Potential amp.        0.0170 Ry
        Total length         55.1515 bohr
 

     total cpu time spent up to now is      448.9 secs

     total energy              =   -7738.30694187 Ry
     estimated scf accuracy    <       0.06554515 Ry

     total magnetization       =    88.35 Bohr mag/cell
     absolute magnetization    =    89.70 Bohr mag/cell

     iteration # 27     ecut=    50.00 Ry     beta= 0.10
     Davidson diagonalization with overlap
     ethr =  4.34E-06,  avg # of iterations =  2.0

     negative rho (up, down):  2.637E-08 6.341E-08
 
     Adding external electric field

     Computed dipole along edir(3) : 
        Dipole               -0.2178 Ry au,         -0.5536 Debye
        Dipole field         -0.0001 Ry au, 
 
        Potential amp.        0.0147 Ry
        Total length         55.1515 bohr
 
 
     Adding external electric field

     Computed dipole along edir(3) : 
        Dipole               -0.2178 Ry au,         -0.5536 Debye
        Dipole field         -0.0001 Ry au, 
 
        Potential amp.        0.0147 Ry
        Total length         55.1515 bohr
 

     total cpu time spent up to now is      462.7 secs

     total energy              =   -7738.30674464 Ry
     estimated scf accuracy    <       0.03665848 Ry

     total magnetization       =    88.03 Bohr mag/cell
     absolute magnetization    =    89.45 Bohr mag/cell

     iteration # 28     ecut=    50.00 Ry     beta= 0.10
     Davidson diagonalization with overlap
     ethr =  3.35E-06,  avg # of iterations =  2.0

     negative rho (up, down):  1.794E-06 1.222E-06
 
     Adding external electric field

     Computed dipole along edir(3) : 
        Dipole               -0.1230 Ry au,         -0.3125 Debye
        Dipole field         -0.0001 Ry au, 
 
        Potential amp.        0.0083 Ry
        Total length         55.1515 bohr
 
 
     Adding external electric field

     Computed dipole along edir(3) : 
        Dipole               -0.1230 Ry au,         -0.3125 Debye
        Dipole field         -0.0001 Ry au, 
 
        Potential amp.        0.0083 Ry
        Total length         55.1515 bohr
 

     total cpu time spent up to now is      476.9 secs

     total energy              =   -7738.30505284 Ry
     estimated scf accuracy    <       0.03663326 Ry

     total magnetization       =    88.03 Bohr mag/cell
     absolute magnetization    =    89.46 Bohr mag/cell

     iteration # 29     ecut=    50.00 Ry     beta= 0.10
     Davidson diagonalization with overlap
     ethr =  3.35E-06,  avg # of iterations =  2.0

     negative rho (up, down):  9.626E-08 1.255E-07
 
     Adding external electric field

     Computed dipole along edir(3) : 
        Dipole               -0.1521 Ry au,         -0.3867 Debye
        Dipole field         -0.0001 Ry au, 
 
        Potential amp.        0.0103 Ry
        Total length         55.1515 bohr
 
 
     Adding external electric field

     Computed dipole along edir(3) : 
        Dipole               -0.1521 Ry au,         -0.3867 Debye
        Dipole field         -0.0001 Ry au, 
 
        Potential amp.        0.0103 Ry
        Total length         55.1515 bohr
 

     total cpu time spent up to now is      491.0 secs

     total energy              =   -7738.30403485 Ry
     estimated scf accuracy    <       0.07435971 Ry

     total magnetization       =    88.31 Bohr mag/cell
     absolute magnetization    =    89.70 Bohr mag/cell

     iteration # 30     ecut=    50.00 Ry     beta= 0.10
     Davidson diagonalization with overlap
     ethr =  3.35E-06,  avg # of iterations =  1.5

     negative rho (up, down):  3.022E-07 4.535E-07
 
     Adding external electric field

     Computed dipole along edir(3) : 
        Dipole               -0.1406 Ry au,         -0.3572 Debye
        Dipole field         -0.0001 Ry au, 
 
        Potential amp.        0.0095 Ry
        Total length         55.1515 bohr
 
 
     Adding external electric field

     Computed dipole along edir(3) : 
        Dipole               -0.1406 Ry au,         -0.3572 Debye
        Dipole field         -0.0001 Ry au, 
 
        Potential amp.        0.0095 Ry
        Total length         55.1515 bohr
 

     total cpu time spent up to now is      504.0 secs

     total energy              =   -7738.30551869 Ry
     estimated scf accuracy    <       0.08402358 Ry

     total magnetization       =    88.39 Bohr mag/cell
     absolute magnetization    =    89.66 Bohr mag/cell

     iteration # 31     ecut=    50.00 Ry     beta= 0.10
     Davidson diagonalization with overlap
     ethr =  3.35E-06,  avg # of iterations =  1.5

     negative rho (up, down):  6.207E-07 6.891E-07
 
     Adding external electric field

     Computed dipole along edir(3) : 
        Dipole               -0.1966 Ry au,         -0.4997 Debye
        Dipole field         -0.0001 Ry au, 
 
        Potential amp.        0.0133 Ry
        Total length         55.1515 bohr
 
 
     Adding external electric field

     Computed dipole along edir(3) : 
        Dipole               -0.1966 Ry au,         -0.4997 Debye
        Dipole field         -0.0001 Ry au, 
 
        Potential amp.        0.0133 Ry
        Total length         55.1515 bohr
 

     total cpu time spent up to now is      516.8 secs

     total energy              =   -7738.30604105 Ry
     estimated scf accuracy    <       0.06133473 Ry

     total magnetization       =    88.26 Bohr mag/cell
     absolute magnetization    =    89.51 Bohr mag/cell

     iteration # 32     ecut=    50.00 Ry     beta= 0.10
     Davidson diagonalization with overlap
     ethr =  3.35E-06,  avg # of iterations =  2.0

     negative rho (up, down):  1.597E-06 1.675E-06
 
     Adding external electric field

     Computed dipole along edir(3) : 
        Dipole               -0.1996 Ry au,         -0.5073 Debye
        Dipole field         -0.0001 Ry au, 
 
        Potential amp.        0.0135 Ry
        Total length         55.1515 bohr
 
 
     Adding external electric field

     Computed dipole along edir(3) : 
        Dipole               -0.1996 Ry au,         -0.5073 Debye
        Dipole field         -0.0001 Ry au, 
 
        Potential amp.        0.0135 Ry
        Total length         55.1515 bohr
 

     total cpu time spent up to now is      531.2 secs

     total energy              =   -7738.30638588 Ry
     estimated scf accuracy    <       0.06069978 Ry

     total magnetization       =    88.36 Bohr mag/cell
     absolute magnetization    =    89.76 Bohr mag/cell

     iteration # 33     ecut=    50.00 Ry     beta= 0.10
     Davidson diagonalization with overlap
     ethr =  3.35E-06,  avg # of iterations =  1.0

     negative rho (up, down):  4.131E-07 6.013E-07
 
     Adding external electric field

     Computed dipole along edir(3) : 
        Dipole               -0.2307 Ry au,         -0.5863 Debye
        Dipole field         -0.0001 Ry au, 
 
        Potential amp.        0.0156 Ry
        Total length         55.1515 bohr
 
 
     Adding external electric field

     Computed dipole along edir(3) : 
        Dipole               -0.2307 Ry au,         -0.5863 Debye
        Dipole field         -0.0001 Ry au, 
 
        Potential amp.        0.0156 Ry
        Total length         55.1515 bohr
 

     total cpu time spent up to now is      543.5 secs

     total energy              =   -7738.30645951 Ry
     estimated scf accuracy    <       0.05562970 Ry

     total magnetization       =    88.27 Bohr mag/cell
     absolute magnetization    =    89.72 Bohr mag/cell

     iteration # 34     ecut=    50.00 Ry     beta= 0.10
     Davidson diagonalization with overlap
     ethr =  3.35E-06,  avg # of iterations =  2.0

     negative rho (up, down):  5.910E-06 1.003E-05
 
     Adding external electric field

     Computed dipole along edir(3) : 
        Dipole               -0.2316 Ry au,         -0.5886 Debye
        Dipole field         -0.0001 Ry au, 
 
        Potential amp.        0.0156 Ry
        Total length         55.1515 bohr
 
 
     Adding external electric field

     Computed dipole along edir(3) : 
        Dipole               -0.2316 Ry au,         -0.5886 Debye
        Dipole field         -0.0001 Ry au, 
 
        Potential amp.        0.0156 Ry
        Total length         55.1515 bohr
 

     total cpu time spent up to now is      557.4 secs

     total energy              =   -7738.30666384 Ry
     estimated scf accuracy    <       0.04598926 Ry

     total magnetization       =    88.37 Bohr mag/cell
     absolute magnetization    =    89.71 Bohr mag/cell

     iteration # 35     ecut=    50.00 Ry     beta= 0.10
     Davidson diagonalization with overlap
     ethr =  3.35E-06,  avg # of iterations =  1.0

     negative rho (up, down):  7.816E-07 1.153E-06
 
     Adding external electric field

     Computed dipole along edir(3) : 
        Dipole               -0.2411 Ry au,         -0.6127 Debye
        Dipole field         -0.0001 Ry au, 
 
        Potential amp.        0.0163 Ry
        Total length         55.1515 bohr
 
 
     Adding external electric field

     Computed dipole along edir(3) : 
        Dipole               -0.2411 Ry au,         -0.6127 Debye
        Dipole field         -0.0001 Ry au, 
 
        Potential amp.        0.0163 Ry
        Total length         55.1515 bohr
 

     total cpu time spent up to now is      569.9 secs

     total energy              =   -7738.30656417 Ry
     estimated scf accuracy    <       0.04855752 Ry

     total magnetization       =    88.34 Bohr mag/cell
     absolute magnetization    =    89.72 Bohr mag/cell

     iteration # 36     ecut=    50.00 Ry     beta= 0.10
     Davidson diagonalization with overlap
     ethr =  3.35E-06,  avg # of iterations =  2.0

     negative rho (up, down):  3.257E-06 1.550E-06
 
     Adding external electric field

     Computed dipole along edir(3) : 
        Dipole               -0.2417 Ry au,         -0.6143 Debye
        Dipole field         -0.0001 Ry au, 
 
        Potential amp.        0.0163 Ry
        Total length         55.1515 bohr
 
 
     Adding external electric field

     Computed dipole along edir(3) : 
        Dipole               -0.2417 Ry au,         -0.6143 Debye
        Dipole field         -0.0001 Ry au, 
 
        Potential amp.        0.0163 Ry
        Total length         55.1515 bohr
 

     total cpu time spent up to now is      584.0 secs

     total energy              =   -7738.30579934 Ry
     estimated scf accuracy    <       0.04175416 Ry

     total magnetization       =    88.31 Bohr mag/cell
     absolute magnetization    =    89.66 Bohr mag/cell

     iteration # 37     ecut=    50.00 Ry     beta= 0.10
     Davidson diagonalization with overlap
     ethr =  3.35E-06,  avg # of iterations =  1.5

     negative rho (up, down):  8.783E-06 6.621E-06
 
     Adding external electric field

     Computed dipole along edir(3) : 
        Dipole               -0.2837 Ry au,         -0.7211 Debye
        Dipole field         -0.0002 Ry au, 
 
        Potential amp.        0.0192 Ry
        Total length         55.1515 bohr
 
 
     Adding external electric field

     Computed dipole along edir(3) : 
        Dipole               -0.2837 Ry au,         -0.7211 Debye
        Dipole field         -0.0002 Ry au, 
 
        Potential amp.        0.0192 Ry
        Total length         55.1515 bohr
 

     total cpu time spent up to now is      597.2 secs

     total energy              =   -7738.30593374 Ry
     estimated scf accuracy    <       0.04407239 Ry

     total magnetization       =    88.44 Bohr mag/cell
     absolute magnetization    =    89.74 Bohr mag/cell

     iteration # 38     ecut=    50.00 Ry     beta= 0.10
     Davidson diagonalization with overlap
     ethr =  3.35E-06,  avg # of iterations =  2.0

     negative rho (up, down):  4.639E-07 1.957E-07
 
     Adding external electric field

     Computed dipole along edir(3) : 
        Dipole               -0.1759 Ry au,         -0.4472 Debye
        Dipole field         -0.0001 Ry au, 
 
        Potential amp.        0.0119 Ry
        Total length         55.1515 bohr
 
 
     Adding external electric field

     Computed dipole along edir(3) : 
        Dipole               -0.1759 Ry au,         -0.4472 Debye
        Dipole field         -0.0001 Ry au, 
 
        Potential amp.        0.0119 Ry
        Total length         55.1515 bohr
 

     total cpu time spent up to now is      611.7 secs

     total energy              =   -7738.30580335 Ry
     estimated scf accuracy    <       0.04051594 Ry

     total magnetization       =    88.30 Bohr mag/cell
     absolute magnetization    =    89.53 Bohr mag/cell

     iteration # 39     ecut=    50.00 Ry     beta= 0.10
     Davidson diagonalization with overlap
     ethr =  3.35E-06,  avg # of iterations =  2.0

     negative rho (up, down):  1.094E-05 6.365E-06
 
     Adding external electric field

     Computed dipole along edir(3) : 
        Dipole               -0.2933 Ry au,         -0.7456 Debye
        Dipole field         -0.0002 Ry au, 
 
        Potential amp.        0.0198 Ry
        Total length         55.1515 bohr
 
 
     Adding external electric field

     Computed dipole along edir(3) : 
        Dipole               -0.2933 Ry au,         -0.7456 Debye
        Dipole field         -0.0002 Ry au, 
 
        Potential amp.        0.0198 Ry
        Total length         55.1515 bohr
 

     total cpu time spent up to now is      626.0 secs

     total energy              =   -7738.30641402 Ry
     estimated scf accuracy    <       0.04570492 Ry

     total magnetization       =    88.35 Bohr mag/cell
     absolute magnetization    =    89.67 Bohr mag/cell

     iteration # 40     ecut=    50.00 Ry     beta= 0.10
     Davidson diagonalization with overlap
     ethr =  3.35E-06,  avg # of iterations =  1.5

     negative rho (up, down):  7.241E-06 2.407E-06
 
     Adding external electric field

     Computed dipole along edir(3) : 
        Dipole               -0.3367 Ry au,         -0.8559 Debye
        Dipole field         -0.0002 Ry au, 
 
        Potential amp.        0.0227 Ry
        Total length         55.1515 bohr
 
 
     Adding external electric field

     Computed dipole along edir(3) : 
        Dipole               -0.3367 Ry au,         -0.8559 Debye
        Dipole field         -0.0002 Ry au, 
 
        Potential amp.        0.0227 Ry
        Total length         55.1515 bohr
 

     total cpu time spent up to now is      639.1 secs

     total energy              =   -7738.30673226 Ry
     estimated scf accuracy    <       0.03637312 Ry

     total magnetization       =    88.26 Bohr mag/cell
     absolute magnetization    =    89.58 Bohr mag/cell

     iteration # 41     ecut=    50.00 Ry     beta= 0.10
     Davidson diagonalization with overlap
     ethr =  3.33E-06,  avg # of iterations =  1.5

     negative rho (up, down):  2.679E-05 1.569E-05
 
     Adding external electric field

     Computed dipole along edir(3) : 
        Dipole               -0.3136 Ry au,         -0.7971 Debye
        Dipole field         -0.0002 Ry au, 
 
        Potential amp.        0.0212 Ry
        Total length         55.1515 bohr
 
 
     Adding external electric field

     Computed dipole along edir(3) : 
        Dipole               -0.3136 Ry au,         -0.7971 Debye
        Dipole field         -0.0002 Ry au, 
 
        Potential amp.        0.0212 Ry
        Total length         55.1515 bohr
 

     total cpu time spent up to now is      653.1 secs

     total energy              =   -7738.30427512 Ry
     estimated scf accuracy    <       0.03802503 Ry

     total magnetization       =    88.39 Bohr mag/cell
     absolute magnetization    =    89.72 Bohr mag/cell

     iteration # 42     ecut=    50.00 Ry     beta= 0.10
     Davidson diagonalization with overlap
     ethr =  3.33E-06,  avg # of iterations =  1.5

     negative rho (up, down):  3.300E-06 7.929E-07
 
     Adding external electric field

     Computed dipole along edir(3) : 
        Dipole               -0.3053 Ry au,         -0.7761 Debye
        Dipole field         -0.0002 Ry au, 
 
        Potential amp.        0.0206 Ry
        Total length         55.1515 bohr
 
 
     Adding external electric field

     Computed dipole along edir(3) : 
        Dipole               -0.3053 Ry au,         -0.7761 Debye
        Dipole field         -0.0002 Ry au, 
 
        Potential amp.        0.0206 Ry
        Total length         55.1515 bohr
 

     total cpu time spent up to now is      666.8 secs

     total energy              =   -7738.30594185 Ry
     estimated scf accuracy    <       0.03887357 Ry

     total magnetization       =    88.39 Bohr mag/cell
     absolute magnetization    =    89.53 Bohr mag/cell

     iteration # 43     ecut=    50.00 Ry     beta= 0.10
     Davidson diagonalization with overlap
     ethr =  3.33E-06,  avg # of iterations =  1.0

     negative rho (up, down):  4.396E-06 2.030E-06
 
     Adding external electric field

     Computed dipole along edir(3) : 
        Dipole               -0.1451 Ry au,         -0.3688 Debye
        Dipole field         -0.0001 Ry au, 
 
        Potential amp.        0.0098 Ry
        Total length         55.1515 bohr
 
 
     Adding external electric field

     Computed dipole along edir(3) : 
        Dipole               -0.1451 Ry au,         -0.3688 Debye
        Dipole field         -0.0001 Ry au, 
 
        Potential amp.        0.0098 Ry
        Total length         55.1515 bohr
 

     total cpu time spent up to now is      679.8 secs

     total energy              =   -7738.30505699 Ry
     estimated scf accuracy    <       0.04125049 Ry

     total magnetization       =    88.28 Bohr mag/cell
     absolute magnetization    =    89.54 Bohr mag/cell

     iteration # 44     ecut=    50.00 Ry     beta= 0.10
     Davidson diagonalization with overlap
     ethr =  3.33E-06,  avg # of iterations =  2.0

     negative rho (up, down):  1.685E-04 1.985E-04
 
     Adding external electric field

     Computed dipole along edir(3) : 
        Dipole               -0.4172 Ry au,         -1.0603 Debye
        Dipole field         -0.0003 Ry au, 
 
        Potential amp.        0.0282 Ry
        Total length         55.1515 bohr
 
 
     Adding external electric field

     Computed dipole along edir(3) : 
        Dipole               -0.4172 Ry au,         -1.0603 Debye
        Dipole field         -0.0003 Ry au, 
 
        Potential amp.        0.0282 Ry
        Total length         55.1515 bohr
 

     total cpu time spent up to now is      693.9 secs

     total energy              =   -7738.30755726 Ry
     estimated scf accuracy    <       0.04795512 Ry

     total magnetization       =    88.33 Bohr mag/cell
     absolute magnetization    =    89.68 Bohr mag/cell

     iteration # 45     ecut=    50.00 Ry     beta= 0.10
     Davidson diagonalization with overlap
     ethr =  3.33E-06,  avg # of iterations =  2.0

     negative rho (up, down):  1.973E-04 8.284E-05
 
     Adding external electric field

     Computed dipole along edir(3) : 
        Dipole               -0.2430 Ry au,         -0.6176 Debye
        Dipole field         -0.0001 Ry au, 
 
        Potential amp.        0.0164 Ry
        Total length         55.1515 bohr
 
 
     Adding external electric field

     Computed dipole along edir(3) : 
        Dipole               -0.2430 Ry au,         -0.6176 Debye
        Dipole field         -0.0001 Ry au, 
 
        Potential amp.        0.0164 Ry
        Total length         55.1515 bohr
 

     total cpu time spent up to now is      708.4 secs

     total energy              =   -7738.30078464 Ry
     estimated scf accuracy    <       0.04492913 Ry

     total magnetization       =    88.27 Bohr mag/cell
     absolute magnetization    =    89.56 Bohr mag/cell

     iteration # 46     ecut=    50.00 Ry     beta= 0.10
     Davidson diagonalization with overlap
     ethr =  3.33E-06,  avg # of iterations =  2.0

     negative rho (up, down):  9.706E-06 1.430E-06
 
     Adding external electric field

     Computed dipole along edir(3) : 
        Dipole               -0.2653 Ry au,         -0.6744 Debye
        Dipole field         -0.0002 Ry au, 
 
        Potential amp.        0.0179 Ry
        Total length         55.1515 bohr
 
 
     Adding external electric field

     Computed dipole along edir(3) : 
        Dipole               -0.2653 Ry au,         -0.6744 Debye
        Dipole field         -0.0002 Ry au, 
 
        Potential amp.        0.0179 Ry
        Total length         55.1515 bohr
 

     total cpu time spent up to now is      723.1 secs

     total energy              =   -7738.30338219 Ry
     estimated scf accuracy    <       0.04319192 Ry

     total magnetization       =    88.42 Bohr mag/cell
     absolute magnetization    =    89.62 Bohr mag/cell

     iteration # 47     ecut=    50.00 Ry     beta= 0.10
     Davidson diagonalization with overlap
     ethr =  3.33E-06,  avg # of iterations =  1.5

     negative rho (up, down):  3.747E-06 1.034E-06
 
     Adding external electric field

     Computed dipole along edir(3) : 
        Dipole               -0.2618 Ry au,         -0.6653 Debye
        Dipole field         -0.0002 Ry au, 
 
        Potential amp.        0.0177 Ry
        Total length         55.1515 bohr
 
 
     Adding external electric field

     Computed dipole along edir(3) : 
        Dipole               -0.2618 Ry au,         -0.6653 Debye
        Dipole field         -0.0002 Ry au, 
 
        Potential amp.        0.0177 Ry
        Total length         55.1515 bohr
 

     total cpu time spent up to now is      736.5 secs

     total energy              =   -7738.30470052 Ry
     estimated scf accuracy    <       0.03801548 Ry

     total magnetization       =    88.42 Bohr mag/cell
     absolute magnetization    =    89.59 Bohr mag/cell

     iteration # 48     ecut=    50.00 Ry     beta= 0.10
     Davidson diagonalization with overlap
     ethr =  3.33E-06,  avg # of iterations =  1.5

     negative rho (up, down):  1.535E-06 3.206E-07
 
     Adding external electric field

     Computed dipole along edir(3) : 
        Dipole               -0.2009 Ry au,         -0.5107 Debye
        Dipole field         -0.0001 Ry au, 
 
        Potential amp.        0.0136 Ry
        Total length         55.1515 bohr
 
 
     Adding external electric field

     Computed dipole along edir(3) : 
        Dipole               -0.2009 Ry au,         -0.5107 Debye
        Dipole field         -0.0001 Ry au, 
 
        Potential amp.        0.0136 Ry
        Total length         55.1515 bohr
 

     total cpu time spent up to now is      750.0 secs

     total energy              =   -7738.30485488 Ry
     estimated scf accuracy    <       0.03809063 Ry

     total magnetization       =    88.40 Bohr mag/cell
     absolute magnetization    =    89.61 Bohr mag/cell

     iteration # 49     ecut=    50.00 Ry     beta= 0.10
     Davidson diagonalization with overlap
     ethr =  3.33E-06,  avg # of iterations =  1.0

     negative rho (up, down):  2.496E-05 4.897E-06
 
     Adding external electric field

     Computed dipole along edir(3) : 
        Dipole               -0.3429 Ry au,         -0.8717 Debye
        Dipole field         -0.0002 Ry au, 
 
        Potential amp.        0.0232 Ry
        Total length         55.1515 bohr
 
 
     Adding external electric field

     Computed dipole along edir(3) : 
        Dipole               -0.3429 Ry au,         -0.8717 Debye
        Dipole field         -0.0002 Ry au, 
 
        Potential amp.        0.0232 Ry
        Total length         55.1515 bohr
 

     total cpu time spent up to now is      762.8 secs

     total energy              =   -7738.30419562 Ry
     estimated scf accuracy    <       0.04780208 Ry

     total magnetization       =    88.34 Bohr mag/cell
     absolute magnetization    =    89.54 Bohr mag/cell

     iteration # 50     ecut=    50.00 Ry     beta= 0.10
     Davidson diagonalization with overlap
     ethr =  3.33E-06,  avg # of iterations =  1.5

     negative rho (up, down):  1.394E-05 4.552E-06
 
     Adding external electric field

     Computed dipole along edir(3) : 
        Dipole               -0.3345 Ry au,         -0.8503 Debye
        Dipole field         -0.0002 Ry au, 
 
        Potential amp.        0.0226 Ry
        Total length         55.1515 bohr
 
 
     Adding external electric field

     Computed dipole along edir(3) : 
        Dipole               -0.3345 Ry au,         -0.8503 Debye
        Dipole field         -0.0002 Ry au, 
 
        Potential amp.        0.0226 Ry
        Total length         55.1515 bohr
 

     total cpu time spent up to now is      776.3 secs

     total energy              =   -7738.30389233 Ry
     estimated scf accuracy    <       0.03862713 Ry

     total magnetization       =    88.52 Bohr mag/cell
     absolute magnetization    =    89.77 Bohr mag/cell

     iteration # 51     ecut=    50.00 Ry     beta= 0.10
     Davidson diagonalization with overlap
     ethr =  3.33E-06,  avg # of iterations =  1.0

     negative rho (up, down):  1.669E-05 7.718E-06
 
     Adding external electric field

     Computed dipole along edir(3) : 
        Dipole               -0.2361 Ry au,         -0.6001 Debye
        Dipole field         -0.0001 Ry au, 
 
        Potential amp.        0.0159 Ry
        Total length         55.1515 bohr
 
 
     Adding external electric field

     Computed dipole along edir(3) : 
        Dipole               -0.2361 Ry au,         -0.6001 Debye
        Dipole field         -0.0001 Ry au, 
 
        Potential amp.        0.0159 Ry
        Total length         55.1515 bohr
 

     total cpu time spent up to now is      789.1 secs

     total energy              =   -7738.30479115 Ry
     estimated scf accuracy    <       0.03625734 Ry

     total magnetization       =    88.45 Bohr mag/cell
     absolute magnetization    =    89.63 Bohr mag/cell

     iteration # 52     ecut=    50.00 Ry     beta= 0.10
     Davidson diagonalization with overlap
     ethr =  3.32E-06,  avg # of iterations =  1.5

     negative rho (up, down):  2.602E-04 2.571E-04
 
     Adding external electric field

     Computed dipole along edir(3) : 
        Dipole               -0.1142 Ry au,         -0.2903 Debye
        Dipole field         -0.0001 Ry au, 
 
        Potential amp.        0.0077 Ry
        Total length         55.1515 bohr
 
 
     Adding external electric field

     Computed dipole along edir(3) : 
        Dipole               -0.1142 Ry au,         -0.2903 Debye
        Dipole field         -0.0001 Ry au, 
 
        Potential amp.        0.0077 Ry
        Total length         55.1515 bohr
 

     total cpu time spent up to now is      802.3 secs

     total energy              =   -7738.30477753 Ry
     estimated scf accuracy    <       0.03161144 Ry

     total magnetization       =    88.40 Bohr mag/cell
     absolute magnetization    =    89.60 Bohr mag/cell

     iteration # 53     ecut=    50.00 Ry     beta= 0.10
     Davidson diagonalization with overlap
     ethr =  2.89E-06,  avg # of iterations =  2.0

     negative rho (up, down):  2.019E-04 1.956E-04
 
     Adding external electric field

     Computed dipole along edir(3) : 
        Dipole               -0.1447 Ry au,         -0.3678 Debye
        Dipole field         -0.0001 Ry au, 
 
        Potential amp.        0.0098 Ry
        Total length         55.1515 bohr
 
 
     Adding external electric field

     Computed dipole along edir(3) : 
        Dipole               -0.1447 Ry au,         -0.3678 Debye
        Dipole field         -0.0001 Ry au, 
 
        Potential amp.        0.0098 Ry
        Total length         55.1515 bohr
 

     total cpu time spent up to now is      816.8 secs

     total energy              =   -7738.30546169 Ry
     estimated scf accuracy    <       0.03000412 Ry

     total magnetization       =    88.37 Bohr mag/cell
     absolute magnetization    =    89.59 Bohr mag/cell

     iteration # 54     ecut=    50.00 Ry     beta= 0.10
     Davidson diagonalization with overlap
     ethr =  2.75E-06,  avg # of iterations =  1.0

     negative rho (up, down):  5.407E-04 5.159E-04
 
     Adding external electric field

     Computed dipole along edir(3) : 
        Dipole               -0.0826 Ry au,         -0.2099 Debye
        Dipole field         -0.0001 Ry au, 
 
        Potential amp.        0.0056 Ry
        Total length         55.1515 bohr
 
 
     Adding external electric field

     Computed dipole along edir(3) : 
        Dipole               -0.0826 Ry au,         -0.2099 Debye
        Dipole field         -0.0001 Ry au, 
 
        Potential amp.        0.0056 Ry
        Total length         55.1515 bohr
 

     total cpu time spent up to now is      829.2 secs

     total energy              =   -7738.30387311 Ry
     estimated scf accuracy    <       0.03154198 Ry

     total magnetization       =    88.36 Bohr mag/cell
     absolute magnetization    =    89.61 Bohr mag/cell

     iteration # 55     ecut=    50.00 Ry     beta= 0.10
     Davidson diagonalization with overlap
     ethr =  2.75E-06,  avg # of iterations =  2.0

     negative rho (up, down):  5.269E-04 5.627E-04
 
     Adding external electric field

     Computed dipole along edir(3) : 
        Dipole               -0.1040 Ry au,         -0.2643 Debye
        Dipole field         -0.0001 Ry au, 
 
        Potential amp.        0.0070 Ry
        Total length         55.1515 bohr
 
 
     Adding external electric field

     Computed dipole along edir(3) : 
        Dipole               -0.1040 Ry au,         -0.2643 Debye
        Dipole field         -0.0001 Ry au, 
 
        Potential amp.        0.0070 Ry
        Total length         55.1515 bohr
 

     total cpu time spent up to now is      843.3 secs

     total energy              =   -7738.30316389 Ry
     estimated scf accuracy    <       0.02817652 Ry

     total magnetization       =    88.40 Bohr mag/cell
     absolute magnetization    =    89.58 Bohr mag/cell

     iteration # 56     ecut=    50.00 Ry     beta= 0.10
     Davidson diagonalization with overlap
     ethr =  2.58E-06,  avg # of iterations =  1.0

     negative rho (up, down):  5.843E-04 7.628E-04
 
     Adding external electric field

     Computed dipole along edir(3) : 
        Dipole               -0.0843 Ry au,         -0.2141 Debye
        Dipole field         -0.0001 Ry au, 
 
        Potential amp.        0.0057 Ry
        Total length         55.1515 bohr
 
 
     Adding external electric field

     Computed dipole along edir(3) : 
        Dipole               -0.0843 Ry au,         -0.2141 Debye
        Dipole field         -0.0001 Ry au, 
 
        Potential amp.        0.0057 Ry
        Total length         55.1515 bohr
 

     total cpu time spent up to now is      855.7 secs

     total energy              =   -7738.30251665 Ry
     estimated scf accuracy    <       0.02532753 Ry

     total magnetization       =    88.36 Bohr mag/cell
     absolute magnetization    =    89.48 Bohr mag/cell

     iteration # 57     ecut=    50.00 Ry     beta= 0.10
     Davidson diagonalization with overlap
     ethr =  2.32E-06,  avg # of iterations =  2.0

     negative rho (up, down):  2.777E-04 4.076E-04
 
     Adding external electric field

     Computed dipole along edir(3) : 
        Dipole                0.1717 Ry au,          0.4365 Debye
        Dipole field          0.0001 Ry au, 
 
        Potential amp.       -0.0116 Ry
        Total length         55.1515 bohr
 
 
     Adding external electric field

     Computed dipole along edir(3) : 
        Dipole                0.1717 Ry au,          0.4365 Debye
        Dipole field          0.0001 Ry au, 
 
        Potential amp.       -0.0116 Ry
        Total length         55.1515 bohr
 

     total cpu time spent up to now is      870.0 secs

     total energy              =   -7738.30107080 Ry
     estimated scf accuracy    <       0.02137399 Ry

     total magnetization       =    88.33 Bohr mag/cell
     absolute magnetization    =    89.43 Bohr mag/cell

     iteration # 58     ecut=    50.00 Ry     beta= 0.10
     Davidson diagonalization with overlap
     c_bands:  3 eigenvalues not converged
     c_bands:  1 eigenvalues not converged
     ethr =  1.96E-06,  avg # of iterations = 30.0

     negative rho (up, down):  6.756E-04 8.086E-04
 
     Adding external electric field

     Computed dipole along edir(3) : 
        Dipole                0.4162 Ry au,          1.0579 Debye
        Dipole field          0.0003 Ry au, 
 
[...]
    -5.9169  -5.8994  -5.8846  -5.8765  -5.8633  -5.8428  -5.8348  -5.8051
    -5.7780  -5.7719  -5.7323  -5.7219  -5.7054  -5.6772  -5.6684  -5.6490
    -5.6313  -5.5996  -5.5529  -5.5509  -5.5260  -5.4964  -5.4802  -5.4700
    -5.4658  -5.4343  -5.4282  -5.3999  -5.3827  -5.3669  -5.3537  -5.3249
    -5.2079  -5.1966  -5.1815  -5.1749  -5.1602  -5.1350  -5.0717  -5.0269
    -5.0097  -4.9902  -4.9474  -4.9196  -4.9087  -4.8905  -4.8577  -4.8141
    -4.7922  -4.7371  -4.7264  -4.7110  -4.6728  -4.6529  -4.6233  -4.5468
    -4.5438  -4.4697  -4.4591  -4.4007  -4.3940  -4.3759  -4.3355  -4.3278
    -4.3110  -4.2421  -4.1891  -4.1793  -4.1439  -4.1168  -4.0989  -4.0717
    -4.0635  -4.0395  -4.0374  -3.9657  -3.9198  -3.8992  -3.8892  -3.8484
    -3.8298  -3.8069  -3.7674  -3.7568  -3.7511  -3.7179  -3.6974  -3.6585
    -3.6335  -3.5860  -3.5837  -3.5783  -3.5573  -3.5375  -3.5349  -3.5153
    -3.5001  -3.4774  -3.4563  -3.4503  -3.4415  -3.4280  -3.4032  -3.3892
    -3.3612  -3.3568  -3.3415  -3.3125  -3.3049  -3.2670  -3.2521  -3.2061
    -3.2008  -3.1897  -3.1838  -3.1650  -3.1555  -3.1029  -3.0784  -3.0552
    -3.0328  -3.0136  -3.0088  -2.9987  -2.9956  -2.9835  -2.9667  -2.9286
    -2.9110  -2.8979  -2.8747  -2.8336  -2.8280  -2.8194  -2.7802  -2.7643
    -2.7418  -2.7287  -2.7127  -2.6996  -2.6961  -2.6761  -2.6623  -2.6531
    -2.6350  -2.6296  -2.6212  -2.6007  -2.5905  -2.5805  -2.5730  -2.5588
    -2.5417  -2.5286  -2.5136  -2.4922  -2.4747  -2.4699  -2.4461  -2.4361
    -2.4075  -2.3995  -2.3749  -2.3496  -2.3132  -2.2989  -2.2782  -2.2569
    -2.2454  -2.2305  -2.2087  -2.1686  -2.1556  -2.1365  -2.1251  -2.0999
    -2.0966  -2.0750  -2.0662  -2.0539  -2.0398  -2.0163  -1.9990  -1.9525
    -1.9384  -1.9101  -1.9052  -1.8975  -1.8860  -1.8759  -1.8442  -1.8201
    -1.8097  -1.7945  -1.7767  -1.7698  -1.7589  -1.7492  -1.7311  -1.7132
    -1.6895  -1.6612  -1.6468  -1.6060  -1.5977  -1.5804  -1.5598  -1.5418
    -1.5297  -1.4969  -1.4755  -1.4580  -1.4501  -1.4413  -1.4151  -1.3916
    -1.3839  -1.3733  -1.3520  -1.3431  -1.3181  -1.3026  -1.2479  -1.2432
    -1.2241  -1.2142  -1.1955  -1.1555  -1.1494  -1.0827  -1.0408  -1.0232
    -0.9793  -0.8748  -0.8577  -0.8173  -0.7502  -0.6838  -0.6804  -0.4488
    -0.2848  -0.2383  -0.2161  -0.1062   0.2164   0.2493   0.2713   0.2791
     0.2840   0.3007   0.3344   0.3437   0.3689   0.3803   0.3936   0.3992
     0.4058   0.4181   0.4278   0.4339   0.4421   0.4542   0.4612   0.4697
     0.4765   0.4873   0.4875   0.4960   0.5012   0.5117   0.5132   0.5246
     0.5409   0.5433   0.5529   0.5591   0.5644   0.5695   0.5725   0.5982
     0.6052   0.6076   0.6150   0.6189   0.6328   0.6456   0.6470   0.6490
     0.6648   0.6684   0.6716   0.6822   0.6842   0.7045   0.7085   0.7121
     0.7211   0.7267   0.7291   0.7390   0.7548   0.7686   0.7808   0.7835
     0.7919   0.7960   0.8053   0.8285   0.8326   0.8434   0.8472   0.8494
     0.8615   0.8647   0.8828   0.8980   0.9011   0.9067   0.9181   0.9221
     0.9304   0.9594   0.9694   0.9818   0.9844   0.9869   0.9905   1.0160
     1.0519   1.1298   1.1320   1.2307   1.2529   1.7025   1.7802   1.7879
     1.7934   1.8090   1.8198   1.8365   1.8467   1.8590   1.9424   1.9588
     1.9709   1.9910   2.0161   2.0399   2.0516   2.0805   2.0945   2.1460
     2.1550   2.1708   2.1818   2.2085   2.2221   2.2372   2.2519   2.2677
     2.2789   2.3019   2.3205   2.3367   2.3465   2.3601   2.3903   2.3984
     2.4109   2.4130   2.4603   2.4611   2.4907   2.5086   2.5157   2.5215
     2.5314   2.5387   2.5584   2.5694   2.5874   2.6197   2.6265   2.6446
     2.6660   2.6712   2.6832   2.7421   2.8095   2.8263   2.8838   2.8938
     2.8997   2.9410   3.5170   3.5524   3.6019   3.6332   3.7625   3.7911
     3.8770   3.8902   3.9013   3.9501   3.9633   4.0174   4.1008   4.1087
     4.1179   4.1408   4.1656   4.1708   4.1927   4.2068   4.6764   4.7952
     4.8474   4.8822   4.9506   4.9639   4.9991   5.0532   5.0615   5.1352
     5.1366   5.1945   5.4375   6.2999   6.3919   6.5285   6.6399   6.7343
     6.8146   6.8656   6.9194   6.9625   7.0014   7.0809   7.1483   7.2166
     7.2941   7.3583   7.4068   7.4195   7.4654   7.5042   7.6477   7.6880
     7.7262   7.7622   7.7739   7.8182   7.8616   7.9080   7.9265   7.9674
     8.0245   8.0594   8.0889   8.1166   8.1699   8.1893   8.2105   8.2437
     8.2777   8.3150   8.3693   8.3842   8.4233   8.4338   8.4443   8.4702
     8.4835   8.5106   8.5361   8.5527   8.5890   8.5972   8.6178   8.6710
     8.6932   8.7059   8.7241   8.7462   8.7678   8.8084   8.8364   8.8680

     the Fermi energy is     1.6931 ev

!    total energy              =   -7738.30221149 Ry
     estimated scf accuracy    <       0.00000057 Ry
     smearing contrib. (-TS)   =      -0.02507607 Ry
     internal energy E=F+TS    =   -7738.27713541 Ry

     The total energy is F=E-TS. E is the sum of the following terms:
     one-electron contribution =  -95040.82634277 Ry
     hartree contribution      =   48137.95709740 Ry
     xc contribution           =   -2218.73209302 Ry
     ewald contribution        =   41385.13282314 Ry
     Dispersion Correction     =      -1.80880090 Ry
     electric field correction =       0.00018075 Ry

     total magnetization       =    88.32 Bohr mag/cell
     absolute magnetization    =    89.69 Bohr mag/cell

     convergence has been achieved in  81 iterations

     negative rho (up, down):  1.048E-03 5.888E-04

     Forces acting on atoms (cartesian axes, Ry/au):

     atom    1 type  1   force =     0.02507721   -0.03089501    0.01830983
     atom    2 type  2   force =    -0.01381914   -0.00160498   -0.00973781
     atom    3 type  1   force =    -0.02312771   -0.01839960    0.01969519
     atom    4 type  1   force =     0.00575816    0.00414286   -0.00619069
     atom    5 type  1   force =    -0.00188926    0.00115495   -0.00520305
     atom    6 type  1   force =     0.00208799    0.00768215   -0.00898824
     atom    7 type  3   force =    -0.00774110    0.00116241   -0.01043433
     atom    8 type  3   force =    -0.03500242    0.05415635   -0.08330261
     atom    9 type  3   force =     0.03414469    0.03817212   -0.06429698
     atom   10 type  3   force =    -0.00304700   -0.00247040   -0.01160441
     atom   11 type  4   force =     0.00671025    0.00558176    0.01384468
     atom   12 type  4   force =    -0.00027725   -0.00289337    0.01491740
     atom   13 type  4   force =     0.00197445    0.00176196    0.01747864
     atom   14 type  4   force =    -0.00046823   -0.00131819    0.01268952
     atom   15 type  4   force =    -0.00067541    0.00456345   -0.00192737
     atom   16 type  4   force =    -0.00045027    0.00268071    0.04019549
     atom   17 type  4   force =     0.00173341    0.00815426    0.03769383
     atom   18 type  4   force =     0.00799315   -0.00447350   -0.00044028
     atom   19 type  4   force =     0.00049256    0.01195550    0.00429978
     atom   20 type  4   force =    -0.00959981   -0.02684806   -0.00369595
     atom   21 type  4   force =    -0.01118275   -0.00042917    0.00068729
     atom   22 type  4   force =    -0.03217615    0.00310911    0.00785467
     atom   23 type  4   force =     0.03214892    0.00057177    0.01408463
     atom   24 type  4   force =     0.00698256   -0.03702981    0.00377870
     atom   25 type  4   force =    -0.00317450    0.00180778    0.00398208
     atom   26 type  4   force =     0.01792356   -0.00686093    0.00082380
     atom   27 type  1   force =    -0.00524824   -0.00873621    0.00299474
     atom   28 type  2   force =    -0.01333514   -0.00007395    0.00519847
     atom   29 type  1   force =     0.00301305   -0.00513429   -0.00082940
     atom   30 type  1   force =     0.00250718    0.00493332   -0.00119424
     atom   31 type  1   force =     0.00175344   -0.00456335    0.00055573
     atom   32 type  1   force =    -0.00075421    0.00107190   -0.00153943
     atom   33 type  3   force =    -0.00624558   -0.00190831   -0.00265993
     atom   34 type  3   force =    -0.00801200    0.00261091   -0.00028324
     atom   35 type  3   force =     0.00447512   -0.00068906    0.00278056
     atom   36 type  3   force =     0.00092935   -0.00220678   -0.00386925
     atom   37 type  4   force =     0.00867216    0.00544629    0.00776996
     atom   38 type  4   force =     0.00380872   -0.00088972   -0.01925206
     atom   39 type  4   force =    -0.00158072    0.00359642   -0.00990831
     atom   40 type  4   force =    -0.00143097   -0.00247250    0.00919357
     atom   41 type  4   force =    -0.00140361    0.00344084   -0.00681893
     atom   42 type  4   force =    -0.00426900   -0.00456044    0.01803574
     atom   43 type  4   force =     0.00769723    0.00340594    0.00773098
     atom   44 type  4   force =     0.00986343   -0.00556509   -0.00583419
     atom   45 type  4   force =     0.00281353    0.00462364    0.00055510
     atom   46 type  4   force =     0.00229494   -0.00005034   -0.00556275
     atom   47 type  4   force =    -0.01278778   -0.00026114   -0.00367713
     atom   48 type  4   force =    -0.01460626    0.00127422    0.00344769
     atom   49 type  4   force =     0.01349394    0.00252813    0.00444345
     atom   50 type  4   force =    -0.00270535   -0.00488086   -0.00043752
     atom   51 type  4   force =    -0.00523286    0.00147873    0.00051308
     atom   52 type  4   force =     0.01525218   -0.00407629   -0.00446859
     atom   53 type  1   force =    -0.00002366   -0.00034308   -0.00029424
     atom   54 type  2   force =    -0.00014013   -0.00046997   -0.00040383
     atom   55 type  1   force =    -0.00002850   -0.00013029   -0.00049697
     atom   56 type  1   force =     0.00009784   -0.00016148   -0.00039095
     atom   57 type  1   force =    -0.00059250    0.00067327   -0.00004323
     atom   58 type  1   force =     0.00060720    0.00068997   -0.00052621
     atom   59 type  3   force =     0.00034719    0.00023293   -0.00037973
     atom   60 type  3   force =     0.00006979   -0.00004426    0.00022931
     atom   61 type  3   force =     0.00022440   -0.00022975    0.00001016
     atom   62 type  3   force =    -0.00065474   -0.00001326   -0.00005945
     atom   63 type  4   force =     0.00035526    0.00014107   -0.00016335
     atom   64 type  4   force =     0.00017858   -0.00005673    0.00048681
     atom   65 type  4   force =    -0.00024289   -0.00020756    0.00034630
     atom   66 type  4   force =     0.00000604    0.00009438    0.00056704
     atom   67 type  4   force =    -0.00007654   -0.00030933   -0.00022923
     atom   68 type  4   force =     0.00065368    0.00020678    0.00012711
     atom   69 type  4   force =    -0.00049061   -0.00031898    0.00021702
     atom   70 type  4   force =    -0.00001082   -0.00039900    0.00045096
     atom   71 type  4   force =    -0.00015533   -0.00046286   -0.00005741
     atom   72 type  4   force =    -0.00040541   -0.00026959   -0.00029094
     atom   73 type  4   force =     0.00013943    0.00030386    0.00015358
     atom   74 type  4   force =    -0.00009903   -0.00033085   -0.00053159
     atom   75 type  4   force =    -0.00013897   -0.00022681   -0.00025684
     atom   76 type  4   force =     0.00001282   -0.00006108   -0.00032452
     atom   77 type  4   force =     0.00012629   -0.00003859    0.00021320
     atom   78 type  4   force =     0.00013722    0.00010415   -0.00016532
     atom   79 type  1   force =     0.02504008   -0.03088901    0.01831094
     atom   80 type  2   force =    -0.01372847   -0.00158622   -0.00975672
     atom   81 type  1   force =    -0.02311050   -0.01839034    0.01970529
     atom   82 type  1   force =     0.00572164    0.00415040   -0.00618823
     atom   83 type  1   force =    -0.00189444    0.00116328   -0.00522044
     atom   84 type  1   force =     0.00203200    0.00767804   -0.00897689
     atom   85 type  3   force =    -0.00772475    0.00117721   -0.01044412
     atom   86 type  3   force =    -0.03499956    0.05415737   -0.08330514
     atom   87 type  3   force =     0.03415096    0.03817144   -0.06429925
     atom   88 type  3   force =    -0.00306096   -0.00247453   -0.01160690
     atom   89 type  4   force =     0.00682666    0.00558492    0.01385746
     atom   90 type  4   force =    -0.00019748   -0.00279872    0.01491706
     atom   91 type  4   force =     0.00206285    0.00175973    0.01745248
     atom   92 type  4   force =    -0.00030635   -0.00130990    0.01270159
     atom   93 type  4   force =    -0.00067482    0.00476919   -0.00181113
     atom   94 type  4   force =    -0.00051582    0.00263981    0.03998621
     atom   95 type  4   force =     0.00186475    0.00815618    0.03769245
     atom   96 type  4   force =     0.00778538   -0.00449422   -0.00044615
     atom   97 type  4   force =     0.00057082    0.01201856    0.00419048
     atom   98 type  4   force =    -0.00950047   -0.02668122   -0.00366464
     atom   99 type  4   force =    -0.01120959   -0.00039642    0.00088504
     atom  100 type  4   force =    -0.03220496    0.00300341    0.00773153
     atom  101 type  4   force =     0.03216959    0.00057686    0.01409513
     atom  102 type  4   force =     0.00679992   -0.03703311    0.00378202
     atom  103 type  4   force =    -0.00308534    0.00174852    0.00395490
     atom  104 type  4   force =     0.01802993   -0.00684914    0.00082491
     atom  105 type  1   force =    -0.00530030   -0.00874386    0.00308290
     atom  106 type  2   force =    -0.01410091   -0.00064579    0.00571188
     atom  107 type  1   force =     0.00302268   -0.00501800   -0.00078519
     atom  108 type  1   force =     0.00379777    0.00352793    0.00181795
     atom  109 type  1   force =     0.00135631   -0.00462400    0.00047596
     atom  110 type  1   force =    -0.00083505    0.00104014   -0.00152499
     atom  111 type  3   force =    -0.00636143   -0.00073796   -0.00037405
     atom  112 type  3   force =    -0.00798268    0.00258478   -0.00024355
     atom  113 type  3   force =     0.00436557   -0.00059175    0.00292429
     atom  114 type  3   force =     0.00092648   -0.00175848   -0.00497315
     atom  115 type  4   force =     0.00834024    0.00490152    0.00731178
     atom  116 type  4   force =     0.00383032   -0.00091292   -0.01926729
     atom  117 type  4   force =    -0.00140054    0.00364841   -0.00993144
     atom  118 type  4   force =    -0.00174643   -0.00241716    0.00922029
     atom  119 type  4   force =    -0.00029502    0.00318587   -0.00614899
     atom  120 type  4   force =    -0.00424802   -0.00461011    0.01808625
     atom  121 type  4   force =     0.00774157    0.00340777    0.00775548
     atom  122 type  4   force =     0.01017008   -0.00487965   -0.00772124
     atom  123 type  4   force =     0.00271806    0.00425858    0.00049485
     atom  124 type  4   force =     0.00222518   -0.00009884   -0.00556988
     atom  125 type  4   force =    -0.01269582   -0.00012438   -0.00356245
     atom  126 type  4   force =    -0.01462723    0.00127336    0.00338487
     atom  127 type  4   force =     0.01352401    0.00246133    0.00458604
     atom  128 type  4   force =    -0.00284016   -0.00490007   -0.00044590
     atom  129 type  4   force =    -0.00500684    0.00143039   -0.00009350
     atom  130 type  4   force =     0.01583211   -0.00427246   -0.00432552
     atom  131 type  1   force =    -0.00018692   -0.00016203   -0.00041750
     atom  132 type  2   force =     0.00017404   -0.00037407   -0.00033073
     atom  133 type  1   force =    -0.00066403    0.00012629   -0.00036881
     atom  134 type  1   force =     0.00127832   -0.00201139    0.00155138
     atom  135 type  1   force =    -0.00014311    0.00082157   -0.00072561
     atom  136 type  1   force =     0.00050372    0.00073030   -0.00015553
     atom  137 type  3   force =     0.00029499    0.00048559   -0.00030763
     atom  138 type  3   force =    -0.00030587    0.00037330    0.00027625
     atom  139 type  3   force =     0.00014187   -0.00037183    0.00021031
     atom  140 type  3   force =    -0.00034979   -0.00016383   -0.00023478
     atom  141 type  4   force =     0.00019704   -0.00025337    0.00034510
     atom  142 type  4   force =    -0.00037692    0.00036630    0.00036758
     atom  143 type  4   force =    -0.00031345   -0.00017482    0.00050676
     atom  144 type  4   force =    -0.00013636   -0.00028848    0.00008259
     atom  145 type  4   force =     0.00012008   -0.00042385   -0.00043655
     atom  146 type  4   force =     0.00068254   -0.00041976    0.00005769
     atom  147 type  4   force =     0.00003636    0.00003478    0.00039958
     atom  148 type  4   force =     0.00031648   -0.00061576   -0.00059664
     atom  149 type  4   force =    -0.00052954    0.00014222    0.00039856
     atom  150 type  4   force =    -0.00038079   -0.00040610   -0.00025997
     atom  151 type  4   force =    -0.00039595    0.00006095    0.00009572
     atom  152 type  4   force =     0.00016844   -0.00032368   -0.00049400
     atom  153 type  4   force =    -0.00054459   -0.00035866    0.00001518
     atom  154 type  4   force =     0.00047543    0.00005613   -0.00009164
     atom  155 type  4   force =     0.00005737    0.00029775   -0.00019389
     atom  156 type  4   force =     0.00019982    0.00020332   -0.00046774
     atom  157 type  4   force =     0.00629200    0.00753099   -0.00044482
     atom  158 type  5   force =    -0.00711733   -0.00626770   -0.00261973

     Total force =     0.262940     Total SCF correction =     0.003296
 
     init_run     :      8.09s CPU      8.69s WALL (       1 calls)
     electrons    :   1173.33s CPU   1224.86s WALL (       1 calls)
     forces       :      4.09s CPU      4.66s WALL (       1 calls)
     force_london :      0.09s CPU      0.09s WALL (       1 calls)

     Called by init_run:
     wfcinit      :      4.83s CPU      4.99s WALL (       1 calls)
     potinit      :      0.50s CPU      0.69s WALL (       1 calls)
     hinit0       :      1.47s CPU      1.56s WALL (       1 calls)

     Called by electrons:
     c_bands      :    919.54s CPU    946.75s WALL (      81 calls)
     sum_band     :    157.77s CPU    170.18s WALL (      81 calls)
     v_of_rho     :     19.32s CPU     22.37s WALL (      82 calls)
     newd         :     52.02s CPU     60.81s WALL (      82 calls)
     mix_rho      :     23.29s CPU     23.55s WALL (      81 calls)
     energy_londo :      0.08s CPU      0.08s WALL (       1 calls)

     Called by c_bands:
     init_us_2    :      2.20s CPU      2.25s WALL (     328 calls)
     init_us_2:cp :      2.19s CPU      2.25s WALL (     328 calls)
     regterg      :    901.71s CPU    928.72s WALL (     165 calls)

     Called by *egterg:
     rdiaghg      :    234.39s CPU    247.89s WALL (     659 calls)
     h_psi        :    341.17s CPU    347.89s WALL (     661 calls)
     s_psi        :     52.74s CPU     52.80s WALL (     661 calls)
     g_psi        :      0.38s CPU      0.38s WALL (     494 calls)

     Called by h_psi:
     h_psi:calbec :     90.29s CPU     95.66s WALL (     661 calls)
     vloc_psi     :    196.23s CPU    196.92s WALL (     661 calls)
     add_vuspsi   :     53.96s CPU     54.62s WALL (     661 calls)

     General routines
     calbec       :    132.27s CPU    140.42s WALL (     831 calls)
     fft          :     35.29s CPU     39.25s WALL (    1489 calls)
     ffts         :     13.50s CPU     13.52s WALL (   10085 calls)
     fftw         :    224.40s CPU    225.13s WALL (  277066 calls)
     interpolate  :      1.78s CPU      1.86s WALL (     164 calls)
 
     Parallel routines
 
     PWSCF        :  19m47.67s CPU  20m40.65s WALL

 
   This run was terminated on:  22:12: 8  17Nov2025            

=------------------------------------------------------------------------------=
   JOB DONE.
=------------------------------------------------------------------------------=
