
     Program PWSCF v.7.2 starts on 18Nov2025 at  0:58:56 

     This program is part of the open-source Quantum ESPRESSO suite
     for quantum simulation of materials; please cite
         "P. Giannozzi et al., J. Phys.:Condens. Matter 21 395502 (2009);
         "P. Giannozzi et al., J. Phys.:Condens. Matter 29 465901 (2017);
         "P. Giannozzi et al., J. Chem. Phys. 152 154105 (2020);
          URL http://www.quantum-espresso.org", 
     in publications or presentations arising from this work. More details at
     http://www.quantum-espresso.org/quote

     Parallel version (MPI), running on    64 processors

     MPI processes distributed on     4 nodes
     469759 MiB available memory on the printing compute node when the environment starts
 
     Reading input from PWINPUT_atm158_zp

     Current dimensions of program PWSCF are:
     Max number of different atomic species (ntypx) = 10
     Max number of k-points (npk) =  40000
     Max angular momentum in pseudopotentials (lmaxx) =  4
     Presently no symmetry can be used with electric field

     file Ni.pbe-n-rrkjus_psl.1.0.0.UPF: wavefunction(s)  3D renormalized
     file Mn.pbe-spn-rrkjus_psl.0.3.1.UPF: wavefunction(s)  3D renormalized
     file O.pbe-rrkjus.UPF: wavefunction(s)  2S renormalized
     file H.pbe-rrkjus.UPF: wavefunction(s)  1S renormalized

     gamma-point specific algorithms are used
 
     R & G space division:  proc/nbgrp/npool/nimage =      64
     Subspace diagonalization in iterative solution of the eigenvalue problem:
     one sub-group per band group will be used
     custom distributed-memory algorithm (size of sub-group:  7*  7 procs)

 
     Parallelization info
     --------------------
     sticks:   dense  smooth     PW     G-vecs:    dense   smooth      PW
     Min         207      82     20                60552    15302    1896
     Max         210      84     22                60574    15336    1950
     Sum       13325    5345   1333              3876045   980655  122653
 
     Using Slab Decomposition
 


     bravais-lattice index     =            0
     lattice parameter (alat)  =      17.4067  a.u.
     unit-cell volume          =   20529.8182 (a.u.)^3
     number of atoms/cell      =          158
     number of atomic types    =            5
     number of electrons       =      1093.00
     number of Kohn-Sham states=          656
     kinetic-energy cutoff     =      50.0000  Ry
     charge density cutoff     =     500.0000  Ry
     scf convergence threshold =      1.0E-06
     mixing beta               =       0.1000
     number of iterations used =            8  local-TF  mixing
     Exchange-correlation=  SLA  PW   PBE  PBE
                           (   1   4   3   4   0   0   0)

     celldm(1)=  17.406729  celldm(2)=   0.000000  celldm(3)=   0.000000
     celldm(4)=   0.000000  celldm(5)=   0.000000  celldm(6)=   0.000000

     crystal axes: (cart. coord. in units of alat)
               a(1) = (   1.000000   0.000000   0.000000 )  
               a(2) = (  -0.001404   1.105696   0.000000 )  
               a(3) = (   0.000000   0.000000   3.520448 )  

     reciprocal axes: (cart. coord. in units 2 pi/alat)
               b(1) = (  1.000000  0.001270  0.000000 )  
               b(2) = (  0.000000  0.904408  0.000000 )  
               b(3) = (  0.000000  0.000000  0.284055 )  


     PseudoPot. # 1 for Ni read from file:
     ~/PSEUDO/Ni.pbe-n-rrkjus_psl.1.0.0.UPF
     MD5 check sum: Not computed, couldn't open file
     Pseudo is Ultrasoft + core correction, Zval = 10.0
     Generated using "atomic" code by A. Dal Corso  v.5.1.2
     Using radial grid of 1195 points,  6 beta functions with: 
                l(1) =   0
                l(2) =   0
                l(3) =   1
                l(4) =   1
                l(5) =   2
                l(6) =   2
     Q(r) pseudized with 0 coefficients 


     PseudoPot. # 2 for Mn read from file:
     ~/PSEUDO/Mn.pbe-spn-rrkjus_psl.0.3.1.UPF
     MD5 check sum: Not computed, couldn't open file
     Pseudo is Ultrasoft + core correction, Zval = 15.0
     Generated using &quot;atomic&quot; code by A. Dal Corso  v.6.2.2
     Using radial grid of 1187 points,  6 beta functions with: 
                l(1) =   0
                l(2) =   0
                l(3) =   1
                l(4) =   1
                l(5) =   2
                l(6) =   2
     Q(r) pseudized with 0 coefficients 


     PseudoPot. # 3 for P  read from file:
     ~/PSEUDO/P.pbe-n-rrkjus_psl.1.0.0.UPF
     MD5 check sum: Not computed, couldn't open file
     Pseudo is Ultrasoft + core correction, Zval =  5.0
     Generated using "atomic" code by A. Dal Corso  v.5.1
     Using radial grid of 1147 points,  6 beta functions with: 
                l(1) =   0
                l(2) =   0
                l(3) =   1
                l(4) =   1
                l(5) =   2
                l(6) =   2
     Q(r) pseudized with 0 coefficients 


     PseudoPot. # 4 for O  read from file:
     ~/PSEUDO/O.pbe-rrkjus.UPF
     MD5 check sum: Not computed, couldn't open file
     Pseudo is Ultrasoft, Zval =  6.0
     Generated by new atomic code, or converted to UPF format
     Using radial grid of 1269 points,  4 beta functions with: 
                l(1) =   0
                l(2) =   0
                l(3) =   1
                l(4) =   1
     Q(r) pseudized with 0 coefficients 


     PseudoPot. # 5 for H  read from file:
     ~/PSEUDO/H.pbe-rrkjus.UPF
     MD5 check sum: Not computed, couldn't open file
     Pseudo is Ultrasoft, Zval =  1.0
     Generated by new atomic code, or converted to UPF format
     Using radial grid of 1061 points,  2 beta functions with: 
                l(1) =   0
                l(2) =   0
     Q(r) pseudized with 0 coefficients 


     atomic species   valence    mass     pseudopotential
     Ni               10.00    58.69300     Ni( 1.00)
     Mn               15.00    54.93800     Mn( 1.00)
     P                 5.00    30.97300     P ( 1.00)
     O                 6.00    15.99900     O ( 1.00)
     H                 1.00     1.00790     H ( 1.00)

     Starting magnetic structure 
     atomic species   magnetization
     Ni              1.000
     Mn              1.000
     P               1.000
     O               1.000
     H               0.000

     No symmetry found



   Cartesian axes

     site n.     atom                  positions (alat units)
         1        Ni     tau(   1) = (   0.2421002   0.8609138   0.1302181  )
         2        Mn     tau(   2) = (   0.4924481   0.7886602   0.4655392  )
         3        Ni     tau(   3) = (   0.0052341   0.3031820   0.1284544  )
         4        Ni     tau(   4) = (   0.2570603   0.2374878   0.4617901  )
         5        Ni     tau(   5) = (   0.4976584   1.1048203   0.2964410  )
         6        Ni     tau(   6) = (   0.2495781   0.5440308   0.2953805  )
         7        P      tau(   7) = (   0.2083492   0.9982113   0.4588145  )
         8        P      tau(   8) = (   0.4584476   0.6559264   0.1347090  )
         9        P      tau(   9) = (   0.2889394   0.1031966   0.1319347  )
        10        P      tau(  10) = (   0.0400379   0.4338094   0.4586283  )
        11        O      tau(  11) = (   0.1314218   0.9248062   0.3189972  )
        12        O      tau(  12) = (   0.3797244   0.7272031   0.2742874  )
        13        O      tau(  13) = (   0.3662315   0.1762062   0.2720888  )
        14        O      tau(  14) = (   0.1171240   0.3646150   0.3169340  )
        15        O      tau(  15) = (   0.1510364   0.9068326   0.5881934  )
        16        O      tau(  16) = (   0.3981989   0.7453439   0.0053495  )
        17        O      tau(  17) = (   0.3490561   0.1888693   0.0010856  )
        18        O      tau(  18) = (   0.0982395   0.3475583   0.5894443  )
        19        O      tau(  19) = (   0.0992163   0.5918099   0.4542505  )
        20        O      tau(  20) = (   0.3467441   1.0504690   0.1405000  )
        21        O      tau(  21) = (   0.3739183   0.4303319   0.4477971  )
        22        O      tau(  22) = (   0.1230967   0.1088895   0.1422960  )
        23        O      tau(  23) = (   0.1242901   0.6635968   0.1442928  )
        24        O      tau(  24) = (   0.4011802   0.4971632   0.1376281  )
        25        O      tau(  25) = (   0.1484006   0.0497464   0.4550965  )
        26        O      tau(  26) = (   0.3736100   0.9942556   0.4492158  )
        27        Ni     tau(  27) = (   0.2413539   0.8509941   0.7820408  )
        28        Mn     tau(  28) = (   0.4917018   0.7787406   1.1173619  )
        29        Ni     tau(  29) = (   0.0044877   0.2932623   0.7802771  )
        30        Ni     tau(  30) = (   0.2563139   0.2275682   1.1136128  )
        31        Ni     tau(  31) = (   0.4969120   1.0949007   0.9482637  )
        32        Ni     tau(  32) = (   0.2488318   0.5341111   0.9472032  )
        33        P      tau(  33) = (   0.2076029   0.9882917   1.1106372  )
        34        P      tau(  34) = (   0.4577012   0.6460068   0.7865316  )
        35        P      tau(  35) = (   0.2881931   0.0932770   0.7837574  )
        36        P      tau(  36) = (   0.0392916   0.4238898   1.1104509  )
        37        O      tau(  37) = (   0.1306755   0.9148866   0.9708199  )
        38        O      tau(  38) = (   0.3789780   0.7172835   0.9261101  )
        39        O      tau(  39) = (   0.3654852   0.1662865   0.9239115  )
        40        O      tau(  40) = (   0.1163776   0.3546954   0.9687567  )
        41        O      tau(  41) = (   0.1502901   0.8969129   1.2400160  )
        42        O      tau(  42) = (   0.3974525   0.7354243   0.6571722  )
        43        O      tau(  43) = (   0.3483097   0.1789497   0.6529083  )
        44        O      tau(  44) = (   0.0974932   0.3376387   1.2412670  )
        45        O      tau(  45) = (   0.0984699   0.5818903   1.1060732  )
        46        O      tau(  46) = (   0.3459978   1.0405493   0.7923226  )
        47        O      tau(  47) = (   0.3731719   0.4204123   1.0996198  )
        48        O      tau(  48) = (   0.1223503   0.0989699   0.7941187  )
        49        O      tau(  49) = (   0.1235438   0.6536772   0.7961155  )
        50        O      tau(  50) = (   0.4004339   0.4872435   0.7894508  )
        51        O      tau(  51) = (   0.1476543   0.0398268   1.1069192  )
        52        O      tau(  52) = (   0.3728637   0.9843360   1.1010385  )
        53        Ni     tau(  53) = (   0.2408392   0.8320559   1.4307548  )
        54        Mn     tau(  54) = (   0.4954146   0.7586327   1.7610775  )
        55        Ni     tau(  55) = (   0.0038240   0.2752655   1.4301830  )
        56        Ni     tau(  56) = (   0.2490297   0.2126224   1.7413163  )
        57        Ni     tau(  57) = (   0.5009698   1.0727426   1.5934065  )
        58        Ni     tau(  58) = (   0.2431858   0.5187785   1.5959132  )
        59        P      tau(  59) = (   0.2122300   0.9646931   1.7577827  )
        60        P      tau(  60) = (   0.4560273   0.6255665   1.4349308  )
        61        P      tau(  61) = (   0.2895010   0.0747953   1.4294223  )
        62        P      tau(  62) = (   0.0342753   0.4049908   1.7624825  )
        63        O      tau(  63) = (   0.1360342   0.9011422   1.6115162  )
        64        O      tau(  64) = (   0.3787980   0.6986865   1.5736904  )
        65        O      tau(  65) = (   0.3677510   0.1474149   1.5681507  )
        66        O      tau(  66) = (   0.1091522   0.3445019   1.6130708  )
        67        O      tau(  67) = (   0.1535140   0.8654492   1.8774963  )
        68        O      tau(  68) = (   0.3948076   0.7176264   1.3082772  )
        69        O      tau(  69) = (   0.3502162   0.1643066   1.3009305  )
        70        O      tau(  70) = (   0.0993202   0.3091187   1.8805971  )
        71        O      tau(  71) = (   0.0903777   0.5660296   1.7630811  )
        72        O      tau(  72) = (   0.3492636   1.0227954   1.4341724  )
        73        O      tau(  73) = (   0.3646020   0.4001049   1.7428273  )
        74        O      tau(  74) = (   0.1232632   0.0821777   1.4436547  )
        75        O      tau(  75) = (   0.1218485   0.6357099   1.4465986  )
        76        O      tau(  76) = (   0.3950879   0.4683338   1.4358038  )
        77        O      tau(  77) = (   0.1575600   0.0186245   1.7589158  )
        78        O      tau(  78) = (   0.3794955   0.9564473   1.7469906  )
        79        Ni     tau(  79) = (   0.7421002   0.8609138   0.1302181  )
        80        Mn     tau(  80) = (   0.9924481   0.7886602   0.4655392  )
        81        Ni     tau(  81) = (   0.5052341   0.3031820   0.1284544  )
        82        Ni     tau(  82) = (   0.7570603   0.2374878   0.4617901  )
        83        Ni     tau(  83) = (   0.9976584   1.1048203   0.2964410  )
        84        Ni     tau(  84) = (   0.7495781   0.5440308   0.2953805  )
        85        P      tau(  85) = (   0.7083492   0.9982113   0.4588145  )
        86        P      tau(  86) = (   0.9584476   0.6559264   0.1347090  )
        87        P      tau(  87) = (   0.7889394   0.1031966   0.1319347  )
        88        P      tau(  88) = (   0.5400379   0.4338094   0.4586283  )
        89        O      tau(  89) = (   0.6314218   0.9248062   0.3189972  )
        90        O      tau(  90) = (   0.8797244   0.7272031   0.2742874  )
        91        O      tau(  91) = (   0.8662315   0.1762062   0.2720888  )
        92        O      tau(  92) = (   0.6171240   0.3646150   0.3169340  )
        93        O      tau(  93) = (   0.6510364   0.9068326   0.5881934  )
        94        O      tau(  94) = (   0.8981989   0.7453439   0.0053495  )
        95        O      tau(  95) = (   0.8490561   0.1888693   0.0010856  )
        96        O      tau(  96) = (   0.5982395   0.3475583   0.5894443  )
        97        O      tau(  97) = (   0.5992163   0.5918099   0.4542505  )
        98        O      tau(  98) = (   0.8467441   1.0504690   0.1405000  )
        99        O      tau(  99) = (   0.8739183   0.4303319   0.4477971  )
       100        O      tau( 100) = (   0.6230967   0.1088895   0.1422960  )
       101        O      tau( 101) = (   0.6242901   0.6635968   0.1442928  )
       102        O      tau( 102) = (   0.9011802   0.4971632   0.1376281  )
       103        O      tau( 103) = (   0.6484006   0.0497464   0.4550965  )
       104        O      tau( 104) = (   0.8736100   0.9942556   0.4492158  )
       105        Ni     tau( 105) = (   0.7413539   0.8509941   0.7820408  )
       106        Mn     tau( 106) = (   0.9917018   0.7787406   1.1173619  )
       107        Ni     tau( 107) = (   0.5044877   0.2932623   0.7802771  )
       108        Ni     tau( 108) = (   0.7563139   0.2275682   1.1136128  )
       109        Ni     tau( 109) = (   0.9969120   1.0949007   0.9482637  )
       110        Ni     tau( 110) = (   0.7488318   0.5341111   0.9472032  )
       111        P      tau( 111) = (   0.7076029   0.9882917   1.1106372  )
       112        P      tau( 112) = (   0.9577012   0.6460068   0.7865316  )
       113        P      tau( 113) = (   0.7881931   0.0932770   0.7837574  )
       114        P      tau( 114) = (   0.5392916   0.4238898   1.1104509  )
       115        O      tau( 115) = (   0.6306755   0.9148866   0.9708199  )
       116        O      tau( 116) = (   0.8789780   0.7172835   0.9261101  )
       117        O      tau( 117) = (   0.8654852   0.1662865   0.9239115  )
       118        O      tau( 118) = (   0.6163776   0.3546954   0.9687567  )
       119        O      tau( 119) = (   0.6502901   0.8969129   1.2400160  )
       120        O      tau( 120) = (   0.8974525   0.7354243   0.6571722  )
       121        O      tau( 121) = (   0.8483097   0.1789497   0.6529083  )
       122        O      tau( 122) = (   0.5974932   0.3376387   1.2412670  )
       123        O      tau( 123) = (   0.5984699   0.5818903   1.1060732  )
       124        O      tau( 124) = (   0.8459978   1.0405493   0.7923226  )
       125        O      tau( 125) = (   0.8731719   0.4204123   1.0996198  )
       126        O      tau( 126) = (   0.6223503   0.0989699   0.7941187  )
       127        O      tau( 127) = (   0.6235438   0.6536772   0.7961155  )
       128        O      tau( 128) = (   0.9004339   0.4872435   0.7894508  )
       129        O      tau( 129) = (   0.6476543   0.0398268   1.1069192  )
       130        O      tau( 130) = (   0.8728637   0.9843360   1.1010385  )
       131        Ni     tau( 131) = (   0.7412940   0.8317433   1.4310133  )
       132        Mn     tau( 132) = (   0.9942976   0.7631104   1.7617718  )
       133        Ni     tau( 133) = (   0.5047574   0.2752797   1.4288709  )
       134        Ni     tau( 134) = (   0.7578350   0.2028549   1.7762646  )
       135        Ni     tau( 135) = (   0.9991757   1.0753039   1.5972728  )
       136        Ni     tau( 136) = (   0.7442600   0.5152897   1.5986856  )
       137        P      tau( 137) = (   0.7103622   0.9612778   1.7571285  )
       138        P      tau( 138) = (   0.9553703   0.6259627   1.4358934  )
       139        P      tau( 139) = (   0.7893263   0.0766982   1.4325513  )
       140        P      tau( 140) = (   0.5325678   0.3983667   1.7561030  )
       141        O      tau( 141) = (   0.6347348   0.8960507   1.6104236  )
       142        O      tau( 142) = (   0.8786872   0.6982692   1.5748233  )
       143        O      tau( 143) = (   0.8656120   0.1503721   1.5709854  )
       144        O      tau( 144) = (   0.6103215   0.3431354   1.6091064  )
       145        O      tau( 145) = (   0.6551320   0.8592875   1.8763947  )
       146        O      tau( 146) = (   0.8944353   0.7174045   1.3087138  )
       147        O      tau( 147) = (   0.8496681   0.1651992   1.3026615  )
       148        O      tau( 148) = (   0.5874463   0.2980729   1.8752625  )
       149        O      tau( 149) = (   0.5882302   0.5598447   1.7638488  )
       150        O      tau( 150) = (   0.8489894   1.0242576   1.4369886  )
       151        O      tau( 151) = (   0.8668845   0.4032412   1.7522286  )
       152        O      tau( 152) = (   0.6225444   0.0814235   1.4420664  )
       153        O      tau( 153) = (   0.6223363   0.6337860   1.4464754  )
       154        O      tau( 154) = (   0.8959961   0.4681766   1.4379317  )
       155        O      tau( 155) = (   0.6491461   0.0122190   1.7550753  )
       156        O      tau( 156) = (   0.8775761   0.9554460   1.7441695  )
       157        O      tau( 157) = (   0.8703181   0.1184006   1.9156559  )
       158        H      tau( 158) = (   0.9557521   0.1787018   1.9414789  )

     -------------------------------------------------
     Parameters for Dispersion (Grimme-D2) Correction:
     -------------------------------------------------
       atom      VdW radius       C_6     

        Ni         2.952        374.666
        Mn         2.952        374.666
        P          3.222        271.980
        O          2.536         24.284
        H          1.892          4.857

     number of k points=     1  Gaussian smearing, width (Ry)=  0.0100
                       cart. coord. in units 2pi/alat
        k(    1) = (   0.0000000   0.0000000   0.0000000), wk =   1.0000000

     Dense  grid:  1938023 G-vectors     FFT dimensions: ( 125, 144, 450)

     Smooth grid:   490328 G-vectors     FFT dimensions: (  80,  90, 288)

     Estimated max dynamical RAM per process >     326.29 MB

     Estimated total dynamical RAM >      20.39 GB

     Check: negative core charge=   -0.000001
     Generating pointlists ...
     new r_m :   0.0817 (alat units)  1.4219 (a.u.) for type    1
     new r_m :   0.0904 (alat units)  1.5743 (a.u.) for type    2
     new r_m :   0.0681 (alat units)  1.1857 (a.u.) for type    3
     new r_m :   0.0444 (alat units)  0.7734 (a.u.) for type    4
     new r_m :   0.0444 (alat units)  0.7734 (a.u.) for type    5

     Initial potential from superposition of free atoms

     starting charge    1092.8893, renormalised to    1093.0000

     negative rho (up, down):  1.374E-03 4.554E-04
 
     Adding external electric field

     Computed dipole along edir(3) : 
        Dipole                1.6502 Ry au,          4.1944 Debye
        Dipole field          0.0010 Ry au, 
 
        Potential amp.       -0.1114 Ry
        Total length         55.1515 bohr
 
 
     Adding external electric field

     Computed dipole along edir(3) : 
        Dipole                1.6502 Ry au,          4.1944 Debye
        Dipole field          0.0010 Ry au, 
 
        Potential amp.       -0.1114 Ry
        Total length         55.1515 bohr
 
     Starting wfcs are  815 randomized atomic wfcs

     total cpu time spent up to now is       11.0 secs

     Self-consistent Calculation

     iteration #  1     ecut=    50.00 Ry     beta= 0.10
     Davidson diagonalization with overlap
     ethr =  1.00E-02,  avg # of iterations =  6.0

     negative rho (up, down):  4.075E-01 3.168E-06
 
     Adding external electric field

     Computed dipole along edir(3) : 
        Dipole               -3.0616 Ry au,         -7.7818 Debye
        Dipole field         -0.0019 Ry au, 
 
        Potential amp.        0.2067 Ry
        Total length         55.1515 bohr
 
 
     Adding external electric field

     Computed dipole along edir(3) : 
        Dipole               -3.0616 Ry au,         -7.7818 Debye
        Dipole field         -0.0019 Ry au, 
 
        Potential amp.        0.2067 Ry
        Total length         55.1515 bohr
 

     total cpu time spent up to now is       41.4 secs

     total energy              =   -7520.70118426 Ry
     estimated scf accuracy    <     751.76474623 Ry

     total magnetization       =   219.00 Bohr mag/cell
     absolute magnetization    =   307.85 Bohr mag/cell

     iteration #  2     ecut=    50.00 Ry     beta= 0.10
     Davidson diagonalization with overlap
     ethr =  1.00E-02,  avg # of iterations =  2.0

     negative rho (up, down):  3.688E-01 2.081E-06
 
     Adding external electric field

     Computed dipole along edir(3) : 
        Dipole               -2.3867 Ry au,         -6.0664 Debye
        Dipole field         -0.0015 Ry au, 
 
        Potential amp.        0.1611 Ry
        Total length         55.1515 bohr
 
 
     Adding external electric field

     Computed dipole along edir(3) : 
        Dipole               -2.3867 Ry au,         -6.0664 Debye
        Dipole field         -0.0015 Ry au, 
 
        Potential amp.        0.1611 Ry
        Total length         55.1515 bohr
 

     total cpu time spent up to now is       58.5 secs

     total energy              =   -7604.86080719 Ry
     estimated scf accuracy    <     145.00257098 Ry

     total magnetization       =   150.80 Bohr mag/cell
     absolute magnetization    =   201.53 Bohr mag/cell

     iteration #  3     ecut=    50.00 Ry     beta= 0.10
     Davidson diagonalization with overlap
     ethr =  1.00E-02,  avg # of iterations =  1.5

     negative rho (up, down):  3.170E-01 2.162E-06
 
     Adding external electric field

     Computed dipole along edir(3) : 
        Dipole               -1.9464 Ry au,         -4.9472 Debye
        Dipole field         -0.0012 Ry au, 
 
        Potential amp.        0.1314 Ry
        Total length         55.1515 bohr
 
 
     Adding external electric field

     Computed dipole along edir(3) : 
        Dipole               -1.9464 Ry au,         -4.9472 Debye
        Dipole field         -0.0012 Ry au, 
 
        Potential amp.        0.1314 Ry
        Total length         55.1515 bohr
 

     total cpu time spent up to now is       72.1 secs

     total energy              =   -7639.02104382 Ry
     estimated scf accuracy    <      99.47789782 Ry

     total magnetization       =   129.63 Bohr mag/cell
     absolute magnetization    =   181.31 Bohr mag/cell

     iteration #  4     ecut=    50.00 Ry     beta= 0.10
     Davidson diagonalization with overlap
     ethr =  9.10E-03,  avg # of iterations =  1.0

     negative rho (up, down):  2.473E-01 5.727E-07
 
     Adding external electric field

     Computed dipole along edir(3) : 
        Dipole               -1.9285 Ry au,         -4.9017 Debye
        Dipole field         -0.0012 Ry au, 
 
        Potential amp.        0.1302 Ry
        Total length         55.1515 bohr
 
 
     Adding external electric field

     Computed dipole along edir(3) : 
        Dipole               -1.9285 Ry au,         -4.9017 Debye
        Dipole field         -0.0012 Ry au, 
 
        Potential amp.        0.1302 Ry
        Total length         55.1515 bohr
 

     total cpu time spent up to now is       85.2 secs

     total energy              =   -7668.65773241 Ry
     estimated scf accuracy    <      78.19702352 Ry

     total magnetization       =   111.28 Bohr mag/cell
     absolute magnetization    =   166.02 Bohr mag/cell

     iteration #  5     ecut=    50.00 Ry     beta= 0.10
     Davidson diagonalization with overlap
     ethr =  7.15E-03,  avg # of iterations =  1.0

     negative rho (up, down):  4.718E-03 3.648E-07
 
     Adding external electric field

     Computed dipole along edir(3) : 
        Dipole               -1.2541 Ry au,         -3.1875 Debye
        Dipole field         -0.0008 Ry au, 
 
        Potential amp.        0.0847 Ry
        Total length         55.1515 bohr
 
 
     Adding external electric field

     Computed dipole along edir(3) : 
        Dipole               -1.2541 Ry au,         -3.1875 Debye
        Dipole field         -0.0008 Ry au, 
 
        Potential amp.        0.0847 Ry
        Total length         55.1515 bohr
 

     total cpu time spent up to now is       98.2 secs

     total energy              =   -7729.85102993 Ry
     estimated scf accuracy    <      61.58052201 Ry

     total magnetization       =    97.00 Bohr mag/cell
     absolute magnetization    =   150.44 Bohr mag/cell

     iteration #  6     ecut=    50.00 Ry     beta= 0.10
     Davidson diagonalization with overlap
     ethr =  5.63E-03,  avg # of iterations =  1.5

     negative rho (up, down):  4.065E-04 5.578E-04
 
     Adding external electric field

     Computed dipole along edir(3) : 
        Dipole               -0.8202 Ry au,         -2.0846 Debye
        Dipole field         -0.0005 Ry au, 
 
        Potential amp.        0.0554 Ry
        Total length         55.1515 bohr
 
 
     Adding external electric field

     Computed dipole along edir(3) : 
        Dipole               -0.8202 Ry au,         -2.0846 Debye
        Dipole field         -0.0005 Ry au, 
 
        Potential amp.        0.0554 Ry
        Total length         55.1515 bohr
 

     total cpu time spent up to now is      111.7 secs

     total energy              =   -7736.69520281 Ry
     estimated scf accuracy    <      11.77010607 Ry

     total magnetization       =    83.36 Bohr mag/cell
     absolute magnetization    =   112.23 Bohr mag/cell

     iteration #  7     ecut=    50.00 Ry     beta= 0.10
     Davidson diagonalization with overlap
     ethr =  1.08E-03,  avg # of iterations =  6.0

     negative rho (up, down):  2.737E-04 4.400E-04
 
     Adding external electric field

     Computed dipole along edir(3) : 
        Dipole               -0.9852 Ry au,         -2.5041 Debye
        Dipole field         -0.0006 Ry au, 
 
        Potential amp.        0.0665 Ry
        Total length         55.1515 bohr
 
 
     Adding external electric field

     Computed dipole along edir(3) : 
        Dipole               -0.9852 Ry au,         -2.5041 Debye
        Dipole field         -0.0006 Ry au, 
 
        Potential amp.        0.0665 Ry
        Total length         55.1515 bohr
 

     total cpu time spent up to now is      134.3 secs

     total energy              =   -7738.35874321 Ry
     estimated scf accuracy    <      19.35967243 Ry

     total magnetization       =    71.01 Bohr mag/cell
     absolute magnetization    =    89.30 Bohr mag/cell

     iteration #  8     ecut=    50.00 Ry     beta= 0.10
     Davidson diagonalization with overlap
     ethr =  1.08E-03,  avg # of iterations =  1.0

     negative rho (up, down):  3.402E-04 7.541E-04
 
     Adding external electric field

     Computed dipole along edir(3) : 
        Dipole               -0.6801 Ry au,         -1.7287 Debye
        Dipole field         -0.0004 Ry au, 
 
        Potential amp.        0.0459 Ry
        Total length         55.1515 bohr
 
 
     Adding external electric field

     Computed dipole along edir(3) : 
        Dipole               -0.6801 Ry au,         -1.7287 Debye
        Dipole field         -0.0004 Ry au, 
 
        Potential amp.        0.0459 Ry
        Total length         55.1515 bohr
 

     total cpu time spent up to now is      147.3 secs

     total energy              =   -7737.58993585 Ry
     estimated scf accuracy    <      32.85237772 Ry

     total magnetization       =    68.18 Bohr mag/cell
     absolute magnetization    =    86.68 Bohr mag/cell

     iteration #  9     ecut=    50.00 Ry     beta= 0.10
     Davidson diagonalization with overlap
     ethr =  1.08E-03,  avg # of iterations =  1.0

     negative rho (up, down):  4.189E-04 7.844E-04
 
     Adding external electric field

     Computed dipole along edir(3) : 
        Dipole               -0.5346 Ry au,         -1.3587 Debye
        Dipole field         -0.0003 Ry au, 
 
        Potential amp.        0.0361 Ry
        Total length         55.1515 bohr
 
 
     Adding external electric field

     Computed dipole along edir(3) : 
        Dipole               -0.5346 Ry au,         -1.3587 Debye
        Dipole field         -0.0003 Ry au, 
 
        Potential amp.        0.0361 Ry
        Total length         55.1515 bohr
 

     total cpu time spent up to now is      160.4 secs

     total energy              =   -7737.63406120 Ry
     estimated scf accuracy    <       9.04217209 Ry

     total magnetization       =    76.36 Bohr mag/cell
     absolute magnetization    =    91.53 Bohr mag/cell

     iteration # 10     ecut=    50.00 Ry     beta= 0.10
     Davidson diagonalization with overlap
     ethr =  8.27E-04,  avg # of iterations =  1.0

     negative rho (up, down):  2.182E-04 5.792E-04
 
     Adding external electric field

     Computed dipole along edir(3) : 
        Dipole               -0.5650 Ry au,         -1.4362 Debye
        Dipole field         -0.0003 Ry au, 
 
        Potential amp.        0.0381 Ry
        Total length         55.1515 bohr
 
 
     Adding external electric field

     Computed dipole along edir(3) : 
        Dipole               -0.5650 Ry au,         -1.4362 Debye
        Dipole field         -0.0003 Ry au, 
 
        Potential amp.        0.0381 Ry
        Total length         55.1515 bohr
 

     total cpu time spent up to now is      173.2 secs

     total energy              =   -7737.84262374 Ry
     estimated scf accuracy    <       1.36550024 Ry

     total magnetization       =    87.69 Bohr mag/cell
     absolute magnetization    =   100.04 Bohr mag/cell

     iteration # 11     ecut=    50.00 Ry     beta= 0.10
     Davidson diagonalization with overlap
     c_bands:  2 eigenvalues not converged
     ethr =  1.25E-04,  avg # of iterations = 11.0

     negative rho (up, down):  2.023E-05 1.430E-04
 
     Adding external electric field

     Computed dipole along edir(3) : 
        Dipole               -0.6014 Ry au,         -1.5286 Debye
        Dipole field         -0.0004 Ry au, 
 
        Potential amp.        0.0406 Ry
        Total length         55.1515 bohr
 
 
     Adding external electric field

     Computed dipole along edir(3) : 
        Dipole               -0.6014 Ry au,         -1.5286 Debye
        Dipole field         -0.0004 Ry au, 
 
        Potential amp.        0.0406 Ry
        Total length         55.1515 bohr
 

     total cpu time spent up to now is      193.1 secs

     total energy              =   -7737.98340842 Ry
     estimated scf accuracy    <       1.16286110 Ry

     total magnetization       =    86.20 Bohr mag/cell
     absolute magnetization    =    97.68 Bohr mag/cell

     iteration # 12     ecut=    50.00 Ry     beta= 0.10
     Davidson diagonalization with overlap
     ethr =  1.06E-04,  avg # of iterations = 11.5

     negative rho (up, down):  1.306E-05 1.227E-04
 
     Adding external electric field

     Computed dipole along edir(3) : 
        Dipole               -0.5450 Ry au,         -1.3852 Debye
        Dipole field         -0.0003 Ry au, 
 
        Potential amp.        0.0368 Ry
        Total length         55.1515 bohr
 
 
     Adding external electric field

     Computed dipole along edir(3) : 
        Dipole               -0.5450 Ry au,         -1.3852 Debye
        Dipole field         -0.0003 Ry au, 
 
        Potential amp.        0.0368 Ry
        Total length         55.1515 bohr
 

     total cpu time spent up to now is      216.9 secs

     total energy              =   -7738.03557029 Ry
     estimated scf accuracy    <       2.33871538 Ry

     total magnetization       =    83.27 Bohr mag/cell
     absolute magnetization    =    92.44 Bohr mag/cell

     iteration # 13     ecut=    50.00 Ry     beta= 0.10
     Davidson diagonalization with overlap
     ethr =  1.06E-04,  avg # of iterations =  1.5

     negative rho (up, down):  1.563E-05 1.596E-04
 
     Adding external electric field

     Computed dipole along edir(3) : 
        Dipole               -0.5270 Ry au,         -1.3394 Debye
        Dipole field         -0.0003 Ry au, 
 
        Potential amp.        0.0356 Ry
        Total length         55.1515 bohr
 
 
     Adding external electric field

     Computed dipole along edir(3) : 
        Dipole               -0.5270 Ry au,         -1.3394 Debye
        Dipole field         -0.0003 Ry au, 
 
        Potential amp.        0.0356 Ry
        Total length         55.1515 bohr
 

     total cpu time spent up to now is      230.1 secs

     total energy              =   -7738.15656187 Ry
     estimated scf accuracy    <       0.57884629 Ry

     total magnetization       =    86.98 Bohr mag/cell
     absolute magnetization    =    94.72 Bohr mag/cell

     iteration # 14     ecut=    50.00 Ry     beta= 0.10
     Davidson diagonalization with overlap
     ethr =  5.30E-05,  avg # of iterations =  2.0

     negative rho (up, down):  7.863E-04 1.116E-03
 
     Adding external electric field

     Computed dipole along edir(3) : 
        Dipole               -0.4724 Ry au,         -1.2006 Debye
        Dipole field         -0.0003 Ry au, 
 
        Potential amp.        0.0319 Ry
        Total length         55.1515 bohr
 
 
     Adding external electric field

     Computed dipole along edir(3) : 
        Dipole               -0.4724 Ry au,         -1.2006 Debye
        Dipole field         -0.0003 Ry au, 
 
        Potential amp.        0.0319 Ry
        Total length         55.1515 bohr
 

     total cpu time spent up to now is      244.3 secs

     total energy              =   -7738.25932046 Ry
     estimated scf accuracy    <       0.40235999 Ry

     total magnetization       =    87.60 Bohr mag/cell
     absolute magnetization    =    93.59 Bohr mag/cell

     iteration # 15     ecut=    50.00 Ry     beta= 0.10
     Davidson diagonalization with overlap
     ethr =  3.68E-05,  avg # of iterations =  7.5

     negative rho (up, down):  7.660E-04 1.262E-03
 
     Adding external electric field

     Computed dipole along edir(3) : 
        Dipole               -0.4549 Ry au,         -1.1563 Debye
        Dipole field         -0.0003 Ry au, 
 
        Potential amp.        0.0307 Ry
        Total length         55.1515 bohr
 
 
     Adding external electric field

     Computed dipole along edir(3) : 
        Dipole               -0.4549 Ry au,         -1.1563 Debye
        Dipole field         -0.0003 Ry au, 
 
        Potential amp.        0.0307 Ry
        Total length         55.1515 bohr
 

     total cpu time spent up to now is      262.2 secs

     total energy              =   -7738.29727457 Ry
     estimated scf accuracy    <       0.28299945 Ry

     total magnetization       =    87.90 Bohr mag/cell
     absolute magnetization    =    90.79 Bohr mag/cell

     iteration # 16     ecut=    50.00 Ry     beta= 0.10
     Davidson diagonalization with overlap
     ethr =  2.59E-05,  avg # of iterations =  2.0

     negative rho (up, down):  2.771E-04 1.262E-03
 
     Adding external electric field

     Computed dipole along edir(3) : 
        Dipole               -0.3778 Ry au,         -0.9603 Debye
        Dipole field         -0.0002 Ry au, 
 
        Potential amp.        0.0255 Ry
        Total length         55.1515 bohr
 
 
     Adding external electric field

     Computed dipole along edir(3) : 
        Dipole               -0.3778 Ry au,         -0.9603 Debye
        Dipole field         -0.0002 Ry au, 
 
        Potential amp.        0.0255 Ry
        Total length         55.1515 bohr
 

     total cpu time spent up to now is      276.6 secs

     total energy              =   -7738.28122219 Ry
     estimated scf accuracy    <       0.28994799 Ry

     total magnetization       =    87.57 Bohr mag/cell
     absolute magnetization    =    90.07 Bohr mag/cell

     iteration # 17     ecut=    50.00 Ry     beta= 0.10
     Davidson diagonalization with overlap
     ethr =  2.59E-05,  avg # of iterations = 12.5

     negative rho (up, down):  3.511E-04 1.322E-03
 
     Adding external electric field

     Computed dipole along edir(3) : 
        Dipole               -0.3921 Ry au,         -0.9966 Debye
        Dipole field         -0.0002 Ry au, 
 
        Potential amp.        0.0265 Ry
        Total length         55.1515 bohr
 
 
     Adding external electric field

     Computed dipole along edir(3) : 
        Dipole               -0.3921 Ry au,         -0.9966 Debye
        Dipole field         -0.0002 Ry au, 
 
        Potential amp.        0.0265 Ry
        Total length         55.1515 bohr
 

     total cpu time spent up to now is      302.6 secs

     total energy              =   -7738.28915087 Ry
     estimated scf accuracy    <       0.19116267 Ry

     total magnetization       =    86.99 Bohr mag/cell
     absolute magnetization    =    88.90 Bohr mag/cell

     iteration # 18     ecut=    50.00 Ry     beta= 0.10
     Davidson diagonalization with overlap
     ethr =  1.75E-05,  avg # of iterations =  2.0

     negative rho (up, down):  4.756E-05 4.127E-04
 
     Adding external electric field

     Computed dipole along edir(3) : 
        Dipole               -0.3121 Ry au,         -0.7932 Debye
        Dipole field         -0.0002 Ry au, 
 
        Potential amp.        0.0211 Ry
        Total length         55.1515 bohr
 
 
     Adding external electric field

     Computed dipole along edir(3) : 
        Dipole               -0.3121 Ry au,         -0.7932 Debye
        Dipole field         -0.0002 Ry au, 
 
        Potential amp.        0.0211 Ry
        Total length         55.1515 bohr
 

     total cpu time spent up to now is      317.0 secs

     total energy              =   -7738.29956407 Ry
     estimated scf accuracy    <       0.21502106 Ry

     total magnetization       =    86.91 Bohr mag/cell
     absolute magnetization    =    88.81 Bohr mag/cell

     iteration # 19     ecut=    50.00 Ry     beta= 0.10
     Davidson diagonalization with overlap
     ethr =  1.75E-05,  avg # of iterations = 12.0

     negative rho (up, down):  1.454E-06 3.187E-05
 
     Adding external electric field

     Computed dipole along edir(3) : 
        Dipole               -0.1317 Ry au,         -0.3349 Debye
        Dipole field         -0.0001 Ry au, 
 
        Potential amp.        0.0089 Ry
        Total length         55.1515 bohr
 
 
     Adding external electric field

     Computed dipole along edir(3) : 
        Dipole               -0.1317 Ry au,         -0.3349 Debye
        Dipole field         -0.0001 Ry au, 
 
        Potential amp.        0.0089 Ry
        Total length         55.1515 bohr
 

     total cpu time spent up to now is      341.0 secs

     total energy              =   -7738.29178143 Ry
     estimated scf accuracy    <       0.20033037 Ry

     total magnetization       =    87.30 Bohr mag/cell
     absolute magnetization    =    88.99 Bohr mag/cell

     iteration # 20     ecut=    50.00 Ry     beta= 0.10
     Davidson diagonalization with overlap
     ethr =  1.75E-05,  avg # of iterations =  3.5

     negative rho (up, down):  1.402E-06 3.302E-05
 
     Adding external electric field

     Computed dipole along edir(3) : 
        Dipole               -0.1267 Ry au,         -0.3221 Debye
        Dipole field         -0.0001 Ry au, 
 
        Potential amp.        0.0086 Ry
        Total length         55.1515 bohr
 
 
     Adding external electric field

     Computed dipole along edir(3) : 
        Dipole               -0.1267 Ry au,         -0.3221 Debye
        Dipole field         -0.0001 Ry au, 
 
        Potential amp.        0.0086 Ry
        Total length         55.1515 bohr
 

     total cpu time spent up to now is      355.5 secs

     total energy              =   -7738.29758364 Ry
     estimated scf accuracy    <       0.10432252 Ry

     total magnetization       =    87.44 Bohr mag/cell
     absolute magnetization    =    88.81 Bohr mag/cell

     iteration # 21     ecut=    50.00 Ry     beta= 0.10
     Davidson diagonalization with overlap
     ethr =  9.54E-06,  avg # of iterations =  2.0

     negative rho (up, down):  1.327E-06 1.971E-05
 
     Adding external electric field

     Computed dipole along edir(3) : 
        Dipole               -0.0742 Ry au,         -0.1885 Debye
        Dipole field         -0.0000 Ry au, 
 
        Potential amp.        0.0050 Ry
        Total length         55.1515 bohr
 
 
     Adding external electric field

     Computed dipole along edir(3) : 
        Dipole               -0.0742 Ry au,         -0.1885 Debye
        Dipole field         -0.0000 Ry au, 
 
        Potential amp.        0.0050 Ry
        Total length         55.1515 bohr
 

     total cpu time spent up to now is      369.4 secs

     total energy              =   -7738.29901151 Ry
     estimated scf accuracy    <       0.10141548 Ry

     total magnetization       =    87.44 Bohr mag/cell
     absolute magnetization    =    88.80 Bohr mag/cell

     iteration # 22     ecut=    50.00 Ry     beta= 0.10
     Davidson diagonalization with overlap
     ethr =  9.28E-06,  avg # of iterations = 37.0

     negative rho (up, down):  1.686E-06 1.130E-05
 
     Adding external electric field

     Computed dipole along edir(3) : 
        Dipole               -0.0978 Ry au,         -0.2487 Debye
        Dipole field         -0.0001 Ry au, 
 
        Potential amp.        0.0066 Ry
        Total length         55.1515 bohr
 
 
     Adding external electric field

     Computed dipole along edir(3) : 
        Dipole               -0.0978 Ry au,         -0.2487 Debye
        Dipole field         -0.0001 Ry au, 
 
        Potential amp.        0.0066 Ry
        Total length         55.1515 bohr
 

     total cpu time spent up to now is      415.3 secs

     total energy              =   -7738.30235368 Ry
     estimated scf accuracy    <       0.09835069 Ry

     total magnetization       =    87.72 Bohr mag/cell
     absolute magnetization    =    89.07 Bohr mag/cell

     iteration # 23     ecut=    50.00 Ry     beta= 0.10
     Davidson diagonalization with overlap
     ethr =  9.00E-06,  avg # of iterations =  2.0

     negative rho (up, down):  5.084E-06 1.539E-05
 
     Adding external electric field

     Computed dipole along edir(3) : 
        Dipole               -0.2255 Ry au,         -0.5732 Debye
        Dipole field         -0.0001 Ry au, 
 
        Potential amp.        0.0152 Ry
        Total length         55.1515 bohr
 
 
     Adding external electric field

     Computed dipole along edir(3) : 
        Dipole               -0.2255 Ry au,         -0.5732 Debye
        Dipole field         -0.0001 Ry au, 
 
        Potential amp.        0.0152 Ry
        Total length         55.1515 bohr
 

     total cpu time spent up to now is      429.8 secs

     total energy              =   -7738.30576930 Ry
     estimated scf accuracy    <       0.08810290 Ry

     total magnetization       =    88.05 Bohr mag/cell
     absolute magnetization    =    89.48 Bohr mag/cell

     iteration # 24     ecut=    50.00 Ry     beta= 0.10
     Davidson diagonalization with overlap
     ethr =  8.06E-06,  avg # of iterations =  2.0

     negative rho (up, down):  8.074E-06 1.563E-05
 
     Adding external electric field

     Computed dipole along edir(3) : 
        Dipole               -0.2730 Ry au,         -0.6939 Debye
        Dipole field         -0.0002 Ry au, 
 
        Potential amp.        0.0184 Ry
        Total length         55.1515 bohr
 
 
     Adding external electric field

     Computed dipole along edir(3) : 
        Dipole               -0.2730 Ry au,         -0.6939 Debye
        Dipole field         -0.0002 Ry au, 
 
        Potential amp.        0.0184 Ry
        Total length         55.1515 bohr
 

     total cpu time spent up to now is      443.8 secs

     total energy              =   -7738.30748350 Ry
     estimated scf accuracy    <       0.06422353 Ry

     total magnetization       =    88.04 Bohr mag/cell
     absolute magnetization    =    89.42 Bohr mag/cell

     iteration # 25     ecut=    50.00 Ry     beta= 0.10
     Davidson diagonalization with overlap
     ethr =  5.88E-06,  avg # of iterations =  1.5

     negative rho (up, down):  4.041E-06 1.658E-05
 
     Adding external electric field

     Computed dipole along edir(3) : 
        Dipole               -0.1949 Ry au,         -0.4955 Debye
        Dipole field         -0.0001 Ry au, 
 
        Potential amp.        0.0132 Ry
        Total length         55.1515 bohr
 
 
     Adding external electric field

     Computed dipole along edir(3) : 
        Dipole               -0.1949 Ry au,         -0.4955 Debye
        Dipole field         -0.0001 Ry au, 
 
        Potential amp.        0.0132 Ry
        Total length         55.1515 bohr
 

     total cpu time spent up to now is      456.9 secs

     total energy              =   -7738.30475682 Ry
     estimated scf accuracy    <       0.06422419 Ry

     total magnetization       =    88.12 Bohr mag/cell
     absolute magnetization    =    89.50 Bohr mag/cell

     iteration # 26     ecut=    50.00 Ry     beta= 0.10
     Davidson diagonalization with overlap
     ethr =  5.88E-06,  avg # of iterations =  2.0

     negative rho (up, down):  3.736E-06 1.376E-05
 
     Adding external electric field

     Computed dipole along edir(3) : 
        Dipole               -0.2262 Ry au,         -0.5750 Debye
        Dipole field         -0.0001 Ry au, 
 
        Potential amp.        0.0153 Ry
        Total length         55.1515 bohr
 
 
     Adding external electric field

     Computed dipole along edir(3) : 
        Dipole               -0.2262 Ry au,         -0.5750 Debye
        Dipole field         -0.0001 Ry au, 
 
        Potential amp.        0.0153 Ry
        Total length         55.1515 bohr
 

     total cpu time spent up to now is      470.9 secs

     total energy              =   -7738.30587007 Ry
     estimated scf accuracy    <       0.06684664 Ry

     total magnetization       =    88.07 Bohr mag/cell
     absolute magnetization    =    89.49 Bohr mag/cell

     iteration # 27     ecut=    50.00 Ry     beta= 0.10
     Davidson diagonalization with overlap
     ethr =  5.88E-06,  avg # of iterations =  1.0

     negative rho (up, down):  3.277E-05 5.670E-05
 
     Adding external electric field

     Computed dipole along edir(3) : 
        Dipole               -0.0826 Ry au,         -0.2100 Debye
        Dipole field         -0.0001 Ry au, 
 
        Potential amp.        0.0056 Ry
        Total length         55.1515 bohr
 
 
     Adding external electric field

     Computed dipole along edir(3) : 
        Dipole               -0.0826 Ry au,         -0.2100 Debye
        Dipole field         -0.0001 Ry au, 
 
        Potential amp.        0.0056 Ry
        Total length         55.1515 bohr
 

     total cpu time spent up to now is      483.3 secs

     total energy              =   -7738.30463282 Ry
     estimated scf accuracy    <       0.06860866 Ry

     total magnetization       =    88.05 Bohr mag/cell
     absolute magnetization    =    89.46 Bohr mag/cell

     iteration # 28     ecut=    50.00 Ry     beta= 0.10
     Davidson diagonalization with overlap
     ethr =  5.88E-06,  avg # of iterations =  2.0

     negative rho (up, down):  3.515E-05 6.494E-05
 
     Adding external electric field

     Computed dipole along edir(3) : 
        Dipole               -0.0581 Ry au,         -0.1476 Debye
        Dipole field         -0.0000 Ry au, 
 
        Potential amp.        0.0039 Ry
        Total length         55.1515 bohr
 
 
     Adding external electric field

     Computed dipole along edir(3) : 
        Dipole               -0.0581 Ry au,         -0.1476 Debye
        Dipole field         -0.0000 Ry au, 
 
        Potential amp.        0.0039 Ry
        Total length         55.1515 bohr
 

     total cpu time spent up to now is      497.6 secs

     total energy              =   -7738.30426749 Ry
     estimated scf accuracy    <       0.05610143 Ry

     total magnetization       =    88.15 Bohr mag/cell
     absolute magnetization    =    89.60 Bohr mag/cell

     iteration # 29     ecut=    50.00 Ry     beta= 0.10
     Davidson diagonalization with overlap
     ethr =  5.13E-06,  avg # of iterations =  1.5

     negative rho (up, down):  1.881E-04 2.479E-04
 
     Adding external electric field

     Computed dipole along edir(3) : 
        Dipole                0.0303 Ry au,          0.0771 Debye
        Dipole field          0.0000 Ry au, 
 
        Potential amp.       -0.0020 Ry
        Total length         55.1515 bohr
 
 
     Adding external electric field

     Computed dipole along edir(3) : 
        Dipole                0.0303 Ry au,          0.0771 Debye
        Dipole field          0.0000 Ry au, 
 
        Potential amp.       -0.0020 Ry
        Total length         55.1515 bohr
 

     total cpu time spent up to now is      511.0 secs

     total energy              =   -7738.30337688 Ry
     estimated scf accuracy    <       0.05772578 Ry

     total magnetization       =    88.15 Bohr mag/cell
     absolute magnetization    =    89.61 Bohr mag/cell

     iteration # 30     ecut=    50.00 Ry     beta= 0.10
     Davidson diagonalization with overlap
     ethr =  5.13E-06,  avg # of iterations =  3.0

     negative rho (up, down):  3.886E-04 5.956E-04
 
     Adding external electric field

     Computed dipole along edir(3) : 
        Dipole                0.2629 Ry au,          0.6682 Debye
        Dipole field          0.0002 Ry au, 
 
        Potential amp.       -0.0177 Ry
        Total length         55.1515 bohr
 
 
     Adding external electric field

     Computed dipole along edir(3) : 
        Dipole                0.2629 Ry au,          0.6682 Debye
        Dipole field          0.0002 Ry au, 
 
        Potential amp.       -0.0177 Ry
        Total length         55.1515 bohr
 

     total cpu time spent up to now is      525.6 secs

     total energy              =   -7738.30005913 Ry
     estimated scf accuracy    <       0.04073538 Ry

     total magnetization       =    88.24 Bohr mag/cell
     absolute magnetization    =    89.68 Bohr mag/cell

     iteration # 31     ecut=    50.00 Ry     beta= 0.10
     Davidson diagonalization with overlap
     ethr =  3.73E-06,  avg # of iterations =  4.0

     negative rho (up, down):  2.061E-04 2.386E-04
 
     Adding external electric field

     Computed dipole along edir(3) : 
        Dipole                0.2782 Ry au,          0.7072 Debye
        Dipole field          0.0002 Ry au, 
 
        Potential amp.       -0.0188 Ry
        Total length         55.1515 bohr
 
 
     Adding external electric field

     Computed dipole along edir(3) : 
        Dipole                0.2782 Ry au,          0.7072 Debye
        Dipole field          0.0002 Ry au, 
 
        Potential amp.       -0.0188 Ry
        Total length         55.1515 bohr
 

     total cpu time spent up to now is      541.3 secs

     total energy              =   -7738.30116730 Ry
     estimated scf accuracy    <       0.02211669 Ry

     total magnetization       =    88.30 Bohr mag/cell
     absolute magnetization    =    89.71 Bohr mag/cell

     iteration # 32     ecut=    50.00 Ry     beta= 0.10
     Davidson diagonalization with overlap
     c_bands:  4 eigenvalues not converged
     ethr =  2.02E-06,  avg # of iterations = 21.0

     negative rho (up, down):  1.136E-03 1.054E-03
 
     Adding external electric field

     Computed dipole along edir(3) : 
        Dipole                0.4470 Ry au,          1.1363 Debye
        Dipole field          0.0003 Ry au, 
 
        Potential amp.       -0.0302 Ry
        Total length         55.1515 bohr
 
 
     Adding external electric field

     Computed dipole along edir(3) : 
        Dipole                0.4470 Ry au,          1.1363 Debye
        Dipole field          0.0003 Ry au, 
 
        Potential amp.       -0.0302 Ry
        Total length         55.1515 bohr
 

     total cpu time spent up to now is      574.6 secs

     total energy              =   -7738.30144444 Ry
     estimated scf accuracy    <       0.01659008 Ry

     total magnetization       =    88.38 Bohr mag/cell
     absolute magnetization    =    89.67 Bohr mag/cell

     iteration # 33     ecut=    50.00 Ry     beta= 0.10
     Davidson diagonalization with overlap
     c_bands:  3 eigenvalues not converged
     ethr =  1.52E-06,  avg # of iterations = 11.5

     negative rho (up, down):  1.527E-03 1.355E-03
 
     Adding external electric field

     Computed dipole along edir(3) : 
        Dipole                0.5460 Ry au,          1.3877 Debye
        Dipole field          0.0003 Ry au, 
 
        Potential amp.       -0.0369 Ry
        Total length         55.1515 bohr
 
 
     Adding external electric field

     Computed dipole along edir(3) : 
        Dipole                0.5460 Ry au,          1.3877 Debye
        Dipole field          0.0003 Ry au, 
 
        Potential amp.       -0.0369 Ry
        Total length         55.1515 bohr
 

     total cpu time spent up to now is      595.3 secs

     total energy              =   -7738.30180967 Ry
     estimated scf accuracy    <       0.00912727 Ry

     total magnetization       =    88.40 Bohr mag/cell
     absolute magnetization    =    89.66 Bohr mag/cell

     iteration # 34     ecut=    50.00 Ry     beta= 0.10
     Davidson diagonalization with overlap
     ethr =  8.35E-07,  avg # of iterations =  3.5

     negative rho (up, down):  9.080E-04 6.690E-04
 
     Adding external electric field

     Computed dipole along edir(3) : 
        Dipole                0.5535 Ry au,          1.4069 Debye
        Dipole field          0.0003 Ry au, 
 
        Potential amp.       -0.0374 Ry
        Total length         55.1515 bohr
 
 
     Adding external electric field

     Computed dipole along edir(3) : 
        Dipole                0.5535 Ry au,          1.4069 Debye
        Dipole field          0.0003 Ry au, 
 
        Potential amp.       -0.0374 Ry
        Total length         55.1515 bohr
 

     total cpu time spent up to now is      610.6 secs

     total energy              =   -7738.30178092 Ry
     estimated scf accuracy    <       0.00458947 Ry

     total magnetization       =    88.40 Bohr mag/cell
     absolute magnetization    =    89.72 Bohr mag/cell

     iteration # 35     ecut=    50.00 Ry     beta= 0.10
     Davidson diagonalization with overlap
     ethr =  4.20E-07,  avg # of iterations =  2.0

     negative rho (up, down):  5.530E-04 4.427E-04
 
     Adding external electric field

     Computed dipole along edir(3) : 
        Dipole                0.5538 Ry au,          1.4075 Debye
        Dipole field          0.0003 Ry au, 
 
        Potential amp.       -0.0374 Ry
        Total length         55.1515 bohr
 
 
     Adding external electric field

     Computed dipole along edir(3) : 
        Dipole                0.5538 Ry au,          1.4075 Debye
        Dipole field          0.0003 Ry au, 
 
        Potential amp.       -0.0374 Ry
        Total length         55.1515 bohr
 

     total cpu time spent up to now is      624.6 secs

     total energy              =   -7738.30190917 Ry
     estimated scf accuracy    <       0.00273455 Ry

     total magnetization       =    88.38 Bohr mag/cell
     absolute magnetization    =    89.78 Bohr mag/cell

     iteration # 36     ecut=    50.00 Ry     beta= 0.10
     Davidson diagonalization with overlap
     ethr =  2.50E-07,  avg # of iterations =  2.0

     negative rho (up, down):  9.109E-06 4.143E-06
 
     Adding external electric field

     Computed dipole along edir(3) : 
        Dipole                0.5016 Ry au,          1.2748 Debye
        Dipole field          0.0003 Ry au, 
 
        Potential amp.       -0.0339 Ry
        Total length         55.1515 bohr
 
 
     Adding external electric field

     Computed dipole along edir(3) : 
        Dipole                0.5016 Ry au,          1.2748 Debye
        Dipole field          0.0003 Ry au, 
 
        Potential amp.       -0.0339 Ry
        Total length         55.1515 bohr
 

     total cpu time spent up to now is      639.2 secs

     total energy              =   -7738.30186391 Ry
     estimated scf accuracy    <       0.00183800 Ry

     total magnetization       =    88.33 Bohr mag/cell
     absolute magnetization    =    89.77 Bohr mag/cell

     iteration # 37     ecut=    50.00 Ry     beta= 0.10
     Davidson diagonalization with overlap
     ethr =  1.68E-07,  avg # of iterations =  2.0

     negative rho (up, down):  8.667E-06 1.913E-06
 
     Adding external electric field

     Computed dipole along edir(3) : 
        Dipole                0.5007 Ry au,          1.2726 Debye
        Dipole field          0.0003 Ry au, 
 
        Potential amp.       -0.0338 Ry
        Total length         55.1515 bohr
 
 
     Adding external electric field

     Computed dipole along edir(3) : 
        Dipole                0.5007 Ry au,          1.2726 Debye
        Dipole field          0.0003 Ry au, 
 
        Potential amp.       -0.0338 Ry
        Total length         55.1515 bohr
 

     total cpu time spent up to now is      653.8 secs

     total energy              =   -7738.30189001 Ry
     estimated scf accuracy    <       0.00157546 Ry

     total magnetization       =    88.33 Bohr mag/cell
     absolute magnetization    =    89.78 Bohr mag/cell

     iteration # 38     ecut=    50.00 Ry     beta= 0.10
     Davidson diagonalization with overlap
     ethr =  1.44E-07,  avg # of iterations =  2.0

     negative rho (up, down):  2.432E-06 5.908E-07
 
     Adding external electric field

     Computed dipole along edir(3) : 
        Dipole                0.4649 Ry au,          1.1817 Debye
        Dipole field          0.0003 Ry au, 
 
        Potential amp.       -0.0314 Ry
        Total length         55.1515 bohr
 
 
     Adding external electric field

     Computed dipole along edir(3) : 
        Dipole                0.4649 Ry au,          1.1817 Debye
        Dipole field          0.0003 Ry au, 
 
        Potential amp.       -0.0314 Ry
        Total length         55.1515 bohr
 

     total cpu time spent up to now is      668.2 secs

     total energy              =   -7738.30188947 Ry
     estimated scf accuracy    <       0.00120357 Ry

     total magnetization       =    88.35 Bohr mag/cell
     absolute magnetization    =    89.80 Bohr mag/cell

     iteration # 39     ecut=    50.00 Ry     beta= 0.10
     Davidson diagonalization with overlap
     ethr =  1.10E-07,  avg # of iterations =  2.0

     negative rho (up, down):  1.489E-06 2.774E-07
 
     Adding external electric field

     Computed dipole along edir(3) : 
        Dipole                0.4479 Ry au,          1.1385 Debye
        Dipole field          0.0003 Ry au, 
 
        Potential amp.       -0.0302 Ry
        Total length         55.1515 bohr
 
 
     Adding external electric field

     Computed dipole along edir(3) : 
        Dipole                0.4479 Ry au,          1.1385 Debye
        Dipole field          0.0003 Ry au, 
 
        Potential amp.       -0.0302 Ry
        Total length         55.1515 bohr
 

     total cpu time spent up to now is      682.2 secs

     total energy              =   -7738.30197316 Ry
     estimated scf accuracy    <       0.00094676 Ry

     total magnetization       =    88.36 Bohr mag/cell
     absolute magnetization    =    89.79 Bohr mag/cell

     iteration # 40     ecut=    50.00 Ry     beta= 0.10
     Davidson diagonalization with overlap
     ethr =  8.66E-08,  avg # of iterations =  2.0

     negative rho (up, down):  8.974E-07 2.132E-07
 
     Adding external electric field

     Computed dipole along edir(3) : 
        Dipole                0.4303 Ry au,          1.0938 Debye
        Dipole field          0.0003 Ry au, 
 
        Potential amp.       -0.0291 Ry
        Total length         55.1515 bohr
 
 
     Adding external electric field

     Computed dipole along edir(3) : 
        Dipole                0.4303 Ry au,          1.0938 Debye
        Dipole field          0.0003 Ry au, 
 
        Potential amp.       -0.0291 Ry
        Total length         55.1515 bohr
 

     total cpu time spent up to now is      696.6 secs

     total energy              =   -7738.30199806 Ry
     estimated scf accuracy    <       0.00071329 Ry

     total magnetization       =    88.33 Bohr mag/cell
     absolute magnetization    =    89.72 Bohr mag/cell

     iteration # 41     ecut=    50.00 Ry     beta= 0.10
     Davidson diagonalization with overlap
     ethr =  6.53E-08,  avg # of iterations =  2.0

     negative rho (up, down):  3.278E-05 1.477E-05
 
     Adding external electric field

     Computed dipole along edir(3) : 
        Dipole                0.4691 Ry au,          1.1922 Debye
        Dipole field          0.0003 Ry au, 
 
        Potential amp.       -0.0317 Ry
        Total length         55.1515 bohr
 
 
     Adding external electric field

     Computed dipole along edir(3) : 
        Dipole                0.4691 Ry au,          1.1922 Debye
        Dipole field          0.0003 Ry au, 
 
        Potential amp.       -0.0317 Ry
        Total length         55.1515 bohr
 

     total cpu time spent up to now is      710.7 secs

     total energy              =   -7738.30210986 Ry
     estimated scf accuracy    <       0.00059680 Ry

     total magnetization       =    88.32 Bohr mag/cell
     absolute magnetization    =    89.70 Bohr mag/cell

     iteration # 42     ecut=    50.00 Ry     beta= 0.10
     Davidson diagonalization with overlap
     ethr =  5.46E-08,  avg # of iterations =  8.0

     negative rho (up, down):  1.303E-04 6.919E-05
 
     Adding external electric field

     Computed dipole along edir(3) : 
        Dipole                0.4881 Ry au,          1.2406 Debye
        Dipole field          0.0003 Ry au, 
 
        Potential amp.       -0.0330 Ry
        Total length         55.1515 bohr
 
 
     Adding external electric field

     Computed dipole along edir(3) : 
        Dipole                0.4881 Ry au,          1.2406 Debye
        Dipole field          0.0003 Ry au, 
 
        Potential amp.       -0.0330 Ry
        Total length         55.1515 bohr
 

     total cpu time spent up to now is      727.8 secs

     total energy              =   -7738.30217011 Ry
     estimated scf accuracy    <       0.00036611 Ry

     total magnetization       =    88.32 Bohr mag/cell
     absolute magnetization    =    89.68 Bohr mag/cell

     iteration # 43     ecut=    50.00 Ry     beta= 0.10
     Davidson diagonalization with overlap
     ethr =  3.35E-08,  avg # of iterations =  2.0

     negative rho (up, down):  5.845E-04 3.581E-04
 
     Adding external electric field

     Computed dipole along edir(3) : 
        Dipole                0.5080 Ry au,          1.2911 Debye
        Dipole field          0.0003 Ry au, 
 
        Potential amp.       -0.0343 Ry
        Total length         55.1515 bohr
 
 
     Adding external electric field

     Computed dipole along edir(3) : 
        Dipole                0.5080 Ry au,          1.2911 Debye
        Dipole field          0.0003 Ry au, 
 
        Potential amp.       -0.0343 Ry
        Total length         55.1515 bohr
 

     total cpu time spent up to now is      741.5 secs

     total energy              =   -7738.30220656 Ry
     estimated scf accuracy    <       0.00027319 Ry

     total magnetization       =    88.32 Bohr mag/cell
     absolute magnetization    =    89.68 Bohr mag/cell

     iteration # 44     ecut=    50.00 Ry     beta= 0.10
     Davidson diagonalization with overlap
     ethr =  2.50E-08,  avg # of iterations =  2.0

     negative rho (up, down):  1.336E-03 9.647E-04
 
     Adding external electric field

     Computed dipole along edir(3) : 
        Dipole                0.5263 Ry au,          1.3377 Debye
        Dipole field          0.0003 Ry au, 
 
        Potential amp.       -0.0355 Ry
        Total length         55.1515 bohr
 
 
     Adding external electric field

     Computed dipole along edir(3) : 
        Dipole                0.5263 Ry au,          1.3377 Debye
        Dipole field          0.0003 Ry au, 
 
        Potential amp.       -0.0355 Ry
        Total length         55.1515 bohr
 

     total cpu time spent up to now is      755.4 secs

     total energy              =   -7738.30223408 Ry
     estimated scf accuracy    <       0.00012177 Ry

     total magnetization       =    88.33 Bohr mag/cell
     absolute magnetization    =    89.69 Bohr mag/cell

     iteration # 45     ecut=    50.00 Ry     beta= 0.10
     Davidson diagonalization with overlap
     ethr =  1.11E-08,  avg # of iterations =  2.0

     negative rho (up, down):  1.507E-03 1.097E-03
 
     Adding external electric field

     Computed dipole along edir(3) : 
        Dipole                0.5331 Ry au,          1.3550 Debye
        Dipole field          0.0003 Ry au, 
 
        Potential amp.       -0.0360 Ry
        Total length         55.1515 bohr
 
 
     Adding external electric field

     Computed dipole along edir(3) : 
        Dipole                0.5331 Ry au,          1.3550 Debye
        Dipole field          0.0003 Ry au, 
 
        Potential amp.       -0.0360 Ry
        Total length         55.1515 bohr
 

     total cpu time spent up to now is      768.8 secs

     total energy              =   -7738.30224353 Ry
     estimated scf accuracy    <       0.00007791 Ry

     total magnetization       =    88.33 Bohr mag/cell
     absolute magnetization    =    89.69 Bohr mag/cell

     iteration # 46     ecut=    50.00 Ry     beta= 0.10
     Davidson diagonalization with overlap
     ethr =  7.13E-09,  avg # of iterations =  2.0

     negative rho (up, down):  1.656E-03 1.256E-03
 
     Adding external electric field

     Computed dipole along edir(3) : 
        Dipole                0.5396 Ry au,          1.3715 Debye
        Dipole field          0.0003 Ry au, 
 
        Potential amp.       -0.0364 Ry
        Total length         55.1515 bohr
 
 
     Adding external electric field

     Computed dipole along edir(3) : 
        Dipole                0.5396 Ry au,          1.3715 Debye
        Dipole field          0.0003 Ry au, 
 
        Potential amp.       -0.0364 Ry
        Total length         55.1515 bohr
 

     total cpu time spent up to now is      782.7 secs

     total energy              =   -7738.30224923 Ry
     estimated scf accuracy    <       0.00003900 Ry

     total magnetization       =    88.32 Bohr mag/cell
     absolute magnetization    =    89.69 Bohr mag/cell

     iteration # 47     ecut=    50.00 Ry     beta= 0.10
     Davidson diagonalization with overlap
     ethr =  3.57E-09,  avg # of iterations =  1.5

     negative rho (up, down):  1.463E-03 1.065E-03
 
     Adding external electric field

     Computed dipole along edir(3) : 
        Dipole                0.5423 Ry au,          1.3784 Debye
        Dipole field          0.0003 Ry au, 
 
        Potential amp.       -0.0366 Ry
        Total length         55.1515 bohr
 
 
     Adding external electric field

     Computed dipole along edir(3) : 
        Dipole                0.5423 Ry au,          1.3784 Debye
        Dipole field          0.0003 Ry au, 
 
        Potential amp.       -0.0366 Ry
        Total length         55.1515 bohr
 

     total cpu time spent up to now is      795.3 secs

     total energy              =   -7738.30224891 Ry
     estimated scf accuracy    <       0.00002116 Ry

     total magnetization       =    88.32 Bohr mag/cell
     absolute magnetization    =    89.69 Bohr mag/cell

     iteration # 48     ecut=    50.00 Ry     beta= 0.10
     Davidson diagonalization with overlap
     ethr =  1.94E-09,  avg # of iterations =  2.0

     negative rho (up, down):  1.430E-03 1.009E-03
 
     Adding external electric field

     Computed dipole along edir(3) : 
        Dipole                0.5459 Ry au,          1.3875 Debye
        Dipole field          0.0003 Ry au, 
 
        Potential amp.       -0.0369 Ry
        Total length         55.1515 bohr
 
 
     Adding external electric field

     Computed dipole along edir(3) : 
        Dipole                0.5459 Ry au,          1.3875 Debye
        Dipole field          0.0003 Ry au, 
 
        Potential amp.       -0.0369 Ry
        Total length         55.1515 bohr
 

     total cpu time spent up to now is      809.0 secs

     total energy              =   -7738.30225025 Ry
     estimated scf accuracy    <       0.00001428 Ry

     total magnetization       =    88.32 Bohr mag/cell
     absolute magnetization    =    89.69 Bohr mag/cell

     iteration # 49     ecut=    50.00 Ry     beta= 0.10
     Davidson diagonalization with overlap
     ethr =  1.31E-09,  avg # of iterations =  2.0

     negative rho (up, down):  1.229E-03 7.896E-04
 
     Adding external electric field

     Computed dipole along edir(3) : 
        Dipole                0.5470 Ry au,          1.3903 Debye
        Dipole field          0.0003 Ry au, 
 
        Potential amp.       -0.0369 Ry
        Total length         55.1515 bohr
 
 
     Adding external electric field

     Computed dipole along edir(3) : 
        Dipole                0.5470 Ry au,          1.3903 Debye
        Dipole field          0.0003 Ry au, 
 
        Potential amp.       -0.0369 Ry
        Total length         55.1515 bohr
 

     total cpu time spent up to now is      822.7 secs

     total energy              =   -7738.30224909 Ry
     estimated scf accuracy    <       0.00000752 Ry

     total magnetization       =    88.32 Bohr mag/cell
     absolute magnetization    =    89.69 Bohr mag/cell

     iteration # 50     ecut=    50.00 Ry     beta= 0.10
     Davidson diagonalization with overlap
     ethr =  6.88E-10,  avg # of iterations =  2.0

     negative rho (up, down):  1.113E-03 6.705E-04
 
     Adding external electric field

     Computed dipole along edir(3) : 
        Dipole                0.5466 Ry au,          1.3894 Debye
        Dipole field          0.0003 Ry au, 
 
        Potential amp.       -0.0369 Ry
        Total length         55.1515 bohr
 
 
     Adding external electric field

     Computed dipole along edir(3) : 
        Dipole                0.5466 Ry au,          1.3894 Debye
        Dipole field          0.0003 Ry au, 
 
        Potential amp.       -0.0369 Ry
        Total length         55.1515 bohr
 

     total cpu time spent up to now is      837.0 secs

     total energy              =   -7738.30224858 Ry
     estimated scf accuracy    <       0.00000374 Ry

     total magnetization       =    88.32 Bohr mag/cell
     absolute magnetization    =    89.69 Bohr mag/cell

     iteration # 51     ecut=    50.00 Ry     beta= 0.10
     Davidson diagonalization with overlap
     ethr =  3.42E-10,  avg # of iterations =  2.0

     negative rho (up, down):  1.067E-03 6.131E-04
 
     Adding external electric field

     Computed dipole along edir(3) : 
        Dipole                0.5475 Ry au,          1.3917 Debye
        Dipole field          0.0003 Ry au, 
 
        Potential amp.       -0.0370 Ry
        Total length         55.1515 bohr
 
 
     Adding external electric field

     Computed dipole along edir(3) : 
        Dipole                0.5475 Ry au,          1.3917 Debye
        Dipole field          0.0003 Ry au, 
 
        Potential amp.       -0.0370 Ry
        Total length         55.1515 bohr
 

     total cpu time spent up to now is      850.7 secs

     total energy              =   -7738.30224854 Ry
     estimated scf accuracy    <       0.00000263 Ry

     total magnetization       =    88.32 Bohr mag/cell
     absolute magnetization    =    89.69 Bohr mag/cell

     iteration # 52     ecut=    50.00 Ry     beta= 0.10
     Davidson diagonalization with overlap
     ethr =  2.40E-10,  avg # of iterations =  2.0

     negative rho (up, down):  1.048E-03 5.909E-04
 
     Adding external electric field

     Computed dipole along edir(3) : 
        Dipole                0.5470 Ry au,          1.3903 Debye
        Dipole field          0.0003 Ry au, 
 
        Potential amp.       -0.0369 Ry
        Total length         55.1515 bohr
 
 
     Adding external electric field

     Computed dipole along edir(3) : 
        Dipole                0.5470 Ry au,          1.3903 Debye
        Dipole field          0.0003 Ry au, 
 
        Potential amp.       -0.0369 Ry
        Total length         55.1515 bohr
 

     total cpu time spent up to now is      864.8 secs

     total energy              =   -7738.30224862 Ry
     estimated scf accuracy    <       0.00000100 Ry

     total magnetization       =    88.32 Bohr mag/cell
     absolute magnetization    =    89.69 Bohr mag/cell

     iteration # 53     ecut=    50.00 Ry     beta= 0.10
     Davidson diagonalization with overlap
     ethr =  9.18E-11,  avg # of iterations =  3.0

     negative rho (up, down):  1.047E-03 5.887E-04
 
     Adding external electric field

     Computed dipole along edir(3) : 
        Dipole                0.5514 Ry au,          1.4016 Debye
        Dipole field          0.0003 Ry au, 
 
        Potential amp.       -0.0372 Ry
        Total length         55.1515 bohr
 
 
     Adding external electric field

     Computed dipole along edir(3) : 
        Dipole                0.5514 Ry au,          1.4016 Debye
        Dipole field          0.0003 Ry au, 
 
        Potential amp.       -0.0372 Ry
        Total length         55.1515 bohr
 
 
     Magnetic moment per site  (integrated on atomic sphere of radius R)
     atom   1 (R=0.082)  charge=  7.1489  magn=  1.4223
     atom   2 (R=0.090)  charge= 12.1456  magn=  3.8873
     atom   3 (R=0.082)  charge=  7.1507  magn=  1.4235
     atom   4 (R=0.082)  charge=  7.1357  magn=  1.5278
     atom   5 (R=0.082)  charge=  7.1529  magn=  1.4951
     atom   6 (R=0.082)  charge=  7.1506  magn=  1.4922
     atom   7 (R=0.068)  charge=  0.8221  magn=  0.0071
     atom   8 (R=0.068)  charge=  0.8232  magn=  0.0035
     atom   9 (R=0.068)  charge=  0.8229  magn=  0.0029
     atom  10 (R=0.068)  charge=  0.8217  magn=  0.0069
     atom  11 (R=0.044)  charge=  1.9869  magn=  0.0645
     atom  12 (R=0.044)  charge=  1.9893  magn=  0.0755
     atom  13 (R=0.044)  charge=  1.9855  magn=  0.0950
     atom  14 (R=0.044)  charge=  1.9873  magn=  0.0764
     atom  15 (R=0.044)  charge=  1.9962  magn=  0.0458
     atom  16 (R=0.044)  charge=  1.9760  magn=  0.0474
     atom  17 (R=0.044)  charge=  1.9768  magn=  0.0481
     atom  18 (R=0.044)  charge=  1.9942  magn=  0.0527
     atom  19 (R=0.044)  charge=  1.9973  magn=  0.0437
     atom  20 (R=0.044)  charge=  1.9932  magn=  0.0528
     atom  21 (R=0.044)  charge=  1.9960  magn=  0.0484
     atom  22 (R=0.044)  charge=  1.9945  magn=  0.0484
     atom  23 (R=0.044)  charge=  1.9962  magn=  0.0484
     atom  24 (R=0.044)  charge=  1.9926  magn=  0.0512
     atom  25 (R=0.044)  charge=  1.9945  magn=  0.0510
     atom  26 (R=0.044)  charge=  2.0013  magn=  0.0349
     atom  27 (R=0.082)  charge=  7.1356  magn=  1.5170
     atom  28 (R=0.090)  charge= 12.1604  magn=  3.9336
     atom  29 (R=0.082)  charge=  7.1351  magn=  1.5283
     atom  30 (R=0.082)  charge=  7.1371  magn=  1.5298
     atom  31 (R=0.082)  charge=  7.1541  magn=  1.5072
     atom  32 (R=0.082)  charge=  7.1520  magn=  1.5048
     atom  33 (R=0.068)  charge=  0.8216  magn=  0.0073
     atom  34 (R=0.068)  charge=  0.8204  magn=  0.0082
     atom  35 (R=0.068)  charge=  0.8198  magn=  0.0061
     atom  36 (R=0.068)  charge=  0.8224  magn=  0.0070
     atom  37 (R=0.044)  charge=  1.9872  magn=  0.0686
     atom  38 (R=0.044)  charge=  1.9899  magn=  0.0662
     atom  39 (R=0.044)  charge=  1.9855  magn=  0.0823
     atom  40 (R=0.044)  charge=  1.9846  magn=  0.0801
     atom  41 (R=0.044)  charge=  1.9959  magn=  0.0473
     atom  42 (R=0.044)  charge=  1.9973  magn=  0.0449
     atom  43 (R=0.044)  charge=  1.9934  magn=  0.0555
     atom  44 (R=0.044)  charge=  1.9935  magn=  0.0534
     atom  45 (R=0.044)  charge=  1.9974  magn=  0.0473
     atom  46 (R=0.044)  charge=  1.9945  magn=  0.0574
     atom  47 (R=0.044)  charge=  1.9961  magn=  0.0499
     atom  48 (R=0.044)  charge=  1.9952  magn=  0.0499
     atom  49 (R=0.044)  charge=  1.9937  magn=  0.0473
     atom  50 (R=0.044)  charge=  1.9926  magn=  0.0551
     atom  51 (R=0.044)  charge=  1.9937  magn=  0.0533
     atom  52 (R=0.044)  charge=  1.9996  magn=  0.0379
     atom  53 (R=0.082)  charge=  7.1341  magn=  1.5268
     atom  54 (R=0.090)  charge= 12.1397  magn=  3.8610
     atom  55 (R=0.082)  charge=  7.1356  magn=  1.5350
     atom  56 (R=0.082)  charge=  7.1603  magn=  1.4307
     atom  57 (R=0.082)  charge=  7.1514  magn=  1.5013
     atom  58 (R=0.082)  charge=  7.1529  magn=  1.5019
     atom  59 (R=0.068)  charge=  0.8207  magn=  0.0070
     atom  60 (R=0.068)  charge=  0.8204  magn=  0.0079
     atom  61 (R=0.068)  charge=  0.8193  magn=  0.0061
     atom  62 (R=0.068)  charge=  0.8192  magn=  0.0051
     atom  63 (R=0.044)  charge=  1.9890  magn=  0.0762
     atom  64 (R=0.044)  charge=  1.9904  magn=  0.0623
     atom  65 (R=0.044)  charge=  1.9891  magn=  0.0813
     atom  66 (R=0.044)  charge=  1.9853  magn=  0.0935
     atom  67 (R=0.044)  charge=  1.9891  magn=  0.0340
     atom  68 (R=0.044)  charge=  1.9983  magn=  0.0429
     atom  69 (R=0.044)  charge=  1.9944  magn=  0.0549
     atom  70 (R=0.044)  charge=  1.9870  magn=  0.0359
     atom  71 (R=0.044)  charge=  1.9935  magn=  0.0444
     atom  72 (R=0.044)  charge=  1.9929  magn=  0.0575
     atom  73 (R=0.044)  charge=  1.9932  magn=  0.0515
     atom  74 (R=0.044)  charge=  1.9945  magn=  0.0484
     atom  75 (R=0.044)  charge=  1.9943  magn=  0.0475
     atom  76 (R=0.044)  charge=  1.9902  magn=  0.0579
     atom  77 (R=0.044)  charge=  1.9908  magn=  0.0468
     atom  78 (R=0.044)  charge=  1.9965  magn=  0.0358
     atom  79 (R=0.082)  charge=  7.1489  magn=  1.4223
     atom  80 (R=0.090)  charge= 12.1457  magn=  3.8874
     atom  81 (R=0.082)  charge=  7.1508  magn=  1.4235
     atom  82 (R=0.082)  charge=  7.1356  magn=  1.5278
     atom  83 (R=0.082)  charge=  7.1530  magn=  1.4951
     atom  84 (R=0.082)  charge=  7.1506  magn=  1.4922
[...]
    -5.9148  -5.8973  -5.8826  -5.8745  -5.8614  -5.8408  -5.8328  -5.8033
    -5.7761  -5.7699  -5.7305  -5.7200  -5.7035  -5.6752  -5.6663  -5.6472
    -5.6293  -5.5978  -5.5508  -5.5489  -5.5242  -5.4941  -5.4784  -5.4682
    -5.4639  -5.4325  -5.4262  -5.3982  -5.3808  -5.3652  -5.3517  -5.3232
    -5.2061  -5.1947  -5.1799  -5.1730  -5.1584  -5.1333  -5.0696  -5.0253
    -5.0078  -4.9887  -4.9459  -4.9180  -4.9068  -4.8888  -4.8559  -4.8126
    -4.7902  -4.7352  -4.7245  -4.7091  -4.6708  -4.6522  -4.6215  -4.5449
    -4.5424  -4.4729  -4.4573  -4.3989  -4.3922  -4.3744  -4.3341  -4.3260
    -4.3093  -4.2496  -4.1881  -4.1776  -4.1422  -4.1153  -4.0969  -4.0706
    -4.0618  -4.0381  -4.0355  -3.9636  -3.9181  -3.8973  -3.8871  -3.8467
    -3.8280  -3.8070  -3.7656  -3.7551  -3.7491  -3.7174  -3.6957  -3.6567
    -3.6316  -3.5841  -3.5818  -3.5764  -3.5555  -3.5357  -3.5333  -3.5146
    -3.4983  -3.4757  -3.4545  -3.4485  -3.4398  -3.4261  -3.4018  -3.3872
    -3.3593  -3.3550  -3.3396  -3.3109  -3.3049  -3.2652  -3.2503  -3.2042
    -3.1989  -3.1879  -3.1819  -3.1633  -3.1537  -3.1009  -3.0766  -3.0538
    -3.0308  -3.0118  -3.0068  -2.9968  -2.9935  -2.9819  -2.9650  -2.9269
    -2.9092  -2.8968  -2.8730  -2.8320  -2.8266  -2.8176  -2.7782  -2.7625
    -2.7399  -2.7269  -2.7115  -2.6978  -2.6945  -2.6743  -2.6603  -2.6512
    -2.6344  -2.6278  -2.6207  -2.5991  -2.5887  -2.5785  -2.5711  -2.5571
    -2.5401  -2.5272  -2.5119  -2.4912  -2.4732  -2.4677  -2.4441  -2.4343
    -2.4057  -2.3977  -2.3731  -2.3477  -2.3117  -2.2969  -2.2764  -2.2549
    -2.2436  -2.2285  -2.2069  -2.1669  -2.1538  -2.1345  -2.1236  -2.0980
    -2.0948  -2.0733  -2.0642  -2.0521  -2.0382  -2.0154  -1.9974  -1.9509
    -1.9369  -1.9088  -1.9036  -1.8958  -1.8841  -1.8741  -1.8424  -1.8182
    -1.8078  -1.7925  -1.7748  -1.7679  -1.7572  -1.7472  -1.7292  -1.7110
    -1.6878  -1.6595  -1.6446  -1.6042  -1.5959  -1.5790  -1.5590  -1.5397
    -1.5278  -1.4949  -1.4739  -1.4561  -1.4486  -1.4394  -1.4131  -1.3897
    -1.3821  -1.3715  -1.3500  -1.3411  -1.3162  -1.3006  -1.2460  -1.2407
    -1.2221  -1.2124  -1.1936  -1.1533  -1.1484  -1.0811  -1.0391  -1.0223
    -0.9777  -0.8733  -0.8558  -0.8157  -0.7483  -0.6822  -0.6741  -0.4473
    -0.2832  -0.2369  -0.2279  -0.1047   0.2181   0.2511   0.2732   0.2812
     0.2860   0.3028   0.3360   0.3456   0.3708   0.3826   0.3953   0.4010
     0.4077   0.4201   0.4297   0.4359   0.4440   0.4560   0.4630   0.4717
     0.4784   0.4893   0.4894   0.4979   0.5031   0.5136   0.5152   0.5265
     0.5427   0.5452   0.5548   0.5610   0.5663   0.5713   0.5745   0.6001
     0.6071   0.6095   0.6169   0.6209   0.6347   0.6476   0.6490   0.6509
     0.6667   0.6704   0.6735   0.6841   0.6860   0.7064   0.7105   0.7141
     0.7229   0.7286   0.7311   0.7410   0.7562   0.7704   0.7827   0.7856
     0.7939   0.7979   0.8072   0.8307   0.8354   0.8454   0.8492   0.8518
     0.8635   0.8667   0.8851   0.9003   0.9030   0.9086   0.9202   0.9241
     0.9325   0.9613   0.9712   0.9840   0.9863   0.9887   0.9924   1.0180
     1.0556   1.1317   1.1339   1.2325   1.2546   1.7044   1.7820   1.7898
     1.7953   1.8108   1.8217   1.8383   1.8485   1.8608   1.9442   1.9606
     1.9727   1.9928   2.0179   2.0418   2.0533   2.0823   2.0958   2.1477
     2.1569   2.1727   2.1838   2.2103   2.2239   2.2389   2.2538   2.2697
     2.2806   2.3040   2.3224   2.3386   2.3482   2.3623   2.3922   2.4003
     2.4128   2.4148   2.4621   2.4630   2.4925   2.5105   2.5179   2.5235
     2.5336   2.5406   2.5604   2.5713   2.5892   2.6214   2.6283   2.6468
     2.6680   2.6733   2.6852   2.7438   2.8114   2.8283   2.8850   2.8957
     2.9019   2.9430   3.5184   3.5539   3.6033   3.6346   3.7640   3.7925
     3.8784   3.8916   3.9027   3.9517   3.9647   4.0190   4.1021   4.1100
     4.1193   4.1423   4.1673   4.1724   4.1943   4.2084   4.6781   4.7965
     4.8486   4.8835   4.9518   4.9657   5.0001   5.0546   5.0626   5.1366
     5.1382   5.1961   5.4392   6.3014   6.3935   6.5301   6.6418   6.7359
     6.8162   6.8669   6.9209   6.9645   7.0031   7.0824   7.1501   7.2183
     7.2957   7.3600   7.4084   7.4212   7.4636   7.5060   7.6489   7.6896
     7.7280   7.7641   7.7757   7.8199   7.8634   7.9099   7.9272   7.9690
     8.0263   8.0613   8.0906   8.1185   8.1718   8.1912   8.2120   8.2454
     8.2793   8.3168   8.3712   8.3853   8.4243   8.4353   8.4457   8.4721
     8.4851   8.5124   8.5378   8.5542   8.5907   8.5989   8.6196   8.6730
     8.6948   8.7078   8.7262   8.7475   8.7700   8.8098   8.8372   8.8719

     the Fermi energy is     1.6949 ev

!    total energy              =   -7738.30224848 Ry
     estimated scf accuracy    <       0.00000053 Ry
     smearing contrib. (-TS)   =      -0.02507657 Ry
     internal energy E=F+TS    =   -7738.27717191 Ry

     The total energy is F=E-TS. E is the sum of the following terms:
     one-electron contribution =  -95040.42537380 Ry
     hartree contribution      =   48137.79526490 Ry
     xc contribution           =   -2218.73456713 Ry
     ewald contribution        =   41384.89611951 Ry
     Dispersion Correction     =      -1.80880152 Ry
     electric field correction =       0.00018612 Ry

     total magnetization       =    88.32 Bohr mag/cell
     absolute magnetization    =    89.69 Bohr mag/cell

     convergence has been achieved in  53 iterations

     negative rho (up, down):  1.047E-03 5.887E-04

     Forces acting on atoms (cartesian axes, Ry/au):

     atom    1 type  1   force =     0.02507485   -0.03082868    0.01863500
     atom    2 type  2   force =    -0.01379480   -0.00149203   -0.00984728
     atom    3 type  1   force =    -0.02311958   -0.01844085    0.01997168
     atom    4 type  1   force =     0.00571469    0.00408399   -0.00629560
     atom    5 type  1   force =    -0.00187458    0.00111793   -0.00499510
     atom    6 type  1   force =     0.00204975    0.00768194   -0.00879249
     atom    7 type  3   force =    -0.00773563    0.00116310   -0.01044944
     atom    8 type  3   force =    -0.03500019    0.05415579   -0.08330971
     atom    9 type  3   force =     0.03414260    0.03817028   -0.06430722
     atom   10 type  3   force =    -0.00305558   -0.00248139   -0.01161581
     atom   11 type  4   force =     0.00672770    0.00561963    0.01390074
     atom   12 type  4   force =    -0.00026403   -0.00291232    0.01488515
     atom   13 type  4   force =     0.00195400    0.00171789    0.01742102
     atom   14 type  4   force =    -0.00049274   -0.00128272    0.01273289
     atom   15 type  4   force =    -0.00066399    0.00458374   -0.00201920
     atom   16 type  4   force =    -0.00045815    0.00270373    0.04014911
     atom   17 type  4   force =     0.00174088    0.00816912    0.03765145
     atom   18 type  4   force =     0.00797145   -0.00445536   -0.00050925
     atom   19 type  4   force =     0.00045388    0.01191195    0.00425870
     atom   20 type  4   force =    -0.00961895   -0.02681889   -0.00368528
     atom   21 type  4   force =    -0.01112115   -0.00042678    0.00065397
     atom   22 type  4   force =    -0.03214239    0.00310585    0.00786255
     atom   23 type  4   force =     0.03212617    0.00057534    0.01409490
     atom   24 type  4   force =     0.00699041   -0.03702048    0.00378257
     atom   25 type  4   force =    -0.00313876    0.00170794    0.00393346
     atom   26 type  4   force =     0.01783870   -0.00686705    0.00078663
     atom   27 type  1   force =    -0.00525356   -0.00864705    0.00273651
     atom   28 type  2   force =    -0.01334146    0.00004281    0.00537421
     atom   29 type  1   force =     0.00301655   -0.00520583   -0.00117400
     atom   30 type  1   force =     0.00254736    0.00479174   -0.00110582
     atom   31 type  1   force =     0.00174219   -0.00464439    0.00049504
     atom   32 type  1   force =    -0.00075004    0.00117551   -0.00161674
     atom   33 type  3   force =    -0.00624098   -0.00191538   -0.00267289
     atom   34 type  3   force =    -0.00801303    0.00261604   -0.00029788
     atom   35 type  3   force =     0.00447401   -0.00069088    0.00276182
     atom   36 type  3   force =     0.00093904   -0.00220666   -0.00388009
     atom   37 type  4   force =     0.00866249    0.00543438    0.00773083
     atom   38 type  4   force =     0.00379261   -0.00086357   -0.01923720
     atom   39 type  4   force =    -0.00156676    0.00360338   -0.00990788
     atom   40 type  4   force =    -0.00141493   -0.00250210    0.00911241
     atom   41 type  4   force =    -0.00139871    0.00345396   -0.00681661
     atom   42 type  4   force =    -0.00426231   -0.00456819    0.01800917
     atom   43 type  4   force =     0.00768955    0.00338322    0.00771775
     atom   44 type  4   force =     0.00988571   -0.00559075   -0.00578088
     atom   45 type  4   force =     0.00284975    0.00469515    0.00056519
     atom   46 type  4   force =     0.00230126   -0.00006001   -0.00559928
     atom   47 type  4   force =    -0.01286503   -0.00024391   -0.00367458
     atom   48 type  4   force =    -0.01462986    0.00126104    0.00340245
     atom   49 type  4   force =     0.01352475    0.00252635    0.00440072
     atom   50 type  4   force =    -0.00272060   -0.00491297   -0.00048619
     atom   51 type  4   force =    -0.00525243    0.00149419    0.00051810
     atom   52 type  4   force =     0.01527214   -0.00407287   -0.00446412
     atom   53 type  1   force =     0.00001442   -0.00019019   -0.00005274
     atom   54 type  2   force =    -0.00012657   -0.00021280   -0.00041191
     atom   55 type  1   force =    -0.00006283   -0.00028066   -0.00027692
     atom   56 type  1   force =     0.00004676   -0.00031276   -0.00039219
     atom   57 type  1   force =    -0.00061531    0.00052969    0.00011014
     atom   58 type  1   force =     0.00063938    0.00080187   -0.00040581
     atom   59 type  3   force =     0.00038059    0.00022751   -0.00046384
     atom   60 type  3   force =     0.00007190   -0.00005186    0.00021625
     atom   61 type  3   force =     0.00022081   -0.00022047   -0.00001396
     atom   62 type  3   force =    -0.00066766   -0.00039025    0.00026703
     atom   63 type  4   force =     0.00039151    0.00020365   -0.00006747
     atom   64 type  4   force =     0.00019970   -0.00006515    0.00044448
     atom   65 type  4   force =    -0.00025228   -0.00027649    0.00029093
     atom   66 type  4   force =     0.00004475    0.00009501    0.00051969
     atom   67 type  4   force =    -0.00004757   -0.00022056   -0.00032785
     atom   68 type  4   force =     0.00065697    0.00022096    0.00013858
     atom   69 type  4   force =    -0.00048600   -0.00034027    0.00022216
     atom   70 type  4   force =     0.00045940   -0.00000440    0.00023256
     atom   71 type  4   force =    -0.00015725   -0.00037254   -0.00010158
     atom   72 type  4   force =    -0.00043159   -0.00020083   -0.00025211
     atom   73 type  4   force =     0.00022693    0.00030605    0.00015012
     atom   74 type  4   force =    -0.00005742   -0.00035725   -0.00051355
     atom   75 type  4   force =    -0.00016512   -0.00020869   -0.00024940
     atom   76 type  4   force =     0.00002321   -0.00005264   -0.00031679
     atom   77 type  4   force =     0.00014793   -0.00017400    0.00021115
     atom   78 type  4   force =    -0.00000796    0.00010910   -0.00018426
     atom   79 type  1   force =     0.02507256   -0.03083283    0.01863244
     atom   80 type  2   force =    -0.01371473   -0.00148742   -0.00988470
     atom   81 type  1   force =    -0.02310214   -0.01843661    0.01997119
     atom   82 type  1   force =     0.00569807    0.00409103   -0.00629491
     atom   83 type  1   force =    -0.00188044    0.00110927   -0.00499850
     atom   84 type  1   force =     0.00204549    0.00768206   -0.00879419
     atom   85 type  3   force =    -0.00772802    0.00117484   -0.01045636
     atom   86 type  3   force =    -0.03499501    0.05415368   -0.08331451
     atom   87 type  3   force =     0.03414893    0.03816985   -0.06430909
     atom   88 type  3   force =    -0.00306665   -0.00247877   -0.01161953
     atom   89 type  4   force =     0.00685025    0.00562446    0.01390610
     atom   90 type  4   force =    -0.00016639   -0.00282388    0.01488749
     atom   91 type  4   force =     0.00204671    0.00171205    0.01739220
     atom   92 type  4   force =    -0.00032694   -0.00127848    0.01273662
     atom   93 type  4   force =    -0.00065514    0.00479131   -0.00189086
     atom   94 type  4   force =    -0.00051930    0.00265841    0.03994889
     atom   95 type  4   force =     0.00187135    0.00817009    0.03765482
     atom   96 type  4   force =     0.00776474   -0.00447821   -0.00051006
     atom   97 type  4   force =     0.00055513    0.01198274    0.00415224
     atom   98 type  4   force =    -0.00951338   -0.02665189   -0.00365214
     atom   99 type  4   force =    -0.01114131   -0.00039200    0.00085109
     atom  100 type  4   force =    -0.03217157    0.00300035    0.00773808
     atom  101 type  4   force =     0.03215516    0.00057802    0.01410054
     atom  102 type  4   force =     0.00681122   -0.03702125    0.00378857
     atom  103 type  4   force =    -0.00304472    0.00164787    0.00390480
     atom  104 type  4   force =     0.01794359   -0.00686970    0.00078713
     atom  105 type  1   force =    -0.00528690   -0.00865585    0.00283705
     atom  106 type  2   force =    -0.01412238   -0.00053003    0.00586523
     atom  107 type  1   force =     0.00302311   -0.00509737   -0.00111441
     atom  108 type  1   force =     0.00379101    0.00338549    0.00191345
     atom  109 type  1   force =     0.00134731   -0.00471043    0.00039473
     atom  110 type  1   force =    -0.00084028    0.00114360   -0.00159396
     atom  111 type  3   force =    -0.00635661   -0.00074449   -0.00038869
     atom  112 type  3   force =    -0.00798370    0.00258836   -0.00025537
     atom  113 type  3   force =     0.00436461   -0.00059394    0.00290627
     atom  114 type  3   force =     0.00093781   -0.00175937   -0.00498329
     atom  115 type  4   force =     0.00832895    0.00488983    0.00727483
     atom  116 type  4   force =     0.00381610   -0.00088829   -0.01925320
     atom  117 type  4   force =    -0.00138817    0.00365602   -0.00992996
     atom  118 type  4   force =    -0.00173244   -0.00244562    0.00914261
     atom  119 type  4   force =    -0.00028857    0.00320160   -0.00614899
     atom  120 type  4   force =    -0.00422641   -0.00461873    0.01805308
     atom  121 type  4   force =     0.00773762    0.00338442    0.00774302
     atom  122 type  4   force =     0.01018195   -0.00489878   -0.00767090
     atom  123 type  4   force =     0.00275053    0.00432577    0.00050634
     atom  124 type  4   force =     0.00223556   -0.00011005   -0.00560756
     atom  125 type  4   force =    -0.01277806   -0.00010688   -0.00355996
     atom  126 type  4   force =    -0.01465022    0.00126053    0.00334349
     atom  127 type  4   force =     0.01355693    0.00245893    0.00454709
     atom  128 type  4   force =    -0.00285423   -0.00493325   -0.00049559
     atom  129 type  4   force =    -0.00502494    0.00144112   -0.00008753
     atom  130 type  4   force =     0.01585213   -0.00426798   -0.00432229
     atom  131 type  1   force =    -0.00020486   -0.00001795   -0.00017388
     atom  132 type  2   force =     0.00025212   -0.00020962   -0.00033793
     atom  133 type  1   force =    -0.00067137   -0.00002037   -0.00010755
     atom  134 type  1   force =     0.00068086   -0.00052496    0.00043499
     atom  135 type  1   force =    -0.00009841    0.00064405   -0.00062650
     atom  136 type  1   force =     0.00048587    0.00080089   -0.00001877
     atom  137 type  3   force =     0.00019556    0.00039494   -0.00040318
     atom  138 type  3   force =    -0.00030144    0.00036043    0.00026924
     atom  139 type  3   force =     0.00015528   -0.00037290    0.00015983
     atom  140 type  3   force =    -0.00037959   -0.00009233   -0.00034271
     atom  141 type  4   force =     0.00025766   -0.00016813    0.00046778
     atom  142 type  4   force =    -0.00037083    0.00036923    0.00032104
     atom  143 type  4   force =    -0.00035149   -0.00023836    0.00041282
     atom  144 type  4   force =    -0.00022327   -0.00033434    0.00006955
     atom  145 type  4   force =     0.00017930   -0.00031181   -0.00055781
     atom  146 type  4   force =     0.00068191   -0.00040526    0.00006624
     atom  147 type  4   force =     0.00003438    0.00001855    0.00040079
     atom  148 type  4   force =     0.00022985   -0.00060787   -0.00070008
     atom  149 type  4   force =    -0.00055010    0.00009588    0.00039652
     atom  150 type  4   force =    -0.00041694   -0.00034458   -0.00022391
     atom  151 type  4   force =    -0.00044023    0.00031928   -0.00011831
     atom  152 type  4   force =     0.00022559   -0.00034095   -0.00045954
     atom  153 type  4   force =    -0.00058956   -0.00034185    0.00002698
     atom  154 type  4   force =     0.00046948    0.00006526   -0.00009306
     atom  155 type  4   force =     0.00031578    0.00016808   -0.00005498
     atom  156 type  4   force =     0.00008096    0.00041880   -0.00034269
     atom  157 type  4   force =     0.00305109    0.00158851    0.00051036
     atom  158 type  5   force =    -0.00376471   -0.00243915   -0.00259422

     Total force =     0.262645     Total SCF correction =     0.002888
 
     init_run     :      7.95s CPU      8.59s WALL (       1 calls)
     electrons    :    831.45s CPU    867.89s WALL (       1 calls)
     forces       :      4.82s CPU      5.15s WALL (       1 calls)
     force_london :      0.08s CPU      0.08s WALL (       1 calls)

     Called by init_run:
     wfcinit      :      4.55s CPU      4.77s WALL (       1 calls)
     potinit      :      0.58s CPU      0.74s WALL (       1 calls)
     hinit0       :      1.62s CPU      1.70s WALL (       1 calls)

     Called by electrons:
     c_bands      :    665.73s CPU    686.70s WALL (      53 calls)
     sum_band     :    101.80s CPU    109.62s WALL (      53 calls)
     v_of_rho     :     14.16s CPU     15.60s WALL (      54 calls)
     newd         :     34.28s CPU     40.49s WALL (      54 calls)
     mix_rho      :     15.01s CPU     15.10s WALL (      53 calls)
     energy_londo :      0.09s CPU      0.09s WALL (       1 calls)

     Called by c_bands:
     init_us_2    :      1.36s CPU      1.39s WALL (     216 calls)
     init_us_2:cp :      1.36s CPU      1.39s WALL (     216 calls)
     regterg      :    654.21s CPU    675.03s WALL (     112 calls)

     Called by *egterg:
     rdiaghg      :    185.41s CPU    196.57s WALL (     564 calls)
     h_psi        :    234.58s CPU    238.87s WALL (     566 calls)
     s_psi        :     36.68s CPU     36.72s WALL (     566 calls)
     g_psi        :      0.26s CPU      0.27s WALL (     452 calls)

     Called by h_psi:
     h_psi:calbec :     63.30s CPU     66.74s WALL (     566 calls)
     vloc_psi     :    133.22s CPU    133.67s WALL (     566 calls)
     add_vuspsi   :     37.62s CPU     38.01s WALL (     566 calls)

     General routines
     calbec       :     91.49s CPU     96.41s WALL (     680 calls)
     fft          :     25.92s CPU     27.87s WALL (     985 calls)
     ffts         :      8.74s CPU      8.77s WALL (    6557 calls)
     fftw         :    150.78s CPU    151.28s WALL (  189206 calls)
     interpolate  :      1.18s CPU      1.33s WALL (     108 calls)
 
     Parallel routines
 
     PWSCF        :  14m 6.49s CPU  14m51.06s WALL

 
   This run was terminated on:   1:13:47  18Nov2025            

=------------------------------------------------------------------------------=
   JOB DONE.
=------------------------------------------------------------------------------=
