
     Program PWSCF v.7.2 starts on 17Nov2025 at 21:18:10 

     This program is part of the open-source Quantum ESPRESSO suite
     for quantum simulation of materials; please cite
         "P. Giannozzi et al., J. Phys.:Condens. Matter 21 395502 (2009);
         "P. Giannozzi et al., J. Phys.:Condens. Matter 29 465901 (2017);
         "P. Giannozzi et al., J. Chem. Phys. 152 154105 (2020);
          URL http://www.quantum-espresso.org", 
     in publications or presentations arising from this work. More details at
     http://www.quantum-espresso.org/quote

     Parallel version (MPI), running on    64 processors

     MPI processes distributed on     4 nodes
     465856 MiB available memory on the printing compute node when the environment starts
 
     Reading input from PWINPUT_atm157_xm

     Current dimensions of program PWSCF are:
     Max number of different atomic species (ntypx) = 10
     Max number of k-points (npk) =  40000
     Max angular momentum in pseudopotentials (lmaxx) =  4
     Presently no symmetry can be used with electric field

     file Ni.pbe-n-rrkjus_psl.1.0.0.UPF: wavefunction(s)  3D renormalized
     file Mn.pbe-spn-rrkjus_psl.0.3.1.UPF: wavefunction(s)  3D renormalized
     file O.pbe-rrkjus.UPF: wavefunction(s)  2S renormalized
     file H.pbe-rrkjus.UPF: wavefunction(s)  1S renormalized

     gamma-point specific algorithms are used
 
     R & G space division:  proc/nbgrp/npool/nimage =      64
     Subspace diagonalization in iterative solution of the eigenvalue problem:
     one sub-group per band group will be used
     custom distributed-memory algorithm (size of sub-group:  7*  7 procs)

 
     Parallelization info
     --------------------
     sticks:   dense  smooth     PW     G-vecs:    dense   smooth      PW
     Min         207      82     20                60552    15302    1896
     Max         210      84     22                60574    15336    1950
     Sum       13325    5345   1333              3876045   980655  122653
 
     Using Slab Decomposition
 


     bravais-lattice index     =            0
     lattice parameter (alat)  =      17.4067  a.u.
     unit-cell volume          =   20529.8182 (a.u.)^3
     number of atoms/cell      =          158
     number of atomic types    =            5
     number of electrons       =      1093.00
     number of Kohn-Sham states=          656
     kinetic-energy cutoff     =      50.0000  Ry
     charge density cutoff     =     500.0000  Ry
     scf convergence threshold =      1.0E-06
     mixing beta               =       0.1000
     number of iterations used =            8  local-TF  mixing
     Exchange-correlation=  SLA  PW   PBE  PBE
                           (   1   4   3   4   0   0   0)

     celldm(1)=  17.406729  celldm(2)=   0.000000  celldm(3)=   0.000000
     celldm(4)=   0.000000  celldm(5)=   0.000000  celldm(6)=   0.000000

     crystal axes: (cart. coord. in units of alat)
               a(1) = (   1.000000   0.000000   0.000000 )  
               a(2) = (  -0.001404   1.105696   0.000000 )  
               a(3) = (   0.000000   0.000000   3.520448 )  

     reciprocal axes: (cart. coord. in units 2 pi/alat)
               b(1) = (  1.000000  0.001270  0.000000 )  
               b(2) = (  0.000000  0.904408  0.000000 )  
               b(3) = (  0.000000  0.000000  0.284055 )  


     PseudoPot. # 1 for Ni read from file:
     ~/PSEUDO/Ni.pbe-n-rrkjus_psl.1.0.0.UPF
     MD5 check sum: Not computed, couldn't open file
     Pseudo is Ultrasoft + core correction, Zval = 10.0
     Generated using "atomic" code by A. Dal Corso  v.5.1.2
     Using radial grid of 1195 points,  6 beta functions with: 
                l(1) =   0
                l(2) =   0
                l(3) =   1
                l(4) =   1
                l(5) =   2
                l(6) =   2
     Q(r) pseudized with 0 coefficients 


     PseudoPot. # 2 for Mn read from file:
     ~/PSEUDO/Mn.pbe-spn-rrkjus_psl.0.3.1.UPF
     MD5 check sum: Not computed, couldn't open file
     Pseudo is Ultrasoft + core correction, Zval = 15.0
     Generated using &quot;atomic&quot; code by A. Dal Corso  v.6.2.2
     Using radial grid of 1187 points,  6 beta functions with: 
                l(1) =   0
                l(2) =   0
                l(3) =   1
                l(4) =   1
                l(5) =   2
                l(6) =   2
     Q(r) pseudized with 0 coefficients 


     PseudoPot. # 3 for P  read from file:
     ~/PSEUDO/P.pbe-n-rrkjus_psl.1.0.0.UPF
     MD5 check sum: Not computed, couldn't open file
     Pseudo is Ultrasoft + core correction, Zval =  5.0
     Generated using "atomic" code by A. Dal Corso  v.5.1
     Using radial grid of 1147 points,  6 beta functions with: 
                l(1) =   0
                l(2) =   0
                l(3) =   1
                l(4) =   1
                l(5) =   2
                l(6) =   2
     Q(r) pseudized with 0 coefficients 


     PseudoPot. # 4 for O  read from file:
     ~/PSEUDO/O.pbe-rrkjus.UPF
     MD5 check sum: Not computed, couldn't open file
     Pseudo is Ultrasoft, Zval =  6.0
     Generated by new atomic code, or converted to UPF format
     Using radial grid of 1269 points,  4 beta functions with: 
                l(1) =   0
                l(2) =   0
                l(3) =   1
                l(4) =   1
     Q(r) pseudized with 0 coefficients 


     PseudoPot. # 5 for H  read from file:
     ~/PSEUDO/H.pbe-rrkjus.UPF
     MD5 check sum: Not computed, couldn't open file
     Pseudo is Ultrasoft, Zval =  1.0
     Generated by new atomic code, or converted to UPF format
     Using radial grid of 1061 points,  2 beta functions with: 
                l(1) =   0
                l(2) =   0
     Q(r) pseudized with 0 coefficients 


     atomic species   valence    mass     pseudopotential
     Ni               10.00    58.69300     Ni( 1.00)
     Mn               15.00    54.93800     Mn( 1.00)
     P                 5.00    30.97300     P ( 1.00)
     O                 6.00    15.99900     O ( 1.00)
     H                 1.00     1.00790     H ( 1.00)

     Starting magnetic structure 
     atomic species   magnetization
     Ni              1.000
     Mn              1.000
     P               1.000
     O               1.000
     H               0.000

     No symmetry found



   Cartesian axes

     site n.     atom                  positions (alat units)
         1        Ni     tau(   1) = (   0.2421002   0.8609138   0.1302181  )
         2        Mn     tau(   2) = (   0.4924481   0.7886602   0.4655392  )
         3        Ni     tau(   3) = (   0.0052341   0.3031820   0.1284544  )
         4        Ni     tau(   4) = (   0.2570603   0.2374878   0.4617901  )
         5        Ni     tau(   5) = (   0.4976584   1.1048203   0.2964410  )
         6        Ni     tau(   6) = (   0.2495781   0.5440308   0.2953805  )
         7        P      tau(   7) = (   0.2083492   0.9982113   0.4588145  )
         8        P      tau(   8) = (   0.4584476   0.6559264   0.1347090  )
         9        P      tau(   9) = (   0.2889394   0.1031966   0.1319347  )
        10        P      tau(  10) = (   0.0400379   0.4338094   0.4586283  )
        11        O      tau(  11) = (   0.1314218   0.9248062   0.3189972  )
        12        O      tau(  12) = (   0.3797244   0.7272031   0.2742874  )
        13        O      tau(  13) = (   0.3662315   0.1762062   0.2720888  )
        14        O      tau(  14) = (   0.1171240   0.3646150   0.3169340  )
        15        O      tau(  15) = (   0.1510364   0.9068326   0.5881934  )
        16        O      tau(  16) = (   0.3981989   0.7453439   0.0053495  )
        17        O      tau(  17) = (   0.3490561   0.1888693   0.0010856  )
        18        O      tau(  18) = (   0.0982395   0.3475583   0.5894443  )
        19        O      tau(  19) = (   0.0992163   0.5918099   0.4542505  )
        20        O      tau(  20) = (   0.3467441   1.0504690   0.1405000  )
        21        O      tau(  21) = (   0.3739183   0.4303319   0.4477971  )
        22        O      tau(  22) = (   0.1230967   0.1088895   0.1422960  )
        23        O      tau(  23) = (   0.1242901   0.6635968   0.1442928  )
        24        O      tau(  24) = (   0.4011802   0.4971632   0.1376281  )
        25        O      tau(  25) = (   0.1484006   0.0497464   0.4550965  )
        26        O      tau(  26) = (   0.3736100   0.9942556   0.4492158  )
        27        Ni     tau(  27) = (   0.2413539   0.8509941   0.7820408  )
        28        Mn     tau(  28) = (   0.4917018   0.7787406   1.1173619  )
        29        Ni     tau(  29) = (   0.0044877   0.2932623   0.7802771  )
        30        Ni     tau(  30) = (   0.2563139   0.2275682   1.1136128  )
        31        Ni     tau(  31) = (   0.4969120   1.0949007   0.9482637  )
        32        Ni     tau(  32) = (   0.2488318   0.5341111   0.9472032  )
        33        P      tau(  33) = (   0.2076029   0.9882917   1.1106372  )
        34        P      tau(  34) = (   0.4577012   0.6460068   0.7865316  )
        35        P      tau(  35) = (   0.2881931   0.0932770   0.7837574  )
        36        P      tau(  36) = (   0.0392916   0.4238898   1.1104509  )
        37        O      tau(  37) = (   0.1306755   0.9148866   0.9708199  )
        38        O      tau(  38) = (   0.3789780   0.7172835   0.9261101  )
        39        O      tau(  39) = (   0.3654852   0.1662865   0.9239115  )
        40        O      tau(  40) = (   0.1163776   0.3546954   0.9687567  )
        41        O      tau(  41) = (   0.1502901   0.8969129   1.2400160  )
        42        O      tau(  42) = (   0.3974525   0.7354243   0.6571722  )
        43        O      tau(  43) = (   0.3483097   0.1789497   0.6529083  )
        44        O      tau(  44) = (   0.0974932   0.3376387   1.2412670  )
        45        O      tau(  45) = (   0.0984699   0.5818903   1.1060732  )
        46        O      tau(  46) = (   0.3459978   1.0405493   0.7923226  )
        47        O      tau(  47) = (   0.3731719   0.4204123   1.0996198  )
        48        O      tau(  48) = (   0.1223503   0.0989699   0.7941187  )
        49        O      tau(  49) = (   0.1235438   0.6536772   0.7961155  )
        50        O      tau(  50) = (   0.4004339   0.4872435   0.7894508  )
        51        O      tau(  51) = (   0.1476543   0.0398268   1.1069192  )
        52        O      tau(  52) = (   0.3728637   0.9843360   1.1010385  )
        53        Ni     tau(  53) = (   0.2408392   0.8320559   1.4307548  )
        54        Mn     tau(  54) = (   0.4954146   0.7586327   1.7610775  )
        55        Ni     tau(  55) = (   0.0038240   0.2752655   1.4301830  )
        56        Ni     tau(  56) = (   0.2490297   0.2126224   1.7413163  )
        57        Ni     tau(  57) = (   0.5009698   1.0727426   1.5934065  )
        58        Ni     tau(  58) = (   0.2431858   0.5187785   1.5959132  )
        59        P      tau(  59) = (   0.2122300   0.9646931   1.7577827  )
        60        P      tau(  60) = (   0.4560273   0.6255665   1.4349308  )
        61        P      tau(  61) = (   0.2895010   0.0747953   1.4294223  )
        62        P      tau(  62) = (   0.0342753   0.4049908   1.7624825  )
        63        O      tau(  63) = (   0.1360342   0.9011422   1.6115162  )
        64        O      tau(  64) = (   0.3787980   0.6986865   1.5736904  )
        65        O      tau(  65) = (   0.3677510   0.1474149   1.5681507  )
        66        O      tau(  66) = (   0.1091522   0.3445019   1.6130708  )
        67        O      tau(  67) = (   0.1535140   0.8654492   1.8774963  )
        68        O      tau(  68) = (   0.3948076   0.7176264   1.3082772  )
        69        O      tau(  69) = (   0.3502162   0.1643066   1.3009305  )
        70        O      tau(  70) = (   0.0993202   0.3091187   1.8805971  )
        71        O      tau(  71) = (   0.0903777   0.5660296   1.7630811  )
        72        O      tau(  72) = (   0.3492636   1.0227954   1.4341724  )
        73        O      tau(  73) = (   0.3646020   0.4001049   1.7428273  )
        74        O      tau(  74) = (   0.1232632   0.0821777   1.4436547  )
        75        O      tau(  75) = (   0.1218485   0.6357099   1.4465986  )
        76        O      tau(  76) = (   0.3950879   0.4683338   1.4358038  )
        77        O      tau(  77) = (   0.1575600   0.0186245   1.7589158  )
        78        O      tau(  78) = (   0.3794955   0.9564473   1.7469906  )
        79        Ni     tau(  79) = (   0.7421002   0.8609138   0.1302181  )
        80        Mn     tau(  80) = (   0.9924481   0.7886602   0.4655392  )
        81        Ni     tau(  81) = (   0.5052341   0.3031820   0.1284544  )
        82        Ni     tau(  82) = (   0.7570603   0.2374878   0.4617901  )
        83        Ni     tau(  83) = (   0.9976584   1.1048203   0.2964410  )
        84        Ni     tau(  84) = (   0.7495781   0.5440308   0.2953805  )
        85        P      tau(  85) = (   0.7083492   0.9982113   0.4588145  )
        86        P      tau(  86) = (   0.9584476   0.6559264   0.1347090  )
        87        P      tau(  87) = (   0.7889394   0.1031966   0.1319347  )
        88        P      tau(  88) = (   0.5400379   0.4338094   0.4586283  )
        89        O      tau(  89) = (   0.6314218   0.9248062   0.3189972  )
        90        O      tau(  90) = (   0.8797244   0.7272031   0.2742874  )
        91        O      tau(  91) = (   0.8662315   0.1762062   0.2720888  )
        92        O      tau(  92) = (   0.6171240   0.3646150   0.3169340  )
        93        O      tau(  93) = (   0.6510364   0.9068326   0.5881934  )
        94        O      tau(  94) = (   0.8981989   0.7453439   0.0053495  )
        95        O      tau(  95) = (   0.8490561   0.1888693   0.0010856  )
        96        O      tau(  96) = (   0.5982395   0.3475583   0.5894443  )
        97        O      tau(  97) = (   0.5992163   0.5918099   0.4542505  )
        98        O      tau(  98) = (   0.8467441   1.0504690   0.1405000  )
        99        O      tau(  99) = (   0.8739183   0.4303319   0.4477971  )
       100        O      tau( 100) = (   0.6230967   0.1088895   0.1422960  )
       101        O      tau( 101) = (   0.6242901   0.6635968   0.1442928  )
       102        O      tau( 102) = (   0.9011802   0.4971632   0.1376281  )
       103        O      tau( 103) = (   0.6484006   0.0497464   0.4550965  )
       104        O      tau( 104) = (   0.8736100   0.9942556   0.4492158  )
       105        Ni     tau( 105) = (   0.7413539   0.8509941   0.7820408  )
       106        Mn     tau( 106) = (   0.9917018   0.7787406   1.1173619  )
       107        Ni     tau( 107) = (   0.5044877   0.2932623   0.7802771  )
       108        Ni     tau( 108) = (   0.7563139   0.2275682   1.1136128  )
       109        Ni     tau( 109) = (   0.9969120   1.0949007   0.9482637  )
       110        Ni     tau( 110) = (   0.7488318   0.5341111   0.9472032  )
       111        P      tau( 111) = (   0.7076029   0.9882917   1.1106372  )
       112        P      tau( 112) = (   0.9577012   0.6460068   0.7865316  )
       113        P      tau( 113) = (   0.7881931   0.0932770   0.7837574  )
       114        P      tau( 114) = (   0.5392916   0.4238898   1.1104509  )
       115        O      tau( 115) = (   0.6306755   0.9148866   0.9708199  )
       116        O      tau( 116) = (   0.8789780   0.7172835   0.9261101  )
       117        O      tau( 117) = (   0.8654852   0.1662865   0.9239115  )
       118        O      tau( 118) = (   0.6163776   0.3546954   0.9687567  )
       119        O      tau( 119) = (   0.6502901   0.8969129   1.2400160  )
       120        O      tau( 120) = (   0.8974525   0.7354243   0.6571722  )
       121        O      tau( 121) = (   0.8483097   0.1789497   0.6529083  )
       122        O      tau( 122) = (   0.5974932   0.3376387   1.2412670  )
       123        O      tau( 123) = (   0.5984699   0.5818903   1.1060732  )
       124        O      tau( 124) = (   0.8459978   1.0405493   0.7923226  )
       125        O      tau( 125) = (   0.8731719   0.4204123   1.0996198  )
       126        O      tau( 126) = (   0.6223503   0.0989699   0.7941187  )
       127        O      tau( 127) = (   0.6235438   0.6536772   0.7961155  )
       128        O      tau( 128) = (   0.9004339   0.4872435   0.7894508  )
       129        O      tau( 129) = (   0.6476543   0.0398268   1.1069192  )
       130        O      tau( 130) = (   0.8728637   0.9843360   1.1010385  )
       131        Ni     tau( 131) = (   0.7412940   0.8317433   1.4310133  )
       132        Mn     tau( 132) = (   0.9942976   0.7631104   1.7617718  )
       133        Ni     tau( 133) = (   0.5047574   0.2752797   1.4288709  )
       134        Ni     tau( 134) = (   0.7578350   0.2028549   1.7762646  )
       135        Ni     tau( 135) = (   0.9991757   1.0753039   1.5972728  )
       136        Ni     tau( 136) = (   0.7442600   0.5152897   1.5986856  )
       137        P      tau( 137) = (   0.7103622   0.9612778   1.7571285  )
       138        P      tau( 138) = (   0.9553703   0.6259627   1.4358934  )
       139        P      tau( 139) = (   0.7893263   0.0766982   1.4325513  )
       140        P      tau( 140) = (   0.5325678   0.3983667   1.7561030  )
       141        O      tau( 141) = (   0.6347348   0.8960507   1.6104236  )
       142        O      tau( 142) = (   0.8786872   0.6982692   1.5748233  )
       143        O      tau( 143) = (   0.8656120   0.1503721   1.5709854  )
       144        O      tau( 144) = (   0.6103215   0.3431354   1.6091064  )
       145        O      tau( 145) = (   0.6551320   0.8592875   1.8763947  )
       146        O      tau( 146) = (   0.8944353   0.7174045   1.3087138  )
       147        O      tau( 147) = (   0.8496681   0.1651992   1.3026615  )
       148        O      tau( 148) = (   0.5874463   0.2980729   1.8752625  )
       149        O      tau( 149) = (   0.5882302   0.5598447   1.7638488  )
       150        O      tau( 150) = (   0.8489894   1.0242576   1.4369886  )
       151        O      tau( 151) = (   0.8668845   0.4032412   1.7522286  )
       152        O      tau( 152) = (   0.6225444   0.0814235   1.4420664  )
       153        O      tau( 153) = (   0.6223363   0.6337860   1.4464754  )
       154        O      tau( 154) = (   0.8959961   0.4681766   1.4379317  )
       155        O      tau( 155) = (   0.6491461   0.0122190   1.7550753  )
       156        O      tau( 156) = (   0.8775761   0.9554460   1.7441695  )
       157        O      tau( 157) = (   0.8692325   0.1184006   1.9156559  )
       158        H      tau( 158) = (   0.9557521   0.1787018   1.9403932  )

     -------------------------------------------------
     Parameters for Dispersion (Grimme-D2) Correction:
     -------------------------------------------------
       atom      VdW radius       C_6     

        Ni         2.952        374.666
        Mn         2.952        374.666
        P          3.222        271.980
        O          2.536         24.284
        H          1.892          4.857

     number of k points=     1  Gaussian smearing, width (Ry)=  0.0100
                       cart. coord. in units 2pi/alat
        k(    1) = (   0.0000000   0.0000000   0.0000000), wk =   1.0000000

     Dense  grid:  1938023 G-vectors     FFT dimensions: ( 125, 144, 450)

     Smooth grid:   490328 G-vectors     FFT dimensions: (  80,  90, 288)

     Estimated max dynamical RAM per process >     326.29 MB

     Estimated total dynamical RAM >      20.39 GB

     Check: negative core charge=   -0.000001
     Generating pointlists ...
     new r_m :   0.0814 (alat units)  1.4175 (a.u.) for type    1
     new r_m :   0.0904 (alat units)  1.5743 (a.u.) for type    2
     new r_m :   0.0681 (alat units)  1.1857 (a.u.) for type    3
     new r_m :   0.0447 (alat units)  0.7778 (a.u.) for type    4
     new r_m :   0.0447 (alat units)  0.7778 (a.u.) for type    5

     Initial potential from superposition of free atoms

     starting charge    1092.8893, renormalised to    1093.0000

     negative rho (up, down):  1.375E-03 4.556E-04
 
     Adding external electric field

     Computed dipole along edir(3) : 
        Dipole                1.6484 Ry au,          4.1898 Debye
        Dipole field          0.0010 Ry au, 
 
        Potential amp.       -0.1113 Ry
        Total length         55.1515 bohr
 
 
     Adding external electric field

     Computed dipole along edir(3) : 
        Dipole                1.6484 Ry au,          4.1898 Debye
        Dipole field          0.0010 Ry au, 
 
        Potential amp.       -0.1113 Ry
        Total length         55.1515 bohr
 
     Starting wfcs are  815 randomized atomic wfcs

     total cpu time spent up to now is       10.5 secs

     Self-consistent Calculation

     iteration #  1     ecut=    50.00 Ry     beta= 0.10
     Davidson diagonalization with overlap
     ethr =  1.00E-02,  avg # of iterations =  6.0

     negative rho (up, down):  3.872E-01 1.480E-06
 
     Adding external electric field

     Computed dipole along edir(3) : 
        Dipole               -3.5471 Ry au,         -9.0159 Debye
        Dipole field         -0.0022 Ry au, 
 
        Potential amp.        0.2395 Ry
        Total length         55.1515 bohr
 
 
     Adding external electric field

     Computed dipole along edir(3) : 
        Dipole               -3.5471 Ry au,         -9.0159 Debye
        Dipole field         -0.0022 Ry au, 
 
        Potential amp.        0.2395 Ry
        Total length         55.1515 bohr
 

     total cpu time spent up to now is       38.3 secs

     total energy              =   -7518.16047179 Ry
     estimated scf accuracy    <     751.73304616 Ry

     total magnetization       =   219.00 Bohr mag/cell
     absolute magnetization    =   307.81 Bohr mag/cell

     iteration #  2     ecut=    50.00 Ry     beta= 0.10
     Davidson diagonalization with overlap
     ethr =  1.00E-02,  avg # of iterations =  2.0

     negative rho (up, down):  3.623E-01 9.271E-07
 
     Adding external electric field

     Computed dipole along edir(3) : 
        Dipole               -2.4676 Ry au,         -6.2719 Debye
        Dipole field         -0.0015 Ry au, 
 
        Potential amp.        0.1666 Ry
        Total length         55.1515 bohr
 
 
     Adding external electric field

     Computed dipole along edir(3) : 
        Dipole               -2.4676 Ry au,         -6.2719 Debye
        Dipole field         -0.0015 Ry au, 
 
        Potential amp.        0.1666 Ry
        Total length         55.1515 bohr
 

     total cpu time spent up to now is       54.6 secs

     total energy              =   -7601.55762145 Ry
     estimated scf accuracy    <     188.66846633 Ry

     total magnetization       =   156.73 Bohr mag/cell
     absolute magnetization    =   205.92 Bohr mag/cell

     iteration #  3     ecut=    50.00 Ry     beta= 0.10
     Davidson diagonalization with overlap
     ethr =  1.00E-02,  avg # of iterations =  1.5

     negative rho (up, down):  3.189E-01 8.416E-07
 
     Adding external electric field

     Computed dipole along edir(3) : 
        Dipole               -2.0800 Ry au,         -5.2870 Debye
        Dipole field         -0.0013 Ry au, 
 
        Potential amp.        0.1404 Ry
        Total length         55.1515 bohr
 
 
     Adding external electric field

     Computed dipole along edir(3) : 
        Dipole               -2.0800 Ry au,         -5.2870 Debye
        Dipole field         -0.0013 Ry au, 
 
        Potential amp.        0.1404 Ry
        Total length         55.1515 bohr
 

     total cpu time spent up to now is       67.8 secs

     total energy              =   -7633.24762680 Ry
     estimated scf accuracy    <     101.92826804 Ry

     total magnetization       =   133.54 Bohr mag/cell
     absolute magnetization    =   184.89 Bohr mag/cell

     iteration #  4     ecut=    50.00 Ry     beta= 0.10
     Davidson diagonalization with overlap
     ethr =  9.33E-03,  avg # of iterations =  1.5

     negative rho (up, down):  2.489E-01 4.261E-07
 
     Adding external electric field

     Computed dipole along edir(3) : 
        Dipole               -2.0419 Ry au,         -5.1899 Debye
        Dipole field         -0.0012 Ry au, 
 
        Potential amp.        0.1379 Ry
        Total length         55.1515 bohr
 
 
     Adding external electric field

     Computed dipole along edir(3) : 
        Dipole               -2.0419 Ry au,         -5.1899 Debye
        Dipole field         -0.0012 Ry au, 
 
        Potential amp.        0.1379 Ry
        Total length         55.1515 bohr
 

     total cpu time spent up to now is       80.5 secs

     total energy              =   -7664.37499436 Ry
     estimated scf accuracy    <      80.88894708 Ry

     total magnetization       =   117.10 Bohr mag/cell
     absolute magnetization    =   169.95 Bohr mag/cell

     iteration #  5     ecut=    50.00 Ry     beta= 0.10
     Davidson diagonalization with overlap
     ethr =  7.40E-03,  avg # of iterations =  1.0

     negative rho (up, down):  2.016E-02 1.866E-07
 
     Adding external electric field

     Computed dipole along edir(3) : 
        Dipole               -1.6045 Ry au,         -4.0781 Debye
        Dipole field         -0.0010 Ry au, 
 
        Potential amp.        0.1083 Ry
        Total length         55.1515 bohr
 
 
     Adding external electric field

     Computed dipole along edir(3) : 
        Dipole               -1.6045 Ry au,         -4.0781 Debye
        Dipole field         -0.0010 Ry au, 
 
        Potential amp.        0.1083 Ry
        Total length         55.1515 bohr
 

     total cpu time spent up to now is       92.3 secs

     total energy              =   -7724.61353353 Ry
     estimated scf accuracy    <      65.22582274 Ry

     total magnetization       =    97.18 Bohr mag/cell
     absolute magnetization    =   152.24 Bohr mag/cell

     iteration #  6     ecut=    50.00 Ry     beta= 0.10
     Davidson diagonalization with overlap
     ethr =  5.97E-03,  avg # of iterations =  1.0

     negative rho (up, down):  3.544E-04 5.690E-04
 
     Adding external electric field

     Computed dipole along edir(3) : 
        Dipole               -1.1306 Ry au,         -2.8736 Debye
        Dipole field         -0.0007 Ry au, 
 
        Potential amp.        0.0763 Ry
        Total length         55.1515 bohr
 
 
     Adding external electric field

     Computed dipole along edir(3) : 
        Dipole               -1.1306 Ry au,         -2.8736 Debye
        Dipole field         -0.0007 Ry au, 
 
        Potential amp.        0.0763 Ry
        Total length         55.1515 bohr
 

     total cpu time spent up to now is      104.5 secs

     total energy              =   -7736.02515582 Ry
     estimated scf accuracy    <      13.59308248 Ry

     total magnetization       =    91.00 Bohr mag/cell
     absolute magnetization    =   123.58 Bohr mag/cell

     iteration #  7     ecut=    50.00 Ry     beta= 0.10
     Davidson diagonalization with overlap
     ethr =  1.24E-03,  avg # of iterations =  6.0

     negative rho (up, down):  3.374E-04 5.502E-04
 
     Adding external electric field

     Computed dipole along edir(3) : 
        Dipole               -1.1256 Ry au,         -2.8609 Debye
        Dipole field         -0.0007 Ry au, 
 
        Potential amp.        0.0760 Ry
        Total length         55.1515 bohr
 
 
     Adding external electric field

     Computed dipole along edir(3) : 
        Dipole               -1.1256 Ry au,         -2.8609 Debye
        Dipole field         -0.0007 Ry au, 
 
        Potential amp.        0.0760 Ry
        Total length         55.1515 bohr
 

     total cpu time spent up to now is      125.7 secs

     total energy              =   -7738.37382540 Ry
     estimated scf accuracy    <      26.17149978 Ry

     total magnetization       =    69.96 Bohr mag/cell
     absolute magnetization    =    87.29 Bohr mag/cell

     iteration #  8     ecut=    50.00 Ry     beta= 0.10
     Davidson diagonalization with overlap
     ethr =  1.24E-03,  avg # of iterations =  1.0

     negative rho (up, down):  2.920E-04 4.967E-04
 
     Adding external electric field

     Computed dipole along edir(3) : 
        Dipole               -1.1096 Ry au,         -2.8203 Debye
        Dipole field         -0.0007 Ry au, 
 
        Potential amp.        0.0749 Ry
        Total length         55.1515 bohr
 
 
     Adding external electric field

     Computed dipole along edir(3) : 
        Dipole               -1.1096 Ry au,         -2.8203 Debye
        Dipole field         -0.0007 Ry au, 
 
        Potential amp.        0.0749 Ry
        Total length         55.1515 bohr
 

     total cpu time spent up to now is      137.0 secs

     total energy              =   -7738.32758147 Ry
     estimated scf accuracy    <      24.82614382 Ry

     total magnetization       =    70.39 Bohr mag/cell
     absolute magnetization    =    87.25 Bohr mag/cell

     iteration #  9     ecut=    50.00 Ry     beta= 0.10
     Davidson diagonalization with overlap
     ethr =  1.24E-03,  avg # of iterations =  1.0

     negative rho (up, down):  2.036E-04 5.545E-04
 
     Adding external electric field

     Computed dipole along edir(3) : 
        Dipole               -1.0043 Ry au,         -2.5527 Debye
        Dipole field         -0.0006 Ry au, 
 
        Potential amp.        0.0678 Ry
        Total length         55.1515 bohr
 
 
     Adding external electric field

     Computed dipole along edir(3) : 
        Dipole               -1.0043 Ry au,         -2.5527 Debye
        Dipole field         -0.0006 Ry au, 
 
        Potential amp.        0.0678 Ry
        Total length         55.1515 bohr
 

     total cpu time spent up to now is      148.9 secs

     total energy              =   -7737.64455990 Ry
     estimated scf accuracy    <      22.16272123 Ry

     total magnetization       =    70.96 Bohr mag/cell
     absolute magnetization    =    87.16 Bohr mag/cell

     iteration # 10     ecut=    50.00 Ry     beta= 0.10
     Davidson diagonalization with overlap
     ethr =  1.24E-03,  avg # of iterations =  1.0

     negative rho (up, down):  2.966E-04 9.436E-04
 
     Adding external electric field

     Computed dipole along edir(3) : 
        Dipole               -0.9792 Ry au,         -2.4888 Debye
        Dipole field         -0.0006 Ry au, 
 
        Potential amp.        0.0661 Ry
        Total length         55.1515 bohr
 
 
     Adding external electric field

     Computed dipole along edir(3) : 
        Dipole               -0.9792 Ry au,         -2.4888 Debye
        Dipole field         -0.0006 Ry au, 
 
        Potential amp.        0.0661 Ry
        Total length         55.1515 bohr
 

     total cpu time spent up to now is      160.3 secs

     total energy              =   -7737.91387257 Ry
     estimated scf accuracy    <       5.82121668 Ry

     total magnetization       =    80.04 Bohr mag/cell
     absolute magnetization    =    91.64 Bohr mag/cell

     iteration # 11     ecut=    50.00 Ry     beta= 0.10
     Davidson diagonalization with overlap
     ethr =  5.33E-04,  avg # of iterations =  2.0

     negative rho (up, down):  3.009E-04 8.287E-04
 
     Adding external electric field

     Computed dipole along edir(3) : 
        Dipole               -1.0362 Ry au,         -2.6337 Debye
        Dipole field         -0.0006 Ry au, 
 
        Potential amp.        0.0700 Ry
        Total length         55.1515 bohr
 
 
     Adding external electric field

     Computed dipole along edir(3) : 
        Dipole               -1.0362 Ry au,         -2.6337 Debye
        Dipole field         -0.0006 Ry au, 
 
        Potential amp.        0.0700 Ry
        Total length         55.1515 bohr
 

     total cpu time spent up to now is      173.0 secs

     total energy              =   -7737.95324594 Ry
     estimated scf accuracy    <       4.06075348 Ry

     total magnetization       =    83.45 Bohr mag/cell
     absolute magnetization    =    93.49 Bohr mag/cell

     iteration # 12     ecut=    50.00 Ry     beta= 0.10
     Davidson diagonalization with overlap
     ethr =  3.72E-04,  avg # of iterations =  1.0

     negative rho (up, down):  2.110E-04 7.616E-04
 
     Adding external electric field

     Computed dipole along edir(3) : 
        Dipole               -1.0703 Ry au,         -2.7205 Debye
        Dipole field         -0.0007 Ry au, 
 
        Potential amp.        0.0723 Ry
        Total length         55.1515 bohr
 
 
     Adding external electric field

     Computed dipole along edir(3) : 
        Dipole               -1.0703 Ry au,         -2.7205 Debye
        Dipole field         -0.0007 Ry au, 
 
        Potential amp.        0.0723 Ry
        Total length         55.1515 bohr
 

     total cpu time spent up to now is      184.3 secs

     total energy              =   -7737.95344644 Ry
     estimated scf accuracy    <       2.92026279 Ry

     total magnetization       =    83.49 Bohr mag/cell
     absolute magnetization    =    93.33 Bohr mag/cell

     iteration # 13     ecut=    50.00 Ry     beta= 0.10
     Davidson diagonalization with overlap
     ethr =  2.67E-04,  avg # of iterations =  2.0

     negative rho (up, down):  2.601E-04 1.249E-03
 
     Adding external electric field

     Computed dipole along edir(3) : 
        Dipole               -1.1084 Ry au,         -2.8173 Debye
        Dipole field         -0.0007 Ry au, 
 
        Potential amp.        0.0748 Ry
        Total length         55.1515 bohr
 
 
     Adding external electric field

     Computed dipole along edir(3) : 
        Dipole               -1.1084 Ry au,         -2.8173 Debye
        Dipole field         -0.0007 Ry au, 
 
        Potential amp.        0.0748 Ry
        Total length         55.1515 bohr
 

     total cpu time spent up to now is      197.0 secs

     total energy              =   -7737.97877035 Ry
     estimated scf accuracy    <       2.81034218 Ry

     total magnetization       =    82.06 Bohr mag/cell
     absolute magnetization    =    91.50 Bohr mag/cell

     iteration # 14     ecut=    50.00 Ry     beta= 0.10
     Davidson diagonalization with overlap
     ethr =  2.57E-04,  avg # of iterations =  1.5

     negative rho (up, down):  2.783E-04 1.101E-03
 
     Adding external electric field

     Computed dipole along edir(3) : 
        Dipole               -1.0195 Ry au,         -2.5912 Debye
        Dipole field         -0.0006 Ry au, 
 
        Potential amp.        0.0688 Ry
        Total length         55.1515 bohr
 
 
     Adding external electric field

     Computed dipole along edir(3) : 
        Dipole               -1.0195 Ry au,         -2.5912 Debye
        Dipole field         -0.0006 Ry au, 
 
        Potential amp.        0.0688 Ry
        Total length         55.1515 bohr
 

     total cpu time spent up to now is      209.1 secs

     total energy              =   -7738.04538016 Ry
     estimated scf accuracy    <       1.65772767 Ry

     total magnetization       =    84.96 Bohr mag/cell
     absolute magnetization    =    92.88 Bohr mag/cell

     iteration # 15     ecut=    50.00 Ry     beta= 0.10
     Davidson diagonalization with overlap
     ethr =  1.52E-04,  avg # of iterations =  1.5

     negative rho (up, down):  4.115E-05 2.523E-04
 
     Adding external electric field

     Computed dipole along edir(3) : 
        Dipole               -0.7977 Ry au,         -2.0275 Debye
        Dipole field         -0.0005 Ry au, 
 
        Potential amp.        0.0539 Ry
        Total length         55.1515 bohr
 
 
     Adding external electric field

     Computed dipole along edir(3) : 
        Dipole               -0.7977 Ry au,         -2.0275 Debye
        Dipole field         -0.0005 Ry au, 
 
        Potential amp.        0.0539 Ry
        Total length         55.1515 bohr
 

     total cpu time spent up to now is      220.6 secs

     total energy              =   -7738.15789601 Ry
     estimated scf accuracy    <       0.45811063 Ry

     total magnetization       =    87.91 Bohr mag/cell
     absolute magnetization    =    94.78 Bohr mag/cell

     iteration # 16     ecut=    50.00 Ry     beta= 0.10
     Davidson diagonalization with overlap
     ethr =  4.19E-05,  avg # of iterations = 10.5

     negative rho (up, down):  1.539E-06 4.539E-05
 
     Adding external electric field

     Computed dipole along edir(3) : 
        Dipole               -0.6214 Ry au,         -1.5795 Debye
        Dipole field         -0.0004 Ry au, 
 
        Potential amp.        0.0420 Ry
        Total length         55.1515 bohr
 
 
     Adding external electric field

     Computed dipole along edir(3) : 
        Dipole               -0.6214 Ry au,         -1.5795 Debye
        Dipole field         -0.0004 Ry au, 
 
        Potential amp.        0.0420 Ry
        Total length         55.1515 bohr
 

     total cpu time spent up to now is      241.2 secs

     total energy              =   -7738.23145946 Ry
     estimated scf accuracy    <       1.54820555 Ry

     total magnetization       =    87.79 Bohr mag/cell
     absolute magnetization    =    93.39 Bohr mag/cell

     iteration # 17     ecut=    50.00 Ry     beta= 0.10
     Davidson diagonalization with overlap
     ethr =  4.19E-05,  avg # of iterations =  1.5

     negative rho (up, down):  1.026E-06 9.013E-05
 
     Adding external electric field

     Computed dipole along edir(3) : 
        Dipole               -0.6736 Ry au,         -1.7121 Debye
        Dipole field         -0.0004 Ry au, 
 
        Potential amp.        0.0455 Ry
        Total length         55.1515 bohr
 
 
     Adding external electric field

     Computed dipole along edir(3) : 
        Dipole               -0.6736 Ry au,         -1.7121 Debye
        Dipole field         -0.0004 Ry au, 
 
        Potential amp.        0.0455 Ry
        Total length         55.1515 bohr
 

     total cpu time spent up to now is      253.0 secs

     total energy              =   -7738.22170257 Ry
     estimated scf accuracy    <       1.94489672 Ry

     total magnetization       =    86.66 Bohr mag/cell
     absolute magnetization    =    90.62 Bohr mag/cell

     iteration # 18     ecut=    50.00 Ry     beta= 0.10
     Davidson diagonalization with overlap
     ethr =  4.19E-05,  avg # of iterations =  1.5

     negative rho (up, down):  5.964E-07 1.001E-04
 
     Adding external electric field

     Computed dipole along edir(3) : 
        Dipole               -0.6478 Ry au,         -1.6465 Debye
        Dipole field         -0.0004 Ry au, 
 
        Potential amp.        0.0437 Ry
        Total length         55.1515 bohr
 
 
     Adding external electric field

     Computed dipole along edir(3) : 
        Dipole               -0.6478 Ry au,         -1.6465 Debye
        Dipole field         -0.0004 Ry au, 
 
        Potential amp.        0.0437 Ry
        Total length         55.1515 bohr
 

     total cpu time spent up to now is      265.0 secs

     total energy              =   -7738.23448487 Ry
     estimated scf accuracy    <       0.87457253 Ry

     total magnetization       =    86.73 Bohr mag/cell
     absolute magnetization    =    90.40 Bohr mag/cell

     iteration # 19     ecut=    50.00 Ry     beta= 0.10
     Davidson diagonalization with overlap
     ethr =  4.19E-05,  avg # of iterations =  1.0

     negative rho (up, down):  4.524E-06 3.312E-04
 
     Adding external electric field

     Computed dipole along edir(3) : 
        Dipole               -0.7470 Ry au,         -1.8987 Debye
        Dipole field         -0.0005 Ry au, 
 
        Potential amp.        0.0504 Ry
        Total length         55.1515 bohr
 
 
     Adding external electric field

     Computed dipole along edir(3) : 
        Dipole               -0.7470 Ry au,         -1.8987 Debye
        Dipole field         -0.0005 Ry au, 
 
        Potential amp.        0.0504 Ry
        Total length         55.1515 bohr
 

     total cpu time spent up to now is      275.9 secs

     total energy              =   -7738.20422743 Ry
     estimated scf accuracy    <       0.94508028 Ry

     total magnetization       =    86.85 Bohr mag/cell
     absolute magnetization    =    90.19 Bohr mag/cell

     iteration # 20     ecut=    50.00 Ry     beta= 0.10
     Davidson diagonalization with overlap
     ethr =  4.19E-05,  avg # of iterations =  1.5

     negative rho (up, down):  3.447E-07 3.067E-04
 
     Adding external electric field

     Computed dipole along edir(3) : 
        Dipole               -0.5224 Ry au,         -1.3279 Debye
        Dipole field         -0.0003 Ry au, 
 
        Potential amp.        0.0353 Ry
        Total length         55.1515 bohr
 
 
     Adding external electric field

     Computed dipole along edir(3) : 
        Dipole               -0.5224 Ry au,         -1.3279 Debye
        Dipole field         -0.0003 Ry au, 
 
        Potential amp.        0.0353 Ry
        Total length         55.1515 bohr
 

     total cpu time spent up to now is      287.6 secs

     total energy              =   -7738.26354704 Ry
     estimated scf accuracy    <       0.14092244 Ry

     total magnetization       =    87.75 Bohr mag/cell
     absolute magnetization    =    90.99 Bohr mag/cell

     iteration # 21     ecut=    50.00 Ry     beta= 0.10
     Davidson diagonalization with overlap
     c_bands:  3 eigenvalues not converged
     ethr =  1.29E-05,  avg # of iterations = 15.0

     negative rho (up, down):  3.578E-07 7.878E-05
 
     Adding external electric field

     Computed dipole along edir(3) : 
        Dipole               -0.4342 Ry au,         -1.1037 Debye
        Dipole field         -0.0003 Ry au, 
 
        Potential amp.        0.0293 Ry
        Total length         55.1515 bohr
 
 
     Adding external electric field

     Computed dipole along edir(3) : 
        Dipole               -0.4342 Ry au,         -1.1037 Debye
        Dipole field         -0.0003 Ry au, 
 
        Potential amp.        0.0293 Ry
        Total length         55.1515 bohr
 

     total cpu time spent up to now is      311.8 secs

     total energy              =   -7738.30326481 Ry
     estimated scf accuracy    <       0.29764317 Ry

     total magnetization       =    87.70 Bohr mag/cell
     absolute magnetization    =    89.47 Bohr mag/cell

     iteration # 22     ecut=    50.00 Ry     beta= 0.10
     Davidson diagonalization with overlap
     ethr =  1.29E-05,  avg # of iterations =  2.0

     negative rho (up, down):  3.780E-07 8.601E-05
 
     Adding external electric field

     Computed dipole along edir(3) : 
        Dipole               -0.4165 Ry au,         -1.0587 Debye
        Dipole field         -0.0003 Ry au, 
 
        Potential amp.        0.0281 Ry
        Total length         55.1515 bohr
 
 
     Adding external electric field

     Computed dipole along edir(3) : 
        Dipole               -0.4165 Ry au,         -1.0587 Debye
        Dipole field         -0.0003 Ry au, 
 
        Potential amp.        0.0281 Ry
        Total length         55.1515 bohr
 

     total cpu time spent up to now is      324.2 secs

     total energy              =   -7738.30440576 Ry
     estimated scf accuracy    <       0.28143931 Ry

     total magnetization       =    88.23 Bohr mag/cell
     absolute magnetization    =    89.91 Bohr mag/cell

     iteration # 23     ecut=    50.00 Ry     beta= 0.10
     Davidson diagonalization with overlap
     ethr =  1.29E-05,  avg # of iterations =  1.0

     negative rho (up, down):  1.887E-08 5.757E-05
 
     Adding external electric field

     Computed dipole along edir(3) : 
        Dipole               -0.3831 Ry au,         -0.9737 Debye
        Dipole field         -0.0002 Ry au, 
 
        Potential amp.        0.0259 Ry
        Total length         55.1515 bohr
 
 
     Adding external electric field

     Computed dipole along edir(3) : 
        Dipole               -0.3831 Ry au,         -0.9737 Debye
        Dipole field         -0.0002 Ry au, 
 
        Potential amp.        0.0259 Ry
        Total length         55.1515 bohr
 

     total cpu time spent up to now is      335.0 secs

     total energy              =   -7738.30111354 Ry
     estimated scf accuracy    <       0.29031099 Ry

     total magnetization       =    88.20 Bohr mag/cell
     absolute magnetization    =    89.78 Bohr mag/cell

     iteration # 24     ecut=    50.00 Ry     beta= 0.10
     Davidson diagonalization with overlap
     ethr =  1.29E-05,  avg # of iterations =  1.5

     negative rho (up, down):  2.754E-11 4.255E-07
 
     Adding external electric field

     Computed dipole along edir(3) : 
        Dipole               -0.3241 Ry au,         -0.8237 Debye
        Dipole field         -0.0002 Ry au, 
 
        Potential amp.        0.0219 Ry
        Total length         55.1515 bohr
 
 
     Adding external electric field

     Computed dipole along edir(3) : 
        Dipole               -0.3241 Ry au,         -0.8237 Debye
        Dipole field         -0.0002 Ry au, 
 
        Potential amp.        0.0219 Ry
        Total length         55.1515 bohr
 

     total cpu time spent up to now is      346.7 secs

     total energy              =   -7738.30695446 Ry
     estimated scf accuracy    <       0.26908058 Ry

     total magnetization       =    87.87 Bohr mag/cell
     absolute magnetization    =    89.40 Bohr mag/cell

     iteration # 25     ecut=    50.00 Ry     beta= 0.10
     Davidson diagonalization with overlap
     ethr =  1.29E-05,  avg # of iterations =  1.5

     negative rho (up, down):  3.824E-07 2.162E-06
 
     Adding external electric field

     Computed dipole along edir(3) : 
        Dipole               -0.3324 Ry au,         -0.8448 Debye
        Dipole field         -0.0002 Ry au, 
 
        Potential amp.        0.0224 Ry
        Total length         55.1515 bohr
 
 
     Adding external electric field

     Computed dipole along edir(3) : 
        Dipole               -0.3324 Ry au,         -0.8448 Debye
        Dipole field         -0.0002 Ry au, 
 
        Potential amp.        0.0224 Ry
        Total length         55.1515 bohr
 

     total cpu time spent up to now is      358.3 secs

     total energy              =   -7738.29022029 Ry
     estimated scf accuracy    <       0.26011135 Ry

     total magnetization       =    88.29 Bohr mag/cell
     absolute magnetization    =    89.90 Bohr mag/cell

     iteration # 26     ecut=    50.00 Ry     beta= 0.10
     Davidson diagonalization with overlap
     ethr =  1.29E-05,  avg # of iterations =  1.5

     negative rho (up, down):  8.937E-07 1.040E-05
 
     Adding external electric field

     Computed dipole along edir(3) : 
        Dipole               -0.3743 Ry au,         -0.9513 Debye
        Dipole field         -0.0002 Ry au, 
 
        Potential amp.        0.0253 Ry
        Total length         55.1515 bohr
 
 
     Adding external electric field

     Computed dipole along edir(3) : 
        Dipole               -0.3743 Ry au,         -0.9513 Debye
        Dipole field         -0.0002 Ry au, 
 
        Potential amp.        0.0253 Ry
        Total length         55.1515 bohr
 

     total cpu time spent up to now is      369.8 secs

     total energy              =   -7738.28169375 Ry
     estimated scf accuracy    <       0.19218803 Ry

     total magnetization       =    88.66 Bohr mag/cell
     absolute magnetization    =    90.77 Bohr mag/cell

     iteration # 27     ecut=    50.00 Ry     beta= 0.10
     Davidson diagonalization with overlap
     ethr =  1.29E-05,  avg # of iterations =  1.0
 
     Adding external electric field

     Computed dipole along edir(3) : 
        Dipole               -0.3180 Ry au,         -0.8084 Debye
        Dipole field         -0.0002 Ry au, 
 
        Potential amp.        0.0215 Ry
        Total length         55.1515 bohr
 
 
     Adding external electric field

     Computed dipole along edir(3) : 
        Dipole               -0.3180 Ry au,         -0.8084 Debye
        Dipole field         -0.0002 Ry au, 
 
        Potential amp.        0.0215 Ry
        Total length         55.1515 bohr
 

     total cpu time spent up to now is      380.9 secs

     total energy              =   -7738.29925200 Ry
     estimated scf accuracy    <       0.08835061 Ry

     total magnetization       =    87.92 Bohr mag/cell
     absolute magnetization    =    90.21 Bohr mag/cell

     iteration # 28     ecut=    50.00 Ry     beta= 0.10
     Davidson diagonalization with overlap
     ethr =  8.08E-06,  avg # of iterations =  2.0
 
     Adding external electric field

     Computed dipole along edir(3) : 
        Dipole               -0.3169 Ry au,         -0.8056 Debye
        Dipole field         -0.0002 Ry au, 
 
        Potential amp.        0.0214 Ry
        Total length         55.1515 bohr
 
 
     Adding external electric field

     Computed dipole along edir(3) : 
        Dipole               -0.3169 Ry au,         -0.8056 Debye
        Dipole field         -0.0002 Ry au, 
 
        Potential amp.        0.0214 Ry
        Total length         55.1515 bohr
 

     total cpu time spent up to now is      392.6 secs

     total energy              =   -7738.30450331 Ry
     estimated scf accuracy    <       0.23994466 Ry

     total magnetization       =    88.60 Bohr mag/cell
     absolute magnetization    =    90.57 Bohr mag/cell

     iteration # 29     ecut=    50.00 Ry     beta= 0.10
     Davidson diagonalization with overlap
     ethr =  8.08E-06,  avg # of iterations =  1.0

     negative rho (up, down):  3.693E-08 7.066E-08
 
     Adding external electric field

     Computed dipole along edir(3) : 
        Dipole               -0.3524 Ry au,         -0.8957 Debye
        Dipole field         -0.0002 Ry au, 
 
        Potential amp.        0.0238 Ry
        Total length         55.1515 bohr
 
 
     Adding external electric field

     Computed dipole along edir(3) : 
        Dipole               -0.3524 Ry au,         -0.8957 Debye
        Dipole field         -0.0002 Ry au, 
 
        Potential amp.        0.0238 Ry
        Total length         55.1515 bohr
 

     total cpu time spent up to now is      403.4 secs

     total energy              =   -7738.30408662 Ry
     estimated scf accuracy    <       0.24189817 Ry

     total magnetization       =    88.60 Bohr mag/cell
     absolute magnetization    =    90.54 Bohr mag/cell

     iteration # 30     ecut=    50.00 Ry     beta= 0.10
     Davidson diagonalization with overlap
     ethr =  8.08E-06,  avg # of iterations =  1.5

     negative rho (up, down):  9.323E-06 1.351E-05
 
     Adding external electric field

     Computed dipole along edir(3) : 
        Dipole               -0.2460 Ry au,         -0.6253 Debye
        Dipole field         -0.0002 Ry au, 
 
        Potential amp.        0.0166 Ry
        Total length         55.1515 bohr
 
 
     Adding external electric field

     Computed dipole along edir(3) : 
        Dipole               -0.2460 Ry au,         -0.6253 Debye
        Dipole field         -0.0002 Ry au, 
 
        Potential amp.        0.0166 Ry
        Total length         55.1515 bohr
 

     total cpu time spent up to now is      414.9 secs

     total energy              =   -7738.30164273 Ry
     estimated scf accuracy    <       0.27809908 Ry

     total magnetization       =    88.46 Bohr mag/cell
     absolute magnetization    =    90.36 Bohr mag/cell

     iteration # 31     ecut=    50.00 Ry     beta= 0.10
     Davidson diagonalization with overlap
     ethr =  8.08E-06,  avg # of iterations =  1.5

     negative rho (up, down):  1.175E-05 1.548E-05
 
     Adding external electric field

     Computed dipole along edir(3) : 
        Dipole               -0.2395 Ry au,         -0.6089 Debye
        Dipole field         -0.0001 Ry au, 
 
        Potential amp.        0.0162 Ry
        Total length         55.1515 bohr
 
 
     Adding external electric field

     Computed dipole along edir(3) : 
        Dipole               -0.2395 Ry au,         -0.6089 Debye
        Dipole field         -0.0001 Ry au, 
 
        Potential amp.        0.0162 Ry
        Total length         55.1515 bohr
 

     total cpu time spent up to now is      426.3 secs

     total energy              =   -7738.30357739 Ry
     estimated scf accuracy    <       0.16215475 Ry

     total magnetization       =    88.32 Bohr mag/cell
     absolute magnetization    =    90.22 Bohr mag/cell

     iteration # 32     ecut=    50.00 Ry     beta= 0.10
     Davidson diagonalization with overlap
     ethr =  8.08E-06,  avg # of iterations =  1.0

     negative rho (up, down):  3.994E-05 4.041E-05
 
     Adding external electric field

     Computed dipole along edir(3) : 
        Dipole               -0.1752 Ry au,         -0.4453 Debye
        Dipole field         -0.0001 Ry au, 
 
        Potential amp.        0.0118 Ry
        Total length         55.1515 bohr
 
 
     Adding external electric field

     Computed dipole along edir(3) : 
        Dipole               -0.1752 Ry au,         -0.4453 Debye
        Dipole field         -0.0001 Ry au, 
 
        Potential amp.        0.0118 Ry
        Total length         55.1515 bohr
 

     total cpu time spent up to now is      437.1 secs

     total energy              =   -7738.30296354 Ry
     estimated scf accuracy    <       0.16797833 Ry

     total magnetization       =    88.30 Bohr mag/cell
     absolute magnetization    =    90.16 Bohr mag/cell

     iteration # 33     ecut=    50.00 Ry     beta= 0.10
     Davidson diagonalization with overlap
     ethr =  8.08E-06,  avg # of iterations =  1.5

     negative rho (up, down):  3.415E-05 3.600E-05
 
     Adding external electric field

     Computed dipole along edir(3) : 
        Dipole               -0.1916 Ry au,         -0.4869 Debye
        Dipole field         -0.0001 Ry au, 
 
        Potential amp.        0.0129 Ry
        Total length         55.1515 bohr
 
 
     Adding external electric field

     Computed dipole along edir(3) : 
        Dipole               -0.1916 Ry au,         -0.4869 Debye
        Dipole field         -0.0001 Ry au, 
 
        Potential amp.        0.0129 Ry
        Total length         55.1515 bohr
 

     total cpu time spent up to now is      448.7 secs

     total energy              =   -7738.30304515 Ry
     estimated scf accuracy    <       0.11528100 Ry

     total magnetization       =    88.28 Bohr mag/cell
     absolute magnetization    =    90.08 Bohr mag/cell

     iteration # 34     ecut=    50.00 Ry     beta= 0.10
     Davidson diagonalization with overlap
     ethr =  8.08E-06,  avg # of iterations =  1.0

     negative rho (up, down):  3.857E-05 4.381E-05
 
     Adding external electric field

     Computed dipole along edir(3) : 
        Dipole               -0.1769 Ry au,         -0.4497 Debye
        Dipole field         -0.0001 Ry au, 
 
        Potential amp.        0.0119 Ry
        Total length         55.1515 bohr
 
 
     Adding external electric field

     Computed dipole along edir(3) : 
        Dipole               -0.1769 Ry au,         -0.4497 Debye
        Dipole field         -0.0001 Ry au, 
 
        Potential amp.        0.0119 Ry
        Total length         55.1515 bohr
 

     total cpu time spent up to now is      459.4 secs

     total energy              =   -7738.30390130 Ry
     estimated scf accuracy    <       0.13161458 Ry

     total magnetization       =    88.28 Bohr mag/cell
     absolute magnetization    =    90.11 Bohr mag/cell

     iteration # 35     ecut=    50.00 Ry     beta= 0.10
     Davidson diagonalization with overlap
     ethr =  8.08E-06,  avg # of iterations =  1.5

     negative rho (up, down):  1.828E-04 2.341E-04
 
     Adding external electric field

     Computed dipole along edir(3) : 
        Dipole               -0.1845 Ry au,         -0.4688 Debye
        Dipole field         -0.0001 Ry au, 
 
        Potential amp.        0.0125 Ry
        Total length         55.1515 bohr
 
 
     Adding external electric field

     Computed dipole along edir(3) : 
        Dipole               -0.1845 Ry au,         -0.4688 Debye
        Dipole field         -0.0001 Ry au, 
 
        Potential amp.        0.0125 Ry
        Total length         55.1515 bohr
 

     total cpu time spent up to now is      470.8 secs

     total energy              =   -7738.30262197 Ry
     estimated scf accuracy    <       0.08689628 Ry

     total magnetization       =    88.27 Bohr mag/cell
     absolute magnetization    =    90.00 Bohr mag/cell

     iteration # 36     ecut=    50.00 Ry     beta= 0.10
     Davidson diagonalization with overlap
     ethr =  7.95E-06,  avg # of iterations =  1.0

     negative rho (up, down):  1.061E-03 1.141E-03
 
     Adding external electric field

     Computed dipole along edir(3) : 
        Dipole               -0.1251 Ry au,         -0.3179 Debye
        Dipole field         -0.0001 Ry au, 
 
        Potential amp.        0.0084 Ry
        Total length         55.1515 bohr
 
 
     Adding external electric field

     Computed dipole along edir(3) : 
        Dipole               -0.1251 Ry au,         -0.3179 Debye
        Dipole field         -0.0001 Ry au, 
 
        Potential amp.        0.0084 Ry
        Total length         55.1515 bohr
 

     total cpu time spent up to now is      481.7 secs

     total energy              =   -7738.30236571 Ry
     estimated scf accuracy    <       0.05357481 Ry

     total magnetization       =    88.19 Bohr mag/cell
     absolute magnetization    =    89.94 Bohr mag/cell

     iteration # 37     ecut=    50.00 Ry     beta= 0.10
     Davidson diagonalization with overlap
     ethr =  4.90E-06,  avg # of iterations =  2.0

     negative rho (up, down):  5.256E-04 5.698E-04
 
     Adding external electric field

     Computed dipole along edir(3) : 
        Dipole               -0.1869 Ry au,         -0.4751 Debye
        Dipole field         -0.0001 Ry au, 
 
        Potential amp.        0.0126 Ry
        Total length         55.1515 bohr
 
 
     Adding external electric field

     Computed dipole along edir(3) : 
        Dipole               -0.1869 Ry au,         -0.4751 Debye
        Dipole field         -0.0001 Ry au, 
 
        Potential amp.        0.0126 Ry
        Total length         55.1515 bohr
 

     total cpu time spent up to now is      494.2 secs

     total energy              =   -7738.30254305 Ry
     estimated scf accuracy    <       0.04767643 Ry

     total magnetization       =    88.25 Bohr mag/cell
     absolute magnetization    =    90.02 Bohr mag/cell

     iteration # 38     ecut=    50.00 Ry     beta= 0.10
     Davidson diagonalization with overlap
     ethr =  4.36E-06,  avg # of iterations =  2.0

     negative rho (up, down):  2.907E-03 3.690E-03
 
     Adding external electric field

     Computed dipole along edir(3) : 
        Dipole                0.0678 Ry au,          0.1724 Debye
        Dipole field          0.0000 Ry au, 
 
        Potential amp.       -0.0046 Ry
        Total length         55.1515 bohr
 
 
     Adding external electric field

     Computed dipole along edir(3) : 
        Dipole                0.0678 Ry au,          0.1724 Debye
        Dipole field          0.0000 Ry au, 
 
        Potential amp.       -0.0046 Ry
        Total length         55.1515 bohr
 

     total cpu time spent up to now is      506.4 secs

     total energy              =   -7738.30111418 Ry
     estimated scf accuracy    <       0.05724898 Ry

     total magnetization       =    88.27 Bohr mag/cell
     absolute magnetization    =    90.05 Bohr mag/cell

     iteration # 39     ecut=    50.00 Ry     beta= 0.10
     Davidson diagonalization with overlap
     ethr =  4.36E-06,  avg # of iterations =  3.5

     negative rho (up, down):  1.420E-03 1.880E-03
 
     Adding external electric field

     Computed dipole along edir(3) : 
        Dipole                0.0075 Ry au,          0.0191 Debye
        Dipole field          0.0000 Ry au, 
 
        Potential amp.       -0.0005 Ry
        Total length         55.1515 bohr
 
 
     Adding external electric field

     Computed dipole along edir(3) : 
        Dipole                0.0075 Ry au,          0.0191 Debye
        Dipole field          0.0000 Ry au, 
 
        Potential amp.       -0.0005 Ry
        Total length         55.1515 bohr
 

     total cpu time spent up to now is      519.6 secs

     total energy              =   -7738.30254415 Ry
     estimated scf accuracy    <       0.05142294 Ry

     total magnetization       =    88.18 Bohr mag/cell
     absolute magnetization    =    89.91 Bohr mag/cell

     iteration # 40     ecut=    50.00 Ry     beta= 0.10
     Davidson diagonalization with overlap
     ethr =  4.36E-06,  avg # of iterations =  1.5

     negative rho (up, down):  1.668E-03 2.229E-03
 
     Adding external electric field

     Computed dipole along edir(3) : 
        Dipole                0.0349 Ry au,          0.0888 Debye
        Dipole field          0.0000 Ry au, 
 
        Potential amp.       -0.0024 Ry
        Total length         55.1515 bohr
 
 
     Adding external electric field

     Computed dipole along edir(3) : 
        Dipole                0.0349 Ry au,          0.0888 Debye
        Dipole field          0.0000 Ry au, 
 
        Potential amp.       -0.0024 Ry
        Total length         55.1515 bohr
 

     total cpu time spent up to now is      531.1 secs

     total energy              =   -7738.30149676 Ry
     estimated scf accuracy    <       0.06154131 Ry

     total magnetization       =    88.27 Bohr mag/cell
     absolute magnetization    =    89.97 Bohr mag/cell

     iteration # 41     ecut=    50.00 Ry     beta= 0.10
     Davidson diagonalization with overlap
     ethr =  4.36E-06,  avg # of iterations =  2.0

     negative rho (up, down):  1.687E-03 2.304E-03
 
     Adding external electric field

     Computed dipole along edir(3) : 
        Dipole                0.0364 Ry au,          0.0926 Debye
        Dipole field          0.0000 Ry au, 
 
        Potential amp.       -0.0025 Ry
        Total length         55.1515 bohr
 
 
     Adding external electric field

     Computed dipole along edir(3) : 
        Dipole                0.0364 Ry au,          0.0926 Debye
        Dipole field          0.0000 Ry au, 
 
        Potential amp.       -0.0025 Ry
        Total length         55.1515 bohr
 

     total cpu time spent up to now is      543.5 secs

     total energy              =   -7738.30163183 Ry
     estimated scf accuracy    <       0.06593240 Ry

     total magnetization       =    88.28 Bohr mag/cell
     absolute magnetization    =    90.03 Bohr mag/cell

     iteration # 42     ecut=    50.00 Ry     beta= 0.10
     Davidson diagonalization with overlap
     ethr =  4.36E-06,  avg # of iterations =  1.5

     negative rho (up, down):  2.384E-03 3.159E-03
 
     Adding external electric field

     Computed dipole along edir(3) : 
        Dipole                0.0415 Ry au,          0.1055 Debye
        Dipole field          0.0000 Ry au, 
 
        Potential amp.       -0.0028 Ry
        Total length         55.1515 bohr
 
 
     Adding external electric field

     Computed dipole along edir(3) : 
        Dipole                0.0415 Ry au,          0.1055 Debye
        Dipole field          0.0000 Ry au, 
 
        Potential amp.       -0.0028 Ry
        Total length         55.1515 bohr
 

     total cpu time spent up to now is      555.3 secs

     total energy              =   -7738.30194076 Ry
     estimated scf accuracy    <       0.06471730 Ry

     total magnetization       =    88.28 Bohr mag/cell
     absolute magnetization    =    90.01 Bohr mag/cell

     iteration # 43     ecut=    50.00 Ry     beta= 0.10
     Davidson diagonalization with overlap
     ethr =  4.36E-06,  avg # of iterations =  2.0

     negative rho (up, down):  4.449E-03 5.135E-03
 
     Adding external electric field

     Computed dipole along edir(3) : 
        Dipole                0.1571 Ry au,          0.3993 Debye
        Dipole field          0.0001 Ry au, 
 
        Potential amp.       -0.0106 Ry
        Total length         55.1515 bohr
 
 
     Adding external electric field

     Computed dipole along edir(3) : 
        Dipole                0.1571 Ry au,          0.3993 Debye
        Dipole field          0.0001 Ry au, 
 
        Potential amp.       -0.0106 Ry
        Total length         55.1515 bohr
 

     total cpu time spent up to now is      567.8 secs

     total energy              =   -7738.30127648 Ry
     estimated scf accuracy    <       0.04241570 Ry

     total magnetization       =    88.20 Bohr mag/cell
     absolute magnetization    =    89.87 Bohr mag/cell

     iteration # 44     ecut=    50.00 Ry     beta= 0.10
     Davidson diagonalization with overlap
     ethr =  3.88E-06,  avg # of iterations =  2.0

     negative rho (up, down):  5.322E-03 5.915E-03
 
     Adding external electric field

     Computed dipole along edir(3) : 
        Dipole                0.1939 Ry au,          0.4929 Debye
        Dipole field          0.0001 Ry au, 
 
        Potential amp.       -0.0131 Ry
        Total length         55.1515 bohr
 
 
     Adding external electric field

     Computed dipole along edir(3) : 
        Dipole                0.1939 Ry au,          0.4929 Debye
        Dipole field          0.0001 Ry au, 
 
        Potential amp.       -0.0131 Ry
        Total length         55.1515 bohr
 

     total cpu time spent up to now is      580.3 secs

     total energy              =   -7738.30194801 Ry
     estimated scf accuracy    <       0.03257766 Ry

     total magnetization       =    88.30 Bohr mag/cell
     absolute magnetization    =    89.98 Bohr mag/cell

     iteration # 45     ecut=    50.00 Ry     beta= 0.10
     Davidson diagonalization with overlap
     ethr =  2.98E-06,  avg # of iterations =  2.0

     negative rho (up, down):  5.792E-03 5.935E-03
 
     Adding external electric field

     Computed dipole along edir(3) : 
        Dipole                0.3133 Ry au,          0.7963 Debye
        Dipole field          0.0002 Ry au, 
 
        Potential amp.       -0.0212 Ry
        Total length         55.1515 bohr
 
 
     Adding external electric field

     Computed dipole along edir(3) : 
        Dipole                0.3133 Ry au,          0.7963 Debye
        Dipole field          0.0002 Ry au, 
 
        Potential amp.       -0.0212 Ry
        Total length         55.1515 bohr
 

     total cpu time spent up to now is      593.0 secs

     total energy              =   -7738.30231212 Ry
     estimated scf accuracy    <       0.02879290 Ry

     total magnetization       =    88.31 Bohr mag/cell
     absolute magnetization    =    89.98 Bohr mag/cell

     iteration # 46     ecut=    50.00 Ry     beta= 0.10
     Davidson diagonalization with overlap
     c_bands:  5 eigenvalues not converged
     ethr =  2.63E-06,  avg # of iterations = 11.0

     negative rho (up, down):  6.654E-03 6.648E-03
 
     Adding external electric field

     Computed dipole along edir(3) : 
        Dipole                0.3889 Ry au,          0.9884 Debye
        Dipole field          0.0002 Ry au, 
 
        Potential amp.       -0.0263 Ry
        Total length         55.1515 bohr
 
 
     Adding external electric field

     Computed dipole along edir(3) : 
        Dipole                0.3889 Ry au,          0.9884 Debye
        Dipole field          0.0002 Ry au, 
 
        Potential amp.       -0.0263 Ry
        Total length         55.1515 bohr
 

     total cpu time spent up to now is      611.1 secs

     total energy              =   -7738.30225793 Ry
     estimated scf accuracy    <       0.02641497 Ry

     total magnetization       =    88.36 Bohr mag/cell
     absolute magnetization    =    89.90 Bohr mag/cell

     iteration # 47     ecut=    50.00 Ry     beta= 0.10
     Davidson diagonalization with overlap
     c_bands:  1 eigenvalues not converged
     ethr =  2.42E-06,  avg # of iterations = 11.0

     negative rho (up, down):  5.870E-03 5.743E-03
 
     Adding external electric field

     Computed dipole along edir(3) : 
        Dipole                0.4312 Ry au,          1.0959 Debye
        Dipole field          0.0003 Ry au, 
 
        Potential amp.       -0.0291 Ry
        Total length         55.1515 bohr
 
 
     Adding external electric field

     Computed dipole along edir(3) : 
        Dipole                0.4312 Ry au,          1.0959 Debye
        Dipole field          0.0003 Ry au, 
 
        Potential amp.       -0.0291 Ry
        Total length         55.1515 bohr
 

     total cpu time spent up to now is      628.7 secs

     total energy              =   -7738.30191759 Ry
     estimated scf accuracy    <       0.02249123 Ry

     total magnetization       =    88.33 Bohr mag/cell
     absolute magnetization    =    89.84 Bohr mag/cell

     iteration # 48     ecut=    50.00 Ry     beta= 0.10
     Davidson diagonalization with overlap
     c_bands:  4 eigenvalues not converged
     ethr =  2.06E-06,  avg # of iterations = 11.0

     negative rho (up, down):  5.291E-03 5.034E-03
 
     Adding external electric field

     Computed dipole along edir(3) : 
        Dipole                0.4609 Ry au,          1.1715 Debye
        Dipole field          0.0003 Ry au, 
 
        Potential amp.       -0.0311 Ry
        Total length         55.1515 bohr
 
 
     Adding external electric field

     Computed dipole along edir(3) : 
        Dipole                0.4609 Ry au,          1.1715 Debye
        Dipole field          0.0003 Ry au, 
 
        Potential amp.       -0.0311 Ry
        Total length         55.1515 bohr
 

     total cpu time spent up to now is      647.2 secs

     total energy              =   -7738.30151605 Ry
     estimated scf accuracy    <       0.01172372 Ry

     total magnetization       =    88.37 Bohr mag/cell
     absolute magnetization    =    89.86 Bohr mag/cell

     iteration # 49     ecut=    50.00 Ry     beta= 0.10
     Davidson diagonalization with overlap
     c_bands:  1 eigenvalues not converged
     ethr =  1.07E-06,  avg # of iterations = 11.0

     negative rho (up, down):  5.080E-03 4.919E-03
 
     Adding external electric field

     Computed dipole along edir(3) : 
        Dipole                0.4971 Ry au,          1.2635 Debye
        Dipole field          0.0003 Ry au, 
 
        Potential amp.       -0.0336 Ry
        Total length         55.1515 bohr
 
 
     Adding external electric field

     Computed dipole along edir(3) : 
        Dipole                0.4971 Ry au,          1.2635 Debye
        Dipole field          0.0003 Ry au, 
 
        Potential amp.       -0.0336 Ry
        Total length         55.1515 bohr
 

     total cpu time spent up to now is      665.2 secs

     total energy              =   -7738.30164827 Ry
     estimated scf accuracy    <       0.00731977 Ry

     total magnetization       =    88.34 Bohr mag/cell
     absolute magnetization    =    89.84 Bohr mag/cell

     iteration # 50     ecut=    50.00 Ry     beta= 0.10
     Davidson diagonalization with overlap
     ethr =  6.70E-07,  avg # of iterations =  2.0

     negative rho (up, down):  2.398E-03 2.564E-03
 
     Adding external electric field

     Computed dipole along edir(3) : 
        Dipole                0.4938 Ry au,          1.2551 Debye
        Dipole field          0.0003 Ry au, 
 
        Potential amp.       -0.0333 Ry
        Total length         55.1515 bohr
 
 
     Adding external electric field

     Computed dipole along edir(3) : 
        Dipole                0.4938 Ry au,          1.2551 Debye
        Dipole field          0.0003 Ry au, 
 
        Potential amp.       -0.0333 Ry
        Total length         55.1515 bohr
 

     total cpu time spent up to now is      678.6 secs

     total energy              =   -7738.30144440 Ry
     estimated scf accuracy    <       0.00517243 Ry

     total magnetization       =    88.34 Bohr mag/cell
     absolute magnetization    =    89.82 Bohr mag/cell

     iteration # 51     ecut=    50.00 Ry     beta= 0.10
     Davidson diagonalization with overlap
     ethr =  4.73E-07,  avg # of iterations =  6.0

     negative rho (up, down):  1.395E-03 1.485E-03
 
     Adding external electric field

     Computed dipole along edir(3) : 
        Dipole                0.4949 Ry au,          1.2579 Debye
        Dipole field          0.0003 Ry au, 
 
        Potential amp.       -0.0334 Ry
        Total length         55.1515 bohr
 
 
     Adding external electric field

     Computed dipole along edir(3) : 
        Dipole                0.4949 Ry au,          1.2579 Debye
        Dipole field          0.0003 Ry au, 
 
        Potential amp.       -0.0334 Ry
        Total length         55.1515 bohr
 

     total cpu time spent up to now is      693.4 secs

     total energy              =   -7738.30160933 Ry
     estimated scf accuracy    <       0.00346178 Ry

     total magnetization       =    88.31 Bohr mag/cell
     absolute magnetization    =    89.81 Bohr mag/cell

     iteration # 52     ecut=    50.00 Ry     beta= 0.10
     Davidson diagonalization with overlap
     ethr =  3.17E-07,  avg # of iterations =  2.0

     negative rho (up, down):  4.630E-06 2.167E-06
 
     Adding external electric field

     Computed dipole along edir(3) : 
        Dipole                0.4304 Ry au,          1.0941 Debye
        Dipole field          0.0003 Ry au, 
 
        Potential amp.       -0.0291 Ry
        Total length         55.1515 bohr
 
 
     Adding external electric field

     Computed dipole along edir(3) : 
        Dipole                0.4304 Ry au,          1.0941 Debye
        Dipole field          0.0003 Ry au, 
 
        Potential amp.       -0.0291 Ry
        Total length         55.1515 bohr
 

     total cpu time spent up to now is      706.4 secs

     total energy              =   -7738.30169052 Ry
     estimated scf accuracy    <       0.00311080 Ry

     total magnetization       =    88.32 Bohr mag/cell
     absolute magnetization    =    89.80 Bohr mag/cell

     iteration # 53     ecut=    50.00 Ry     beta= 0.10
     Davidson diagonalization with overlap
     ethr =  2.85E-07,  avg # of iterations =  2.0

     negative rho (up, down):  1.279E-05 1.341E-05
 
     Adding external electric field

     Computed dipole along edir(3) : 
        Dipole                0.4135 Ry au,          1.0511 Debye
        Dipole field          0.0003 Ry au, 
 
        Potential amp.       -0.0279 Ry
        Total length         55.1515 bohr
 
 
     Adding external electric field

     Computed dipole along edir(3) : 
        Dipole                0.4135 Ry au,          1.0511 Debye
        Dipole field          0.0003 Ry au, 
 
        Potential amp.       -0.0279 Ry
        Total length         55.1515 bohr
 

     total cpu time spent up to now is      719.5 secs

     total energy              =   -7738.30174985 Ry
     estimated scf accuracy    <       0.00237035 Ry

     total magnetization       =    88.32 Bohr mag/cell
     absolute magnetization    =    89.78 Bohr mag/cell

     iteration # 54     ecut=    50.00 Ry     beta= 0.10
     Davidson diagonalization with overlap
     ethr =  2.17E-07,  avg # of iterations =  6.0

     negative rho (up, down):  1.544E-05 1.543E-05
 
     Adding external electric field

     Computed dipole along edir(3) : 
        Dipole                0.4127 Ry au,          1.0490 Debye
        Dipole field          0.0003 Ry au, 
 
        Potential amp.       -0.0279 Ry
        Total length         55.1515 bohr
 
 
     Adding external electric field

     Computed dipole along edir(3) : 
        Dipole                0.4127 Ry au,          1.0490 Debye
        Dipole field          0.0003 Ry au, 
 
        Potential amp.       -0.0279 Ry
        Total length         55.1515 bohr
 

     total cpu time spent up to now is      734.5 secs

     total energy              =   -7738.30183668 Ry
     estimated scf accuracy    <       0.00178577 Ry

     total magnetization       =    88.33 Bohr mag/cell
     absolute magnetization    =    89.71 Bohr mag/cell

     iteration # 55     ecut=    50.00 Ry     beta= 0.10
     Davidson diagonalization with overlap
     ethr =  1.63E-07,  avg # of iterations =  1.0

     negative rho (up, down):  6.781E-06 3.264E-06
 
     Adding external electric field

     Computed dipole along edir(3) : 
        Dipole                0.4103 Ry au,          1.0429 Debye
        Dipole field          0.0003 Ry au, 
 
        Potential amp.       -0.0277 Ry
        Total length         55.1515 bohr
 
 
     Adding external electric field

     Computed dipole along edir(3) : 
        Dipole                0.4103 Ry au,          1.0429 Debye
        Dipole field          0.0003 Ry au, 
 
        Potential amp.       -0.0277 Ry
        Total length         55.1515 bohr
 

     total cpu time spent up to now is      745.9 secs

     total energy              =   -7738.30182975 Ry
     estimated scf accuracy    <       0.00167169 Ry

     total magnetization       =    88.34 Bohr mag/cell
     absolute magnetization    =    89.70 Bohr mag/cell

     iteration # 56     ecut=    50.00 Ry     beta= 0.10
     Davidson diagonalization with overlap
     ethr =  1.53E-07,  avg # of iterations =  2.0

     negative rho (up, down):  1.929E-05 1.113E-05
 
     Adding external electric field

     Computed dipole along edir(3) : 
        Dipole                0.4016 Ry au,          1.0209 Debye
        Dipole field          0.0002 Ry au, 
 
        Potential amp.       -0.0271 Ry
        Total length         55.1515 bohr
 
 
     Adding external electric field

     Computed dipole along edir(3) : 
        Dipole                0.4016 Ry au,          1.0209 Debye
        Dipole field          0.0002 Ry au, 
 
        Potential amp.       -0.0271 Ry
        Total length         55.1515 bohr
 

     total cpu time spent up to now is      758.7 secs

     total energy              =   -7738.30187573 Ry
     estimated scf accuracy    <       0.00116391 Ry

     total magnetization       =    88.34 Bohr mag/cell
     absolute magnetization    =    89.69 Bohr mag/cell

     iteration # 57     ecut=    50.00 Ry     beta= 0.10
     Davidson diagonalization with overlap
     c_bands:  1 eigenvalues not converged
     ethr =  1.06E-07,  avg # of iterations = 13.5

     negative rho (up, down):  8.768E-05 5.678E-05
 
     Adding external electric field

     Computed dipole along edir(3) : 
        Dipole                0.4396 Ry au,          1.1175 Debye
        Dipole field          0.0003 Ry au, 
 
        Potential amp.       -0.0297 Ry
        Total length         55.1515 bohr
 
 
     Adding external electric field

     Computed dipole along edir(3) : 
        Dipole                0.4396 Ry au,          1.1175 Debye
        Dipole field          0.0003 Ry au, 
 
        Potential amp.       -0.0297 Ry
        Total length         55.1515 bohr
 

     total cpu time spent up to now is      779.1 secs

     total energy              =   -7738.30194071 Ry
     estimated scf accuracy    <       0.00080276 Ry

     total magnetization       =    88.33 Bohr mag/cell
     absolute magnetization    =    89.68 Bohr mag/cell

     iteration # 58     ecut=    50.00 Ry     beta= 0.10
     Davidson diagonalization with overlap
     ethr =  7.34E-08,  avg # of iterations =  2.0

     negative rho (up, down):  5.119E-04 3.953E-04
 
     Adding external electric field

     Computed dipole along edir(3) : 
        Dipole                0.4846 Ry au,          1.2317 Debye
[...]
    -5.9145  -5.8973  -5.8824  -5.8743  -5.8612  -5.8405  -5.8326  -5.8031
    -5.7758  -5.7701  -5.7303  -5.7202  -5.7034  -5.6756  -5.6664  -5.6469
    -5.6296  -5.5977  -5.5510  -5.5488  -5.5243  -5.4938  -5.4782  -5.4680
    -5.4632  -5.4328  -5.4261  -5.3980  -5.3801  -5.3651  -5.3522  -5.3236
    -5.2065  -5.1947  -5.1797  -5.1722  -5.1578  -5.1333  -5.0692  -5.0264
    -5.0069  -4.9885  -4.9465  -4.9181  -4.9067  -4.8884  -4.8565  -4.8133
    -4.7896  -4.7346  -4.7238  -4.7090  -4.6712  -4.6522  -4.6212  -4.5440
    -4.5426  -4.4742  -4.4566  -4.3987  -4.3921  -4.3745  -4.3339  -4.3259
    -4.3090  -4.2521  -4.1878  -4.1774  -4.1424  -4.1154  -4.0967  -4.0707
    -4.0617  -4.0388  -4.0354  -3.9633  -3.9178  -3.8973  -3.8873  -3.8472
    -3.8280  -3.8069  -3.7648  -3.7547  -3.7502  -3.7175  -3.6957  -3.6566
    -3.6315  -3.5840  -3.5815  -3.5762  -3.5551  -3.5352  -3.5334  -3.5150
    -3.4982  -3.4755  -3.4540  -3.4487  -3.4396  -3.4261  -3.4022  -3.3866
    -3.3590  -3.3546  -3.3395  -3.3112  -3.3055  -3.2649  -3.2499  -3.2037
    -3.1990  -3.1879  -3.1815  -3.1637  -3.1538  -3.1007  -3.0769  -3.0545
    -3.0313  -3.0113  -3.0065  -2.9965  -2.9930  -2.9816  -2.9649  -2.9266
    -2.9090  -2.8968  -2.8731  -2.8316  -2.8261  -2.8175  -2.7783  -2.7622
    -2.7400  -2.7264  -2.7112  -2.6975  -2.6945  -2.6743  -2.6601  -2.6510
    -2.6341  -2.6273  -2.6204  -2.5991  -2.5881  -2.5781  -2.5709  -2.5566
    -2.5396  -2.5268  -2.5119  -2.4907  -2.4731  -2.4681  -2.4441  -2.4338
    -2.4055  -2.3978  -2.3733  -2.3477  -2.3124  -2.2966  -2.2771  -2.2554
    -2.2429  -2.2283  -2.2066  -2.1673  -2.1537  -2.1348  -2.1239  -2.0976
    -2.0943  -2.0735  -2.0642  -2.0523  -2.0378  -2.0151  -1.9970  -1.9505
    -1.9367  -1.9092  -1.9036  -1.8953  -1.8841  -1.8737  -1.8426  -1.8178
    -1.8079  -1.7920  -1.7745  -1.7673  -1.7577  -1.7477  -1.7291  -1.7115
    -1.6882  -1.6592  -1.6478  -1.6041  -1.5957  -1.5791  -1.5605  -1.5393
    -1.5273  -1.4954  -1.4742  -1.4553  -1.4488  -1.4393  -1.4125  -1.3905
    -1.3815  -1.3714  -1.3501  -1.3412  -1.3162  -1.3001  -1.2460  -1.2418
    -1.2217  -1.2140  -1.1944  -1.1530  -1.1500  -1.0807  -1.0397  -1.0278
    -0.9768  -0.8722  -0.8573  -0.8148  -0.7488  -0.6945  -0.6811  -0.4462
    -0.2822  -0.2498  -0.2357  -0.1036   0.2190   0.2517   0.2735   0.2814
     0.2865   0.3029   0.3368   0.3460   0.3712   0.3826   0.3953   0.4014
     0.4081   0.4203   0.4303   0.4361   0.4445   0.4566   0.4638   0.4718
     0.4784   0.4895   0.4899   0.4984   0.5036   0.5138   0.5153   0.5271
     0.5433   0.5454   0.5552   0.5614   0.5668   0.5718   0.5747   0.6007
     0.6074   0.6098   0.6172   0.6214   0.6351   0.6479   0.6495   0.6508
     0.6668   0.6706   0.6735   0.6847   0.6865   0.7066   0.7105   0.7144
     0.7231   0.7291   0.7313   0.7415   0.7552   0.7712   0.7832   0.7855
     0.7944   0.7978   0.8074   0.8312   0.8353   0.8459   0.8496   0.8518
     0.8642   0.8669   0.8852   0.9002   0.9036   0.9089   0.9206   0.9242
     0.9329   0.9620   0.9720   0.9821   0.9870   0.9894   0.9931   1.0187
     1.0554   1.1324   1.1347   1.2333   1.2554   1.7058   1.7827   1.7904
     1.7960   1.8116   1.8224   1.8389   1.8491   1.8614   1.9448   1.9611
     1.9732   1.9928   2.0183   2.0421   2.0536   2.0827   2.0951   2.1479
     2.1573   2.1730   2.1840   2.2104   2.2244   2.2391   2.2541   2.2701
     2.2810   2.3043   2.3231   2.3389   2.3483   2.3623   2.3922   2.4007
     2.4131   2.4153   2.4618   2.4632   2.4931   2.5112   2.5177   2.5239
     2.5336   2.5411   2.5610   2.5724   2.5897   2.6215   2.6288   2.6472
     2.6681   2.6738   2.6851   2.7440   2.8121   2.8289   2.8879   2.8964
     2.9020   2.9436   3.5194   3.5549   3.6045   3.6357   3.7651   3.7937
     3.8795   3.8924   3.9037   3.9527   3.9653   4.0200   4.1029   4.1108
     4.1201   4.1431   4.1682   4.1734   4.1952   4.2093   4.6786   4.7980
     4.8501   4.8843   4.9527   4.9659   5.0010   5.0556   5.0635   5.1376
     5.1392   5.1971   5.4393   6.3015   6.3946   6.5312   6.6418   6.7367
     6.8163   6.8673   6.9210   6.9642   7.0033   7.0827   7.1500   7.2188
     7.2958   7.3601   7.4084   7.4214   7.4640   7.5060   7.6493   7.6897
     7.7287   7.7641   7.7762   7.8205   7.8633   7.9101   7.9279   7.9692
     8.0262   8.0610   8.0907   8.1188   8.1709   8.1910   8.2119   8.2458
     8.2795   8.3169   8.3714   8.3853   8.4246   8.4352   8.4461   8.4720
     8.4851   8.5120   8.5381   8.5542   8.5909   8.5990   8.6194   8.6733
     8.6947   8.7078   8.7267   8.7467   8.7695   8.8098   8.8359   8.8736

     the Fermi energy is     1.6957 ev

!    total energy              =   -7738.30215687 Ry
     estimated scf accuracy    <       0.00000071 Ry
     smearing contrib. (-TS)   =      -0.02507709 Ry
     internal energy E=F+TS    =   -7738.27707977 Ry

     The total energy is F=E-TS. E is the sum of the following terms:
     one-electron contribution =  -95041.23904714 Ry
     hartree contribution      =   48138.24719688 Ry
     xc contribution           =   -2218.73453481 Ry
     ewald contribution        =   41385.25790709 Ry
     Dispersion Correction     =      -1.80878827 Ry
     electric field correction =       0.00018648 Ry

     total magnetization       =    88.32 Bohr mag/cell
     absolute magnetization    =    89.69 Bohr mag/cell

     convergence has been achieved in  71 iterations

     negative rho (up, down):  1.048E-03 5.889E-04

     Forces acting on atoms (cartesian axes, Ry/au):

     atom    1 type  1   force =     0.02516050   -0.03097798    0.01833761
     atom    2 type  2   force =    -0.01383034   -0.00163851   -0.01003981
     atom    3 type  1   force =    -0.02316788   -0.01840565    0.01975390
     atom    4 type  1   force =     0.00574332    0.00420450   -0.00638565
     atom    5 type  1   force =    -0.00190078    0.00114507   -0.00529091
     atom    6 type  1   force =     0.00208268    0.00773049   -0.00903462
     atom    7 type  3   force =    -0.00774092    0.00115592   -0.01044541
     atom    8 type  3   force =    -0.03499217    0.05414881   -0.08330469
     atom    9 type  3   force =     0.03413940    0.03816869   -0.06430042
     atom   10 type  3   force =    -0.00305175   -0.00247467   -0.01161529
     atom   11 type  4   force =     0.00671851    0.00558230    0.01381031
     atom   12 type  4   force =    -0.00026292   -0.00291586    0.01485520
     atom   13 type  4   force =     0.00197080    0.00174329    0.01741158
     atom   14 type  4   force =    -0.00047763   -0.00129906    0.01267402
     atom   15 type  4   force =    -0.00069516    0.00452340   -0.00191951
     atom   16 type  4   force =    -0.00044554    0.00267563    0.04022448
     atom   17 type  4   force =     0.00173366    0.00815715    0.03769595
     atom   18 type  4   force =     0.00800835   -0.00448363   -0.00044272
     atom   19 type  4   force =     0.00048222    0.01194850    0.00425153
     atom   20 type  4   force =    -0.00961968   -0.02682878   -0.00370522
     atom   21 type  4   force =    -0.01118022   -0.00041930    0.00064445
     atom   22 type  4   force =    -0.03214903    0.00311154    0.00784119
     atom   23 type  4   force =     0.03210506    0.00057771    0.01408058
     atom   24 type  4   force =     0.00700578   -0.03700219    0.00377681
     atom   25 type  4   force =    -0.00318594    0.00182000    0.00393935
     atom   26 type  4   force =     0.01794534   -0.00687182    0.00078176
     atom   27 type  1   force =    -0.00522604   -0.00887010    0.00276031
     atom   28 type  2   force =    -0.01336733   -0.00023238    0.00537099
     atom   29 type  1   force =     0.00302809   -0.00500503   -0.00109252
     atom   30 type  1   force =     0.00254869    0.00507784   -0.00097315
     atom   31 type  1   force =     0.00173622   -0.00458470    0.00049855
     atom   32 type  1   force =    -0.00075248    0.00111369   -0.00154373
     atom   33 type  3   force =    -0.00624853   -0.00191664   -0.00268457
     atom   34 type  3   force =    -0.00801276    0.00261665   -0.00030129
     atom   35 type  3   force =     0.00448109   -0.00068562    0.00276031
     atom   36 type  3   force =     0.00093712   -0.00220556   -0.00389563
     atom   37 type  4   force =     0.00863411    0.00537085    0.00767137
     atom   38 type  4   force =     0.00377819   -0.00085495   -0.01918726
     atom   39 type  4   force =    -0.00153600    0.00366256   -0.00982952
     atom   40 type  4   force =    -0.00139818   -0.00250299    0.00910241
     atom   41 type  4   force =    -0.00142914    0.00340461   -0.00673381
     atom   42 type  4   force =    -0.00428920   -0.00454623    0.01795803
     atom   43 type  4   force =     0.00773290    0.00343991    0.00763334
     atom   44 type  4   force =     0.00988841   -0.00559004   -0.00574513
     atom   45 type  4   force =     0.00284614    0.00469873    0.00057770
     atom   46 type  4   force =     0.00235437   -0.00017767   -0.00560706
     atom   47 type  4   force =    -0.01287337   -0.00023937   -0.00365563
     atom   48 type  4   force =    -0.01474458    0.00126600    0.00339941
     atom   49 type  4   force =     0.01358512    0.00251937    0.00441198
     atom   50 type  4   force =    -0.00273784   -0.00494916   -0.00047853
     atom   51 type  4   force =    -0.00529709    0.00159728    0.00055938
     atom   52 type  4   force =     0.01538152   -0.00408463   -0.00443399
     atom   53 type  1   force =     0.00000248   -0.00033423   -0.00003352
     atom   54 type  2   force =    -0.00015008   -0.00045825   -0.00020673
     atom   55 type  1   force =    -0.00000746   -0.00006530   -0.00020928
     atom   56 type  1   force =     0.00017569   -0.00007195   -0.00025411
     atom   57 type  1   force =    -0.00056919    0.00072273    0.00026092
     atom   58 type  1   force =     0.00067124    0.00054746   -0.00030094
     atom   59 type  3   force =     0.00046289    0.00003218   -0.00045763
     atom   60 type  3   force =     0.00005019   -0.00003506    0.00021299
     atom   61 type  3   force =     0.00025228   -0.00021772   -0.00004274
     atom   62 type  3   force =    -0.00076177    0.00019175   -0.00028727
     atom   63 type  4   force =     0.00037835    0.00022559   -0.00008364
     atom   64 type  4   force =     0.00017686   -0.00008941    0.00045643
     atom   65 type  4   force =    -0.00026605   -0.00025405    0.00033332
     atom   66 type  4   force =    -0.00003455    0.00011671    0.00067708
     atom   67 type  4   force =    -0.00001203   -0.00014853   -0.00027381
     atom   68 type  4   force =     0.00064916    0.00021841    0.00011587
     atom   69 type  4   force =    -0.00047511   -0.00030907    0.00022851
     atom   70 type  4   force =    -0.00011032   -0.00062924    0.00047541
     atom   71 type  4   force =    -0.00015798   -0.00065698   -0.00001071
     atom   72 type  4   force =    -0.00039952   -0.00025674   -0.00024315
     atom   73 type  4   force =     0.00026664    0.00027329    0.00016724
     atom   74 type  4   force =    -0.00010529   -0.00034099   -0.00047226
     atom   75 type  4   force =    -0.00014023   -0.00023372   -0.00023255
     atom   76 type  4   force =     0.00003662   -0.00004932   -0.00029066
     atom   77 type  4   force =     0.00000358   -0.00003779    0.00032163
     atom   78 type  4   force =    -0.00003752    0.00018419   -0.00016299
     atom   79 type  1   force =     0.02511814   -0.03097664    0.01835083
     atom   80 type  2   force =    -0.01373414   -0.00164819   -0.01007008
     atom   81 type  1   force =    -0.02316892   -0.01840172    0.01975418
     atom   82 type  1   force =     0.00572544    0.00419824   -0.00638456
     atom   83 type  1   force =    -0.00191668    0.00117015   -0.00530094
     atom   84 type  1   force =     0.00205408    0.00772967   -0.00904712
     atom   85 type  3   force =    -0.00772355    0.00117214   -0.01045520
     atom   86 type  3   force =    -0.03498909    0.05414896   -0.08330613
     atom   87 type  3   force =     0.03414617    0.03816785   -0.06430195
     atom   88 type  3   force =    -0.00306466   -0.00247742   -0.01161824
     atom   89 type  4   force =     0.00683481    0.00558796    0.01383766
     atom   90 type  4   force =    -0.00018342   -0.00282530    0.01484700
     atom   91 type  4   force =     0.00206155    0.00173884    0.01738557
     atom   92 type  4   force =    -0.00031461   -0.00129268    0.01267600
     atom   93 type  4   force =    -0.00069754    0.00472918   -0.00181127
     atom   94 type  4   force =    -0.00051016    0.00263251    0.04001540
     atom   95 type  4   force =     0.00186194    0.00815813    0.03769463
     atom   96 type  4   force =     0.00779977   -0.00450470   -0.00044248
     atom   97 type  4   force =     0.00056965    0.01203386    0.00414737
     atom   98 type  4   force =    -0.00951835   -0.02666627   -0.00367441
     atom   99 type  4   force =    -0.01120832   -0.00038930    0.00084251
     atom  100 type  4   force =    -0.03218120    0.00300571    0.00771802
     atom  101 type  4   force =     0.03212728    0.00058285    0.01408894
     atom  102 type  4   force =     0.00682208   -0.03700876    0.00377956
     atom  103 type  4   force =    -0.00309395    0.00175206    0.00390955
     atom  104 type  4   force =     0.01804110   -0.00685950    0.00078143
     atom  105 type  1   force =    -0.00529395   -0.00886824    0.00284260
     atom  106 type  2   force =    -0.01411229   -0.00080571    0.00586194
     atom  107 type  1   force =     0.00302062   -0.00489604   -0.00103585
     atom  108 type  1   force =     0.00379903    0.00368718    0.00203776
     atom  109 type  1   force =     0.00136740   -0.00464131    0.00039697
     atom  110 type  1   force =    -0.00083792    0.00107646   -0.00152261
     atom  111 type  3   force =    -0.00636359   -0.00074648   -0.00040026
     atom  112 type  3   force =    -0.00798291    0.00259168   -0.00026181
     atom  113 type  3   force =     0.00437069   -0.00058949    0.00290359
     atom  114 type  3   force =     0.00093251   -0.00176042   -0.00499506
     atom  115 type  4   force =     0.00829795    0.00482448    0.00721510
     atom  116 type  4   force =     0.00379636   -0.00087816   -0.01920038
     atom  117 type  4   force =    -0.00135721    0.00371703   -0.00984811
     atom  118 type  4   force =    -0.00171593   -0.00244761    0.00913264
     atom  119 type  4   force =    -0.00032154    0.00315131   -0.00606335
     atom  120 type  4   force =    -0.00427336   -0.00459109    0.01800327
     atom  121 type  4   force =     0.00778146    0.00344151    0.00765865
     atom  122 type  4   force =     0.01018401   -0.00489223   -0.00763564
     atom  123 type  4   force =     0.00274520    0.00433490    0.00052139
     atom  124 type  4   force =     0.00228684   -0.00022906   -0.00561530
     atom  125 type  4   force =    -0.01279132   -0.00010354   -0.00354240
     atom  126 type  4   force =    -0.01476758    0.00126354    0.00333921
     atom  127 type  4   force =     0.01361330    0.00245356    0.00455606
     atom  128 type  4   force =    -0.00287285   -0.00497335   -0.00048690
     atom  129 type  4   force =    -0.00507413    0.00154915   -0.00004458
     atom  130 type  4   force =     0.01596733   -0.00427492   -0.00428957
     atom  131 type  1   force =    -0.00024158   -0.00017590   -0.00013905
     atom  132 type  2   force =     0.00017538   -0.00044804   -0.00010575
     atom  133 type  1   force =    -0.00065265    0.00017246   -0.00000551
     atom  134 type  1   force =    -0.00179081    0.00076494   -0.00177878
     atom  135 type  1   force =    -0.00005822    0.00077343   -0.00058773
     atom  136 type  1   force =     0.00043779    0.00056279    0.00009225
     atom  137 type  3   force =     0.00006469    0.00041033   -0.00038066
     atom  138 type  3   force =    -0.00032371    0.00038795    0.00025851
     atom  139 type  3   force =     0.00010911   -0.00041172    0.00003964
     atom  140 type  3   force =    -0.00043607    0.00000118   -0.00038863
     atom  141 type  4   force =     0.00026351   -0.00020276    0.00042375
     atom  142 type  4   force =    -0.00039496    0.00033592    0.00033203
     atom  143 type  4   force =    -0.00034990   -0.00016746    0.00053969
     atom  144 type  4   force =    -0.00018085   -0.00031713    0.00017930
     atom  145 type  4   force =     0.00023008   -0.00029377   -0.00051527
     atom  146 type  4   force =     0.00066604   -0.00040583    0.00004051
     atom  147 type  4   force =     0.00004190    0.00003602    0.00043310
     atom  148 type  4   force =     0.00016257   -0.00047534   -0.00086654
     atom  149 type  4   force =    -0.00055010   -0.00001651    0.00039307
     atom  150 type  4   force =    -0.00037461   -0.00038538   -0.00020003
     atom  151 type  4   force =    -0.00018510    0.00026058   -0.00003582
     atom  152 type  4   force =     0.00021259   -0.00031870   -0.00042423
     atom  153 type  4   force =    -0.00056315   -0.00037117    0.00004520
     atom  154 type  4   force =     0.00047242    0.00006122   -0.00005992
     atom  155 type  4   force =    -0.00007386    0.00002245   -0.00033271
     atom  156 type  4   force =     0.00017964    0.00050689   -0.00030533
     atom  157 type  4   force =     0.01312364    0.00605426    0.00442302
     atom  158 type  5   force =    -0.01053332   -0.00753341   -0.00384155

     Total force =     0.263437     Total SCF correction =     0.004032
 
     init_run     :      7.52s CPU      8.07s WALL (       1 calls)
     electrons    :    915.51s CPU    955.54s WALL (       1 calls)
     forces       :      4.18s CPU      4.49s WALL (       1 calls)
     force_london :      0.09s CPU      0.09s WALL (       1 calls)

     Called by init_run:
     wfcinit      :      4.49s CPU      4.62s WALL (       1 calls)
     potinit      :      0.52s CPU      0.71s WALL (       1 calls)
     hinit0       :      1.40s CPU      1.49s WALL (       1 calls)

     Called by electrons:
     c_bands      :    716.05s CPU    737.48s WALL (      71 calls)
     sum_band     :    123.45s CPU    133.44s WALL (      71 calls)
     v_of_rho     :     17.46s CPU     18.46s WALL (      72 calls)
     newd         :     39.28s CPU     47.03s WALL (      72 calls)
     mix_rho      :     18.33s CPU     18.40s WALL (      71 calls)
     energy_londo :      0.08s CPU      0.08s WALL (       1 calls)

     Called by c_bands:
     init_us_2    :      1.78s CPU      1.83s WALL (     288 calls)
     init_us_2:cp :      1.77s CPU      1.83s WALL (     288 calls)
     regterg      :    701.41s CPU    722.67s WALL (     142 calls)

     Called by *egterg:
     rdiaghg      :    193.27s CPU    204.34s WALL (     554 calls)
     h_psi        :    270.25s CPU    274.95s WALL (     556 calls)
     s_psi        :     43.33s CPU     43.36s WALL (     556 calls)
     g_psi        :      0.32s CPU      0.32s WALL (     412 calls)

     Called by h_psi:
     h_psi:calbec :     72.53s CPU     76.22s WALL (     556 calls)
     vloc_psi     :    152.26s CPU    152.82s WALL (     556 calls)
     add_vuspsi   :     44.93s CPU     45.37s WALL (     556 calls)

     General routines
     calbec       :    107.07s CPU    112.72s WALL (     706 calls)
     fft          :     24.99s CPU     26.46s WALL (    1309 calls)
     ffts         :     11.16s CPU     11.18s WALL (    8825 calls)
     fftw         :    175.21s CPU    175.78s WALL (  240522 calls)
     interpolate  :      1.48s CPU      1.54s WALL (     144 calls)
 
     Parallel routines
 
     PWSCF        :  15m29.50s CPU  16m10.71s WALL

 
   This run was terminated on:  21:34:21  17Nov2025            

=------------------------------------------------------------------------------=
   JOB DONE.
=------------------------------------------------------------------------------=
