
     Program PWSCF v.7.2 starts on 17Nov2025 at 23:23:59 

     This program is part of the open-source Quantum ESPRESSO suite
     for quantum simulation of materials; please cite
         "P. Giannozzi et al., J. Phys.:Condens. Matter 21 395502 (2009);
         "P. Giannozzi et al., J. Phys.:Condens. Matter 29 465901 (2017);
         "P. Giannozzi et al., J. Chem. Phys. 152 154105 (2020);
          URL http://www.quantum-espresso.org", 
     in publications or presentations arising from this work. More details at
     http://www.quantum-espresso.org/quote

     Parallel version (MPI), running on    64 processors

     MPI processes distributed on     4 nodes
     469392 MiB available memory on the printing compute node when the environment starts
 
     Reading input from PWINPUT_atm158_xm

     Current dimensions of program PWSCF are:
     Max number of different atomic species (ntypx) = 10
     Max number of k-points (npk) =  40000
     Max angular momentum in pseudopotentials (lmaxx) =  4
     Presently no symmetry can be used with electric field

     file Ni.pbe-n-rrkjus_psl.1.0.0.UPF: wavefunction(s)  3D renormalized
     file Mn.pbe-spn-rrkjus_psl.0.3.1.UPF: wavefunction(s)  3D renormalized
     file O.pbe-rrkjus.UPF: wavefunction(s)  2S renormalized
     file H.pbe-rrkjus.UPF: wavefunction(s)  1S renormalized

     gamma-point specific algorithms are used
 
     R & G space division:  proc/nbgrp/npool/nimage =      64
     Subspace diagonalization in iterative solution of the eigenvalue problem:
     one sub-group per band group will be used
     custom distributed-memory algorithm (size of sub-group:  7*  7 procs)

 
     Parallelization info
     --------------------
     sticks:   dense  smooth     PW     G-vecs:    dense   smooth      PW
     Min         207      82     20                60552    15302    1896
     Max         210      84     22                60574    15336    1950
     Sum       13325    5345   1333              3876045   980655  122653
 
     Using Slab Decomposition
 


     bravais-lattice index     =            0
     lattice parameter (alat)  =      17.4067  a.u.
     unit-cell volume          =   20529.8182 (a.u.)^3
     number of atoms/cell      =          158
     number of atomic types    =            5
     number of electrons       =      1093.00
     number of Kohn-Sham states=          656
     kinetic-energy cutoff     =      50.0000  Ry
     charge density cutoff     =     500.0000  Ry
     scf convergence threshold =      1.0E-06
     mixing beta               =       0.1000
     number of iterations used =            8  local-TF  mixing
     Exchange-correlation=  SLA  PW   PBE  PBE
                           (   1   4   3   4   0   0   0)

     celldm(1)=  17.406729  celldm(2)=   0.000000  celldm(3)=   0.000000
     celldm(4)=   0.000000  celldm(5)=   0.000000  celldm(6)=   0.000000

     crystal axes: (cart. coord. in units of alat)
               a(1) = (   1.000000   0.000000   0.000000 )  
               a(2) = (  -0.001404   1.105696   0.000000 )  
               a(3) = (   0.000000   0.000000   3.520448 )  

     reciprocal axes: (cart. coord. in units 2 pi/alat)
               b(1) = (  1.000000  0.001270  0.000000 )  
               b(2) = (  0.000000  0.904408  0.000000 )  
               b(3) = (  0.000000  0.000000  0.284055 )  


     PseudoPot. # 1 for Ni read from file:
     ~/PSEUDO/Ni.pbe-n-rrkjus_psl.1.0.0.UPF
     MD5 check sum: Not computed, couldn't open file
     Pseudo is Ultrasoft + core correction, Zval = 10.0
     Generated using "atomic" code by A. Dal Corso  v.5.1.2
     Using radial grid of 1195 points,  6 beta functions with: 
                l(1) =   0
                l(2) =   0
                l(3) =   1
                l(4) =   1
                l(5) =   2
                l(6) =   2
     Q(r) pseudized with 0 coefficients 


     PseudoPot. # 2 for Mn read from file:
     ~/PSEUDO/Mn.pbe-spn-rrkjus_psl.0.3.1.UPF
     MD5 check sum: Not computed, couldn't open file
     Pseudo is Ultrasoft + core correction, Zval = 15.0
     Generated using &quot;atomic&quot; code by A. Dal Corso  v.6.2.2
     Using radial grid of 1187 points,  6 beta functions with: 
                l(1) =   0
                l(2) =   0
                l(3) =   1
                l(4) =   1
                l(5) =   2
                l(6) =   2
     Q(r) pseudized with 0 coefficients 


     PseudoPot. # 3 for P  read from file:
     ~/PSEUDO/P.pbe-n-rrkjus_psl.1.0.0.UPF
     MD5 check sum: Not computed, couldn't open file
     Pseudo is Ultrasoft + core correction, Zval =  5.0
     Generated using "atomic" code by A. Dal Corso  v.5.1
     Using radial grid of 1147 points,  6 beta functions with: 
                l(1) =   0
                l(2) =   0
                l(3) =   1
                l(4) =   1
                l(5) =   2
                l(6) =   2
     Q(r) pseudized with 0 coefficients 


     PseudoPot. # 4 for O  read from file:
     ~/PSEUDO/O.pbe-rrkjus.UPF
     MD5 check sum: Not computed, couldn't open file
     Pseudo is Ultrasoft, Zval =  6.0
     Generated by new atomic code, or converted to UPF format
     Using radial grid of 1269 points,  4 beta functions with: 
                l(1) =   0
                l(2) =   0
                l(3) =   1
                l(4) =   1
     Q(r) pseudized with 0 coefficients 


     PseudoPot. # 5 for H  read from file:
     ~/PSEUDO/H.pbe-rrkjus.UPF
     MD5 check sum: Not computed, couldn't open file
     Pseudo is Ultrasoft, Zval =  1.0
     Generated by new atomic code, or converted to UPF format
     Using radial grid of 1061 points,  2 beta functions with: 
                l(1) =   0
                l(2) =   0
     Q(r) pseudized with 0 coefficients 


     atomic species   valence    mass     pseudopotential
     Ni               10.00    58.69300     Ni( 1.00)
     Mn               15.00    54.93800     Mn( 1.00)
     P                 5.00    30.97300     P ( 1.00)
     O                 6.00    15.99900     O ( 1.00)
     H                 1.00     1.00790     H ( 1.00)

     Starting magnetic structure 
     atomic species   magnetization
     Ni              1.000
     Mn              1.000
     P               1.000
     O               1.000
     H               0.000

     No symmetry found



   Cartesian axes

     site n.     atom                  positions (alat units)
         1        Ni     tau(   1) = (   0.2421002   0.8609138   0.1302181  )
         2        Mn     tau(   2) = (   0.4924481   0.7886602   0.4655392  )
         3        Ni     tau(   3) = (   0.0052341   0.3031820   0.1284544  )
         4        Ni     tau(   4) = (   0.2570603   0.2374878   0.4617901  )
         5        Ni     tau(   5) = (   0.4976584   1.1048203   0.2964410  )
         6        Ni     tau(   6) = (   0.2495781   0.5440308   0.2953805  )
         7        P      tau(   7) = (   0.2083492   0.9982113   0.4588145  )
         8        P      tau(   8) = (   0.4584476   0.6559264   0.1347090  )
         9        P      tau(   9) = (   0.2889394   0.1031966   0.1319347  )
        10        P      tau(  10) = (   0.0400379   0.4338094   0.4586283  )
        11        O      tau(  11) = (   0.1314218   0.9248062   0.3189972  )
        12        O      tau(  12) = (   0.3797244   0.7272031   0.2742874  )
        13        O      tau(  13) = (   0.3662315   0.1762062   0.2720888  )
        14        O      tau(  14) = (   0.1171240   0.3646150   0.3169340  )
        15        O      tau(  15) = (   0.1510364   0.9068326   0.5881934  )
        16        O      tau(  16) = (   0.3981989   0.7453439   0.0053495  )
        17        O      tau(  17) = (   0.3490561   0.1888693   0.0010856  )
        18        O      tau(  18) = (   0.0982395   0.3475583   0.5894443  )
        19        O      tau(  19) = (   0.0992163   0.5918099   0.4542505  )
        20        O      tau(  20) = (   0.3467441   1.0504690   0.1405000  )
        21        O      tau(  21) = (   0.3739183   0.4303319   0.4477971  )
        22        O      tau(  22) = (   0.1230967   0.1088895   0.1422960  )
        23        O      tau(  23) = (   0.1242901   0.6635968   0.1442928  )
        24        O      tau(  24) = (   0.4011802   0.4971632   0.1376281  )
        25        O      tau(  25) = (   0.1484006   0.0497464   0.4550965  )
        26        O      tau(  26) = (   0.3736100   0.9942556   0.4492158  )
        27        Ni     tau(  27) = (   0.2413539   0.8509941   0.7820408  )
        28        Mn     tau(  28) = (   0.4917018   0.7787406   1.1173619  )
        29        Ni     tau(  29) = (   0.0044877   0.2932623   0.7802771  )
        30        Ni     tau(  30) = (   0.2563139   0.2275682   1.1136128  )
        31        Ni     tau(  31) = (   0.4969120   1.0949007   0.9482637  )
        32        Ni     tau(  32) = (   0.2488318   0.5341111   0.9472032  )
        33        P      tau(  33) = (   0.2076029   0.9882917   1.1106372  )
        34        P      tau(  34) = (   0.4577012   0.6460068   0.7865316  )
        35        P      tau(  35) = (   0.2881931   0.0932770   0.7837574  )
        36        P      tau(  36) = (   0.0392916   0.4238898   1.1104509  )
        37        O      tau(  37) = (   0.1306755   0.9148866   0.9708199  )
        38        O      tau(  38) = (   0.3789780   0.7172835   0.9261101  )
        39        O      tau(  39) = (   0.3654852   0.1662865   0.9239115  )
        40        O      tau(  40) = (   0.1163776   0.3546954   0.9687567  )
        41        O      tau(  41) = (   0.1502901   0.8969129   1.2400160  )
        42        O      tau(  42) = (   0.3974525   0.7354243   0.6571722  )
        43        O      tau(  43) = (   0.3483097   0.1789497   0.6529083  )
        44        O      tau(  44) = (   0.0974932   0.3376387   1.2412670  )
        45        O      tau(  45) = (   0.0984699   0.5818903   1.1060732  )
        46        O      tau(  46) = (   0.3459978   1.0405493   0.7923226  )
        47        O      tau(  47) = (   0.3731719   0.4204123   1.0996198  )
        48        O      tau(  48) = (   0.1223503   0.0989699   0.7941187  )
        49        O      tau(  49) = (   0.1235438   0.6536772   0.7961155  )
        50        O      tau(  50) = (   0.4004339   0.4872435   0.7894508  )
        51        O      tau(  51) = (   0.1476543   0.0398268   1.1069192  )
        52        O      tau(  52) = (   0.3728637   0.9843360   1.1010385  )
        53        Ni     tau(  53) = (   0.2408392   0.8320559   1.4307548  )
        54        Mn     tau(  54) = (   0.4954146   0.7586327   1.7610775  )
        55        Ni     tau(  55) = (   0.0038240   0.2752655   1.4301830  )
        56        Ni     tau(  56) = (   0.2490297   0.2126224   1.7413163  )
        57        Ni     tau(  57) = (   0.5009698   1.0727426   1.5934065  )
        58        Ni     tau(  58) = (   0.2431858   0.5187785   1.5959132  )
        59        P      tau(  59) = (   0.2122300   0.9646931   1.7577827  )
        60        P      tau(  60) = (   0.4560273   0.6255665   1.4349308  )
        61        P      tau(  61) = (   0.2895010   0.0747953   1.4294223  )
        62        P      tau(  62) = (   0.0342753   0.4049908   1.7624825  )
        63        O      tau(  63) = (   0.1360342   0.9011422   1.6115162  )
        64        O      tau(  64) = (   0.3787980   0.6986865   1.5736904  )
        65        O      tau(  65) = (   0.3677510   0.1474149   1.5681507  )
        66        O      tau(  66) = (   0.1091522   0.3445019   1.6130708  )
        67        O      tau(  67) = (   0.1535140   0.8654492   1.8774963  )
        68        O      tau(  68) = (   0.3948076   0.7176264   1.3082772  )
        69        O      tau(  69) = (   0.3502162   0.1643066   1.3009305  )
        70        O      tau(  70) = (   0.0993202   0.3091187   1.8805971  )
        71        O      tau(  71) = (   0.0903777   0.5660296   1.7630811  )
        72        O      tau(  72) = (   0.3492636   1.0227954   1.4341724  )
        73        O      tau(  73) = (   0.3646020   0.4001049   1.7428273  )
        74        O      tau(  74) = (   0.1232632   0.0821777   1.4436547  )
        75        O      tau(  75) = (   0.1218485   0.6357099   1.4465986  )
        76        O      tau(  76) = (   0.3950879   0.4683338   1.4358038  )
        77        O      tau(  77) = (   0.1575600   0.0186245   1.7589158  )
        78        O      tau(  78) = (   0.3794955   0.9564473   1.7469906  )
        79        Ni     tau(  79) = (   0.7421002   0.8609138   0.1302181  )
        80        Mn     tau(  80) = (   0.9924481   0.7886602   0.4655392  )
        81        Ni     tau(  81) = (   0.5052341   0.3031820   0.1284544  )
        82        Ni     tau(  82) = (   0.7570603   0.2374878   0.4617901  )
        83        Ni     tau(  83) = (   0.9976584   1.1048203   0.2964410  )
        84        Ni     tau(  84) = (   0.7495781   0.5440308   0.2953805  )
        85        P      tau(  85) = (   0.7083492   0.9982113   0.4588145  )
        86        P      tau(  86) = (   0.9584476   0.6559264   0.1347090  )
        87        P      tau(  87) = (   0.7889394   0.1031966   0.1319347  )
        88        P      tau(  88) = (   0.5400379   0.4338094   0.4586283  )
        89        O      tau(  89) = (   0.6314218   0.9248062   0.3189972  )
        90        O      tau(  90) = (   0.8797244   0.7272031   0.2742874  )
        91        O      tau(  91) = (   0.8662315   0.1762062   0.2720888  )
        92        O      tau(  92) = (   0.6171240   0.3646150   0.3169340  )
        93        O      tau(  93) = (   0.6510364   0.9068326   0.5881934  )
        94        O      tau(  94) = (   0.8981989   0.7453439   0.0053495  )
        95        O      tau(  95) = (   0.8490561   0.1888693   0.0010856  )
        96        O      tau(  96) = (   0.5982395   0.3475583   0.5894443  )
        97        O      tau(  97) = (   0.5992163   0.5918099   0.4542505  )
        98        O      tau(  98) = (   0.8467441   1.0504690   0.1405000  )
        99        O      tau(  99) = (   0.8739183   0.4303319   0.4477971  )
       100        O      tau( 100) = (   0.6230967   0.1088895   0.1422960  )
       101        O      tau( 101) = (   0.6242901   0.6635968   0.1442928  )
       102        O      tau( 102) = (   0.9011802   0.4971632   0.1376281  )
       103        O      tau( 103) = (   0.6484006   0.0497464   0.4550965  )
       104        O      tau( 104) = (   0.8736100   0.9942556   0.4492158  )
       105        Ni     tau( 105) = (   0.7413539   0.8509941   0.7820408  )
       106        Mn     tau( 106) = (   0.9917018   0.7787406   1.1173619  )
       107        Ni     tau( 107) = (   0.5044877   0.2932623   0.7802771  )
       108        Ni     tau( 108) = (   0.7563139   0.2275682   1.1136128  )
       109        Ni     tau( 109) = (   0.9969120   1.0949007   0.9482637  )
       110        Ni     tau( 110) = (   0.7488318   0.5341111   0.9472032  )
       111        P      tau( 111) = (   0.7076029   0.9882917   1.1106372  )
       112        P      tau( 112) = (   0.9577012   0.6460068   0.7865316  )
       113        P      tau( 113) = (   0.7881931   0.0932770   0.7837574  )
       114        P      tau( 114) = (   0.5392916   0.4238898   1.1104509  )
       115        O      tau( 115) = (   0.6306755   0.9148866   0.9708199  )
       116        O      tau( 116) = (   0.8789780   0.7172835   0.9261101  )
       117        O      tau( 117) = (   0.8654852   0.1662865   0.9239115  )
       118        O      tau( 118) = (   0.6163776   0.3546954   0.9687567  )
       119        O      tau( 119) = (   0.6502901   0.8969129   1.2400160  )
       120        O      tau( 120) = (   0.8974525   0.7354243   0.6571722  )
       121        O      tau( 121) = (   0.8483097   0.1789497   0.6529083  )
       122        O      tau( 122) = (   0.5974932   0.3376387   1.2412670  )
       123        O      tau( 123) = (   0.5984699   0.5818903   1.1060732  )
       124        O      tau( 124) = (   0.8459978   1.0405493   0.7923226  )
       125        O      tau( 125) = (   0.8731719   0.4204123   1.0996198  )
       126        O      tau( 126) = (   0.6223503   0.0989699   0.7941187  )
       127        O      tau( 127) = (   0.6235438   0.6536772   0.7961155  )
       128        O      tau( 128) = (   0.9004339   0.4872435   0.7894508  )
       129        O      tau( 129) = (   0.6476543   0.0398268   1.1069192  )
       130        O      tau( 130) = (   0.8728637   0.9843360   1.1010385  )
       131        Ni     tau( 131) = (   0.7412940   0.8317433   1.4310133  )
       132        Mn     tau( 132) = (   0.9942976   0.7631104   1.7617718  )
       133        Ni     tau( 133) = (   0.5047574   0.2752797   1.4288709  )
       134        Ni     tau( 134) = (   0.7578350   0.2028549   1.7762646  )
       135        Ni     tau( 135) = (   0.9991757   1.0753039   1.5972728  )
       136        Ni     tau( 136) = (   0.7442600   0.5152897   1.5986856  )
       137        P      tau( 137) = (   0.7103622   0.9612778   1.7571285  )
       138        P      tau( 138) = (   0.9553703   0.6259627   1.4358934  )
       139        P      tau( 139) = (   0.7893263   0.0766982   1.4325513  )
       140        P      tau( 140) = (   0.5325678   0.3983667   1.7561030  )
       141        O      tau( 141) = (   0.6347348   0.8960507   1.6104236  )
       142        O      tau( 142) = (   0.8786872   0.6982692   1.5748233  )
       143        O      tau( 143) = (   0.8656120   0.1503721   1.5709854  )
       144        O      tau( 144) = (   0.6103215   0.3431354   1.6091064  )
       145        O      tau( 145) = (   0.6551320   0.8592875   1.8763947  )
       146        O      tau( 146) = (   0.8944353   0.7174045   1.3087138  )
       147        O      tau( 147) = (   0.8496681   0.1651992   1.3026615  )
       148        O      tau( 148) = (   0.5874463   0.2980729   1.8752625  )
       149        O      tau( 149) = (   0.5882302   0.5598447   1.7638488  )
       150        O      tau( 150) = (   0.8489894   1.0242576   1.4369886  )
       151        O      tau( 151) = (   0.8668845   0.4032412   1.7522286  )
       152        O      tau( 152) = (   0.6225444   0.0814235   1.4420664  )
       153        O      tau( 153) = (   0.6223363   0.6337860   1.4464754  )
       154        O      tau( 154) = (   0.8959961   0.4681766   1.4379317  )
       155        O      tau( 155) = (   0.6491461   0.0122190   1.7550753  )
       156        O      tau( 156) = (   0.8775761   0.9554460   1.7441695  )
       157        O      tau( 157) = (   0.8703181   0.1184006   1.9156559  )
       158        H      tau( 158) = (   0.9546665   0.1787018   1.9403932  )

     -------------------------------------------------
     Parameters for Dispersion (Grimme-D2) Correction:
     -------------------------------------------------
       atom      VdW radius       C_6     

        Ni         2.952        374.666
        Mn         2.952        374.666
        P          3.222        271.980
        O          2.536         24.284
        H          1.892          4.857

     number of k points=     1  Gaussian smearing, width (Ry)=  0.0100
                       cart. coord. in units 2pi/alat
        k(    1) = (   0.0000000   0.0000000   0.0000000), wk =   1.0000000

     Dense  grid:  1938023 G-vectors     FFT dimensions: ( 125, 144, 450)

     Smooth grid:   490328 G-vectors     FFT dimensions: (  80,  90, 288)

     Estimated max dynamical RAM per process >     326.29 MB

     Estimated total dynamical RAM >      20.39 GB

     Check: negative core charge=   -0.000001
     Generating pointlists ...
     new r_m :   0.0817 (alat units)  1.4219 (a.u.) for type    1
     new r_m :   0.0904 (alat units)  1.5743 (a.u.) for type    2
     new r_m :   0.0681 (alat units)  1.1857 (a.u.) for type    3
     new r_m :   0.0440 (alat units)  0.7654 (a.u.) for type    4
     new r_m :   0.0440 (alat units)  0.7654 (a.u.) for type    5

     Initial potential from superposition of free atoms

     starting charge    1092.8893, renormalised to    1093.0000

     negative rho (up, down):  1.375E-03 4.552E-04
 
     Adding external electric field

     Computed dipole along edir(3) : 
        Dipole                1.6484 Ry au,          4.1898 Debye
        Dipole field          0.0010 Ry au, 
 
        Potential amp.       -0.1113 Ry
        Total length         55.1515 bohr
 
 
     Adding external electric field

     Computed dipole along edir(3) : 
        Dipole                1.6484 Ry au,          4.1898 Debye
        Dipole field          0.0010 Ry au, 
 
        Potential amp.       -0.1113 Ry
        Total length         55.1515 bohr
 
     Starting wfcs are  815 randomized atomic wfcs

     total cpu time spent up to now is       11.8 secs

     Self-consistent Calculation

     iteration #  1     ecut=    50.00 Ry     beta= 0.10
     Davidson diagonalization with overlap
     ethr =  1.00E-02,  avg # of iterations =  6.0

     negative rho (up, down):  3.831E-01 1.005E-06
 
     Adding external electric field

     Computed dipole along edir(3) : 
        Dipole               -3.6086 Ry au,         -9.1722 Debye
        Dipole field         -0.0022 Ry au, 
 
        Potential amp.        0.2436 Ry
        Total length         55.1515 bohr
 
 
     Adding external electric field

     Computed dipole along edir(3) : 
        Dipole               -3.6086 Ry au,         -9.1722 Debye
        Dipole field         -0.0022 Ry au, 
 
        Potential amp.        0.2436 Ry
        Total length         55.1515 bohr
 

     total cpu time spent up to now is       42.2 secs

     total energy              =   -7517.39416283 Ry
     estimated scf accuracy    <     750.77414271 Ry

     total magnetization       =   219.00 Bohr mag/cell
     absolute magnetization    =   307.79 Bohr mag/cell

     iteration #  2     ecut=    50.00 Ry     beta= 0.10
     Davidson diagonalization with overlap
     ethr =  1.00E-02,  avg # of iterations =  2.0

     negative rho (up, down):  3.612E-01 6.543E-07
 
     Adding external electric field

     Computed dipole along edir(3) : 
        Dipole               -2.4545 Ry au,         -6.2387 Debye
        Dipole field         -0.0015 Ry au, 
 
        Potential amp.        0.1657 Ry
        Total length         55.1515 bohr
 
 
     Adding external electric field

     Computed dipole along edir(3) : 
        Dipole               -2.4545 Ry au,         -6.2387 Debye
        Dipole field         -0.0015 Ry au, 
 
        Potential amp.        0.1657 Ry
        Total length         55.1515 bohr
 

     total cpu time spent up to now is       60.0 secs

     total energy              =   -7601.03210288 Ry
     estimated scf accuracy    <     200.17122120 Ry

     total magnetization       =   158.31 Bohr mag/cell
     absolute magnetization    =   206.94 Bohr mag/cell

     iteration #  3     ecut=    50.00 Ry     beta= 0.10
     Davidson diagonalization with overlap
     ethr =  1.00E-02,  avg # of iterations =  1.5

     negative rho (up, down):  3.193E-01 4.496E-07
 
     Adding external electric field

     Computed dipole along edir(3) : 
        Dipole               -2.0901 Ry au,         -5.3125 Debye
        Dipole field         -0.0013 Ry au, 
 
        Potential amp.        0.1411 Ry
        Total length         55.1515 bohr
 
 
     Adding external electric field

     Computed dipole along edir(3) : 
        Dipole               -2.0901 Ry au,         -5.3125 Debye
        Dipole field         -0.0013 Ry au, 
 
        Potential amp.        0.1411 Ry
        Total length         55.1515 bohr
 

     total cpu time spent up to now is       73.8 secs

     total energy              =   -7631.74347534 Ry
     estimated scf accuracy    <     101.45058491 Ry

     total magnetization       =   134.68 Bohr mag/cell
     absolute magnetization    =   185.88 Bohr mag/cell

     iteration #  4     ecut=    50.00 Ry     beta= 0.10
     Davidson diagonalization with overlap
     ethr =  9.28E-03,  avg # of iterations =  1.5

     negative rho (up, down):  2.501E-01 1.391E-07
 
     Adding external electric field

     Computed dipole along edir(3) : 
        Dipole               -2.0368 Ry au,         -5.1769 Debye
        Dipole field         -0.0012 Ry au, 
 
        Potential amp.        0.1375 Ry
        Total length         55.1515 bohr
 
 
     Adding external electric field

     Computed dipole along edir(3) : 
        Dipole               -2.0368 Ry au,         -5.1769 Debye
        Dipole field         -0.0012 Ry au, 
 
        Potential amp.        0.1375 Ry
        Total length         55.1515 bohr
 

     total cpu time spent up to now is       87.7 secs

     total energy              =   -7662.91250998 Ry
     estimated scf accuracy    <      81.66079387 Ry

     total magnetization       =   118.45 Bohr mag/cell
     absolute magnetization    =   171.21 Bohr mag/cell

     iteration #  5     ecut=    50.00 Ry     beta= 0.10
     Davidson diagonalization with overlap
     ethr =  7.47E-03,  avg # of iterations =  1.0

     negative rho (up, down):  2.850E-02 1.486E-08
 
     Adding external electric field

     Computed dipole along edir(3) : 
        Dipole               -1.6040 Ry au,         -4.0770 Debye
        Dipole field         -0.0010 Ry au, 
 
        Potential amp.        0.1083 Ry
        Total length         55.1515 bohr
 
 
     Adding external electric field

     Computed dipole along edir(3) : 
        Dipole               -1.6040 Ry au,         -4.0770 Debye
        Dipole field         -0.0010 Ry au, 
 
        Potential amp.        0.1083 Ry
        Total length         55.1515 bohr
 

     total cpu time spent up to now is      100.4 secs

     total energy              =   -7722.78788979 Ry
     estimated scf accuracy    <      66.33080194 Ry

     total magnetization       =    97.47 Bohr mag/cell
     absolute magnetization    =   153.30 Bohr mag/cell

     iteration #  6     ecut=    50.00 Ry     beta= 0.10
     Davidson diagonalization with overlap
     ethr =  6.07E-03,  avg # of iterations =  1.0

     negative rho (up, down):  4.589E-04 7.170E-04
 
     Adding external electric field

     Computed dipole along edir(3) : 
        Dipole               -1.1443 Ry au,         -2.9085 Debye
        Dipole field         -0.0007 Ry au, 
 
        Potential amp.        0.0773 Ry
        Total length         55.1515 bohr
 
 
     Adding external electric field

     Computed dipole along edir(3) : 
        Dipole               -1.1443 Ry au,         -2.9085 Debye
        Dipole field         -0.0007 Ry au, 
 
        Potential amp.        0.0773 Ry
        Total length         55.1515 bohr
 

     total cpu time spent up to now is      113.4 secs

     total energy              =   -7735.78988526 Ry
     estimated scf accuracy    <      15.10680842 Ry

     total magnetization       =    91.00 Bohr mag/cell
     absolute magnetization    =   125.39 Bohr mag/cell

     iteration #  7     ecut=    50.00 Ry     beta= 0.10
     Davidson diagonalization with overlap
     ethr =  1.38E-03,  avg # of iterations =  6.0

     negative rho (up, down):  4.388E-04 6.920E-04
 
     Adding external electric field

     Computed dipole along edir(3) : 
        Dipole               -1.1255 Ry au,         -2.8607 Debye
        Dipole field         -0.0007 Ry au, 
 
        Potential amp.        0.0760 Ry
        Total length         55.1515 bohr
 
 
     Adding external electric field

     Computed dipole along edir(3) : 
        Dipole               -1.1255 Ry au,         -2.8607 Debye
        Dipole field         -0.0007 Ry au, 
 
        Potential amp.        0.0760 Ry
        Total length         55.1515 bohr
 

     total cpu time spent up to now is      136.1 secs

     total energy              =   -7738.36825011 Ry
     estimated scf accuracy    <      26.53654774 Ry

     total magnetization       =    70.28 Bohr mag/cell
     absolute magnetization    =    87.55 Bohr mag/cell

     iteration #  8     ecut=    50.00 Ry     beta= 0.10
     Davidson diagonalization with overlap
     ethr =  1.38E-03,  avg # of iterations =  1.0

     negative rho (up, down):  3.930E-04 6.226E-04
 
     Adding external electric field

     Computed dipole along edir(3) : 
        Dipole               -1.0887 Ry au,         -2.7672 Debye
        Dipole field         -0.0007 Ry au, 
 
        Potential amp.        0.0735 Ry
        Total length         55.1515 bohr
 
 
     Adding external electric field

     Computed dipole along edir(3) : 
        Dipole               -1.0887 Ry au,         -2.7672 Debye
        Dipole field         -0.0007 Ry au, 
 
        Potential amp.        0.0735 Ry
        Total length         55.1515 bohr
 

     total cpu time spent up to now is      149.1 secs

     total energy              =   -7738.33769720 Ry
     estimated scf accuracy    <      25.40319778 Ry

     total magnetization       =    70.60 Bohr mag/cell
     absolute magnetization    =    87.46 Bohr mag/cell

     iteration #  9     ecut=    50.00 Ry     beta= 0.10
     Davidson diagonalization with overlap
     ethr =  1.38E-03,  avg # of iterations =  1.0

     negative rho (up, down):  1.302E-04 5.579E-04
 
     Adding external electric field

     Computed dipole along edir(3) : 
        Dipole               -0.7651 Ry au,         -1.9447 Debye
        Dipole field         -0.0005 Ry au, 
 
        Potential amp.        0.0517 Ry
        Total length         55.1515 bohr
 
 
     Adding external electric field

     Computed dipole along edir(3) : 
        Dipole               -0.7651 Ry au,         -1.9447 Debye
        Dipole field         -0.0005 Ry au, 
 
        Potential amp.        0.0517 Ry
        Total length         55.1515 bohr
 

     total cpu time spent up to now is      162.1 secs

     total energy              =   -7737.56827268 Ry
     estimated scf accuracy    <      23.36251898 Ry

     total magnetization       =    70.98 Bohr mag/cell
     absolute magnetization    =    87.33 Bohr mag/cell

     iteration # 10     ecut=    50.00 Ry     beta= 0.10
     Davidson diagonalization with overlap
     ethr =  1.38E-03,  avg # of iterations =  1.0

     negative rho (up, down):  1.427E-04 8.214E-04
 
     Adding external electric field

     Computed dipole along edir(3) : 
        Dipole               -0.6626 Ry au,         -1.6842 Debye
        Dipole field         -0.0004 Ry au, 
 
        Potential amp.        0.0447 Ry
        Total length         55.1515 bohr
 
 
     Adding external electric field

     Computed dipole along edir(3) : 
        Dipole               -0.6626 Ry au,         -1.6842 Debye
        Dipole field         -0.0004 Ry au, 
 
        Potential amp.        0.0447 Ry
        Total length         55.1515 bohr
 

     total cpu time spent up to now is      174.1 secs

     total energy              =   -7737.86179389 Ry
     estimated scf accuracy    <       3.94158441 Ry

     total magnetization       =    81.92 Bohr mag/cell
     absolute magnetization    =    93.37 Bohr mag/cell

     iteration # 11     ecut=    50.00 Ry     beta= 0.10
     Davidson diagonalization with overlap
     ethr =  3.61E-04,  avg # of iterations =  2.0

     negative rho (up, down):  1.152E-04 7.905E-04
 
     Adding external electric field

     Computed dipole along edir(3) : 
        Dipole               -0.6867 Ry au,         -1.7454 Debye
        Dipole field         -0.0004 Ry au, 
 
        Potential amp.        0.0464 Ry
        Total length         55.1515 bohr
 
 
     Adding external electric field

     Computed dipole along edir(3) : 
        Dipole               -0.6867 Ry au,         -1.7454 Debye
        Dipole field         -0.0004 Ry au, 
 
        Potential amp.        0.0464 Ry
        Total length         55.1515 bohr
 

     total cpu time spent up to now is      187.5 secs

     total energy              =   -7737.91673320 Ry
     estimated scf accuracy    <       1.14423060 Ry

     total magnetization       =    87.42 Bohr mag/cell
     absolute magnetization    =    97.09 Bohr mag/cell

     iteration # 12     ecut=    50.00 Ry     beta= 0.10
     Davidson diagonalization with overlap
     c_bands:  1 eigenvalues not converged
     ethr =  1.05E-04,  avg # of iterations = 11.0

     negative rho (up, down):  7.018E-05 7.391E-04
 
     Adding external electric field

     Computed dipole along edir(3) : 
        Dipole               -0.6717 Ry au,         -1.7073 Debye
        Dipole field         -0.0004 Ry au, 
 
        Potential amp.        0.0454 Ry
        Total length         55.1515 bohr
 
 
     Adding external electric field

     Computed dipole along edir(3) : 
        Dipole               -0.6717 Ry au,         -1.7073 Debye
        Dipole field         -0.0004 Ry au, 
 
        Potential amp.        0.0454 Ry
        Total length         55.1515 bohr
 

     total cpu time spent up to now is      209.5 secs

     total energy              =   -7737.98967979 Ry
     estimated scf accuracy    <       1.07708346 Ry

     total magnetization       =    85.93 Bohr mag/cell
     absolute magnetization    =    95.24 Bohr mag/cell

     iteration # 13     ecut=    50.00 Ry     beta= 0.10
     Davidson diagonalization with overlap
     ethr =  9.85E-05,  avg # of iterations =  1.5

     negative rho (up, down):  6.680E-05 7.793E-04
 
     Adding external electric field

     Computed dipole along edir(3) : 
        Dipole               -0.6195 Ry au,         -1.5747 Debye
        Dipole field         -0.0004 Ry au, 
 
        Potential amp.        0.0418 Ry
        Total length         55.1515 bohr
 
 
     Adding external electric field

     Computed dipole along edir(3) : 
        Dipole               -0.6195 Ry au,         -1.5747 Debye
        Dipole field         -0.0004 Ry au, 
 
        Potential amp.        0.0418 Ry
        Total length         55.1515 bohr
 

     total cpu time spent up to now is      222.5 secs

     total energy              =   -7738.05348010 Ry
     estimated scf accuracy    <       0.95122145 Ry

     total magnetization       =    85.09 Bohr mag/cell
     absolute magnetization    =    93.13 Bohr mag/cell

     iteration # 14     ecut=    50.00 Ry     beta= 0.10
     Davidson diagonalization with overlap
     ethr =  8.70E-05,  avg # of iterations =  1.5

     negative rho (up, down):  7.781E-05 6.718E-04
 
     Adding external electric field

     Computed dipole along edir(3) : 
        Dipole               -0.5099 Ry au,         -1.2960 Debye
        Dipole field         -0.0003 Ry au, 
 
        Potential amp.        0.0344 Ry
        Total length         55.1515 bohr
 
 
     Adding external electric field

     Computed dipole along edir(3) : 
        Dipole               -0.5099 Ry au,         -1.2960 Debye
        Dipole field         -0.0003 Ry au, 
 
        Potential amp.        0.0344 Ry
        Total length         55.1515 bohr
 

     total cpu time spent up to now is      235.6 secs

     total energy              =   -7738.18935603 Ry
     estimated scf accuracy    <       0.41662925 Ry

     total magnetization       =    87.32 Bohr mag/cell
     absolute magnetization    =    93.99 Bohr mag/cell

     iteration # 15     ecut=    50.00 Ry     beta= 0.10
     Davidson diagonalization with overlap
     c_bands:  1 eigenvalues not converged
     ethr =  3.81E-05,  avg # of iterations = 10.5

     negative rho (up, down):  5.060E-05 2.712E-04
 
     Adding external electric field

     Computed dipole along edir(3) : 
        Dipole               -0.4269 Ry au,         -1.0850 Debye
        Dipole field         -0.0003 Ry au, 
 
        Potential amp.        0.0288 Ry
        Total length         55.1515 bohr
 
 
     Adding external electric field

     Computed dipole along edir(3) : 
        Dipole               -0.4269 Ry au,         -1.0850 Debye
        Dipole field         -0.0003 Ry au, 
 
        Potential amp.        0.0288 Ry
        Total length         55.1515 bohr
 

     total cpu time spent up to now is      253.0 secs

     total energy              =   -7738.28166736 Ry
     estimated scf accuracy    <       0.44887262 Ry

     total magnetization       =    89.66 Bohr mag/cell
     absolute magnetization    =    94.04 Bohr mag/cell

     iteration # 16     ecut=    50.00 Ry     beta= 0.10
     Davidson diagonalization with overlap
     ethr =  3.81E-05,  avg # of iterations =  1.5

     negative rho (up, down):  5.745E-05 1.539E-04
 
     Adding external electric field

     Computed dipole along edir(3) : 
        Dipole               -0.3755 Ry au,         -0.9544 Debye
        Dipole field         -0.0002 Ry au, 
 
        Potential amp.        0.0254 Ry
        Total length         55.1515 bohr
 
 
     Adding external electric field

     Computed dipole along edir(3) : 
        Dipole               -0.3755 Ry au,         -0.9544 Debye
        Dipole field         -0.0002 Ry au, 
 
        Potential amp.        0.0254 Ry
        Total length         55.1515 bohr
 

     total cpu time spent up to now is      265.0 secs

     total energy              =   -7738.30497457 Ry
     estimated scf accuracy    <       0.42631999 Ry

     total magnetization       =    89.56 Bohr mag/cell
     absolute magnetization    =    92.54 Bohr mag/cell

     iteration # 17     ecut=    50.00 Ry     beta= 0.10
     Davidson diagonalization with overlap
     ethr =  3.81E-05,  avg # of iterations =  2.0

     negative rho (up, down):  3.850E-05 1.531E-04
 
     Adding external electric field

     Computed dipole along edir(3) : 
        Dipole               -0.3823 Ry au,         -0.9717 Debye
        Dipole field         -0.0002 Ry au, 
 
        Potential amp.        0.0258 Ry
        Total length         55.1515 bohr
 
 
     Adding external electric field

     Computed dipole along edir(3) : 
        Dipole               -0.3823 Ry au,         -0.9717 Debye
        Dipole field         -0.0002 Ry au, 
 
        Potential amp.        0.0258 Ry
        Total length         55.1515 bohr
 

     total cpu time spent up to now is      278.0 secs

     total energy              =   -7738.30980278 Ry
     estimated scf accuracy    <       0.42719981 Ry

     total magnetization       =    89.07 Bohr mag/cell
     absolute magnetization    =    91.05 Bohr mag/cell

     iteration # 18     ecut=    50.00 Ry     beta= 0.10
     Davidson diagonalization with overlap
     ethr =  3.81E-05,  avg # of iterations =  1.5

     negative rho (up, down):  3.041E-05 2.074E-04
 
     Adding external electric field

     Computed dipole along edir(3) : 
        Dipole               -0.3939 Ry au,         -1.0013 Debye
        Dipole field         -0.0002 Ry au, 
 
        Potential amp.        0.0266 Ry
        Total length         55.1515 bohr
 
 
     Adding external electric field

     Computed dipole along edir(3) : 
        Dipole               -0.3939 Ry au,         -1.0013 Debye
        Dipole field         -0.0002 Ry au, 
 
        Potential amp.        0.0266 Ry
        Total length         55.1515 bohr
 

     total cpu time spent up to now is      290.8 secs

     total energy              =   -7738.30365338 Ry
     estimated scf accuracy    <       0.39029115 Ry

     total magnetization       =    88.71 Bohr mag/cell
     absolute magnetization    =    90.49 Bohr mag/cell

     iteration # 19     ecut=    50.00 Ry     beta= 0.10
     Davidson diagonalization with overlap
     ethr =  3.57E-05,  avg # of iterations =  1.5

     negative rho (up, down):  1.551E-05 1.576E-04
 
     Adding external electric field

     Computed dipole along edir(3) : 
        Dipole               -0.3765 Ry au,         -0.9570 Debye
        Dipole field         -0.0002 Ry au, 
 
        Potential amp.        0.0254 Ry
        Total length         55.1515 bohr
 
 
     Adding external electric field

     Computed dipole along edir(3) : 
        Dipole               -0.3765 Ry au,         -0.9570 Debye
        Dipole field         -0.0002 Ry au, 
 
        Potential amp.        0.0254 Ry
        Total length         55.1515 bohr
 

     total cpu time spent up to now is      303.4 secs

     total energy              =   -7738.30168011 Ry
     estimated scf accuracy    <       0.23047907 Ry

     total magnetization       =    88.48 Bohr mag/cell
     absolute magnetization    =    90.07 Bohr mag/cell

     iteration # 20     ecut=    50.00 Ry     beta= 0.10
     Davidson diagonalization with overlap
     ethr =  2.11E-05,  avg # of iterations =  2.0

     negative rho (up, down):  2.764E-05 1.536E-04
 
     Adding external electric field

     Computed dipole along edir(3) : 
        Dipole               -0.3342 Ry au,         -0.8495 Debye
        Dipole field         -0.0002 Ry au, 
 
        Potential amp.        0.0226 Ry
        Total length         55.1515 bohr
 
 
     Adding external electric field

     Computed dipole along edir(3) : 
        Dipole               -0.3342 Ry au,         -0.8495 Debye
        Dipole field         -0.0002 Ry au, 
 
        Potential amp.        0.0226 Ry
        Total length         55.1515 bohr
 

     total cpu time spent up to now is      316.9 secs

     total energy              =   -7738.29778910 Ry
     estimated scf accuracy    <       0.23745676 Ry

     total magnetization       =    88.37 Bohr mag/cell
     absolute magnetization    =    89.88 Bohr mag/cell

     iteration # 21     ecut=    50.00 Ry     beta= 0.10
     Davidson diagonalization with overlap
     ethr =  2.11E-05,  avg # of iterations = 17.5

     negative rho (up, down):  3.731E-05 1.669E-04
 
     Adding external electric field

     Computed dipole along edir(3) : 
        Dipole               -0.3413 Ry au,         -0.8674 Debye
        Dipole field         -0.0002 Ry au, 
 
        Potential amp.        0.0230 Ry
        Total length         55.1515 bohr
 
 
     Adding external electric field

     Computed dipole along edir(3) : 
        Dipole               -0.3413 Ry au,         -0.8674 Debye
        Dipole field         -0.0002 Ry au, 
 
        Potential amp.        0.0230 Ry
        Total length         55.1515 bohr
 

     total cpu time spent up to now is      345.2 secs

     total energy              =   -7738.30068680 Ry
     estimated scf accuracy    <       0.17124001 Ry

     total magnetization       =    88.48 Bohr mag/cell
     absolute magnetization    =    89.76 Bohr mag/cell

     iteration # 22     ecut=    50.00 Ry     beta= 0.10
     Davidson diagonalization with overlap
     ethr =  1.57E-05,  avg # of iterations =  1.5

     negative rho (up, down):  1.597E-05 1.214E-04
 
     Adding external electric field

     Computed dipole along edir(3) : 
        Dipole               -0.2899 Ry au,         -0.7367 Debye
        Dipole field         -0.0002 Ry au, 
 
        Potential amp.        0.0196 Ry
        Total length         55.1515 bohr
 
 
     Adding external electric field

     Computed dipole along edir(3) : 
        Dipole               -0.2899 Ry au,         -0.7367 Debye
        Dipole field         -0.0002 Ry au, 
 
        Potential amp.        0.0196 Ry
        Total length         55.1515 bohr
 

     total cpu time spent up to now is      358.0 secs

     total energy              =   -7738.29942306 Ry
     estimated scf accuracy    <       0.16079806 Ry

     total magnetization       =    88.69 Bohr mag/cell
     absolute magnetization    =    89.94 Bohr mag/cell

     iteration # 23     ecut=    50.00 Ry     beta= 0.10
     Davidson diagonalization with overlap
     ethr =  1.47E-05,  avg # of iterations =  2.0

     negative rho (up, down):  3.090E-05 1.204E-04
 
     Adding external electric field

     Computed dipole along edir(3) : 
        Dipole               -0.3294 Ry au,         -0.8372 Debye
        Dipole field         -0.0002 Ry au, 
 
        Potential amp.        0.0222 Ry
        Total length         55.1515 bohr
 
 
     Adding external electric field

     Computed dipole along edir(3) : 
        Dipole               -0.3294 Ry au,         -0.8372 Debye
        Dipole field         -0.0002 Ry au, 
 
        Potential amp.        0.0222 Ry
        Total length         55.1515 bohr
 

     total cpu time spent up to now is      371.8 secs

     total energy              =   -7738.30320588 Ry
     estimated scf accuracy    <       0.21153019 Ry

     total magnetization       =    88.93 Bohr mag/cell
     absolute magnetization    =    90.12 Bohr mag/cell

     iteration # 24     ecut=    50.00 Ry     beta= 0.10
     Davidson diagonalization with overlap
     ethr =  1.47E-05,  avg # of iterations =  1.5

     negative rho (up, down):  1.204E-04 1.765E-04
 
     Adding external electric field

     Computed dipole along edir(3) : 
        Dipole               -0.4026 Ry au,         -1.0232 Debye
        Dipole field         -0.0002 Ry au, 
 
        Potential amp.        0.0272 Ry
        Total length         55.1515 bohr
 
 
     Adding external electric field

     Computed dipole along edir(3) : 
        Dipole               -0.4026 Ry au,         -1.0232 Debye
        Dipole field         -0.0002 Ry au, 
 
        Potential amp.        0.0272 Ry
        Total length         55.1515 bohr
 

     total cpu time spent up to now is      384.6 secs

     total energy              =   -7738.30670064 Ry
     estimated scf accuracy    <       0.18683360 Ry

     total magnetization       =    88.78 Bohr mag/cell
     absolute magnetization    =    90.01 Bohr mag/cell

     iteration # 25     ecut=    50.00 Ry     beta= 0.10
     Davidson diagonalization with overlap
     ethr =  1.47E-05,  avg # of iterations =  2.0

     negative rho (up, down):  2.322E-04 2.640E-04
 
     Adding external electric field

     Computed dipole along edir(3) : 
        Dipole               -0.3806 Ry au,         -0.9674 Debye
        Dipole field         -0.0002 Ry au, 
 
        Potential amp.        0.0257 Ry
        Total length         55.1515 bohr
 
 
     Adding external electric field

     Computed dipole along edir(3) : 
        Dipole               -0.3806 Ry au,         -0.9674 Debye
        Dipole field         -0.0002 Ry au, 
 
        Potential amp.        0.0257 Ry
        Total length         55.1515 bohr
 

     total cpu time spent up to now is      399.0 secs

     total energy              =   -7738.30671927 Ry
     estimated scf accuracy    <       0.10082609 Ry

     total magnetization       =    88.36 Bohr mag/cell
     absolute magnetization    =    89.62 Bohr mag/cell

     iteration # 26     ecut=    50.00 Ry     beta= 0.10
     Davidson diagonalization with overlap
     ethr =  9.22E-06,  avg # of iterations =  2.0

     negative rho (up, down):  1.482E-04 2.245E-04
 
     Adding external electric field

     Computed dipole along edir(3) : 
        Dipole               -0.3704 Ry au,         -0.9413 Debye
        Dipole field         -0.0002 Ry au, 
 
        Potential amp.        0.0250 Ry
        Total length         55.1515 bohr
 
 
     Adding external electric field

     Computed dipole along edir(3) : 
        Dipole               -0.3704 Ry au,         -0.9413 Debye
        Dipole field         -0.0002 Ry au, 
 
        Potential amp.        0.0250 Ry
        Total length         55.1515 bohr
 

     total cpu time spent up to now is      413.2 secs

     total energy              =   -7738.30544269 Ry
     estimated scf accuracy    <       0.12195473 Ry

     total magnetization       =    88.60 Bohr mag/cell
     absolute magnetization    =    89.74 Bohr mag/cell

     iteration # 27     ecut=    50.00 Ry     beta= 0.10
     Davidson diagonalization with overlap
     ethr =  9.22E-06,  avg # of iterations =  2.0

     negative rho (up, down):  1.275E-04 2.146E-04
 
     Adding external electric field

     Computed dipole along edir(3) : 
        Dipole               -0.3717 Ry au,         -0.9449 Debye
        Dipole field         -0.0002 Ry au, 
 
        Potential amp.        0.0251 Ry
        Total length         55.1515 bohr
 
 
     Adding external electric field

     Computed dipole along edir(3) : 
        Dipole               -0.3717 Ry au,         -0.9449 Debye
        Dipole field         -0.0002 Ry au, 
 
        Potential amp.        0.0251 Ry
        Total length         55.1515 bohr
 

     total cpu time spent up to now is      426.7 secs

     total energy              =   -7738.30500192 Ry
     estimated scf accuracy    <       0.08407060 Ry

     total magnetization       =    88.40 Bohr mag/cell
     absolute magnetization    =    89.57 Bohr mag/cell

     iteration # 28     ecut=    50.00 Ry     beta= 0.10
     Davidson diagonalization with overlap
     ethr =  7.69E-06,  avg # of iterations =  2.0

     negative rho (up, down):  1.021E-04 1.544E-04
 
     Adding external electric field

     Computed dipole along edir(3) : 
        Dipole               -0.3728 Ry au,         -0.9476 Debye
        Dipole field         -0.0002 Ry au, 
 
        Potential amp.        0.0252 Ry
        Total length         55.1515 bohr
 
 
     Adding external electric field

     Computed dipole along edir(3) : 
        Dipole               -0.3728 Ry au,         -0.9476 Debye
        Dipole field         -0.0002 Ry au, 
 
        Potential amp.        0.0252 Ry
        Total length         55.1515 bohr
 

     total cpu time spent up to now is      440.9 secs

     total energy              =   -7738.30604106 Ry
     estimated scf accuracy    <       0.05777362 Ry

     total magnetization       =    88.25 Bohr mag/cell
     absolute magnetization    =    89.44 Bohr mag/cell

     iteration # 29     ecut=    50.00 Ry     beta= 0.10
     Davidson diagonalization with overlap
     ethr =  5.29E-06,  avg # of iterations = 14.0

     negative rho (up, down):  9.088E-05 1.413E-04
 
     Adding external electric field

     Computed dipole along edir(3) : 
        Dipole               -0.3685 Ry au,         -0.9366 Debye
        Dipole field         -0.0002 Ry au, 
 
        Potential amp.        0.0249 Ry
        Total length         55.1515 bohr
 
 
     Adding external electric field

     Computed dipole along edir(3) : 
        Dipole               -0.3685 Ry au,         -0.9366 Debye
        Dipole field         -0.0002 Ry au, 
 
        Potential amp.        0.0249 Ry
        Total length         55.1515 bohr
 

     total cpu time spent up to now is      468.9 secs

     total energy              =   -7738.30680083 Ry
     estimated scf accuracy    <       0.05560043 Ry

     total magnetization       =    88.17 Bohr mag/cell
     absolute magnetization    =    89.36 Bohr mag/cell

     iteration # 30     ecut=    50.00 Ry     beta= 0.10
     Davidson diagonalization with overlap
     ethr =  5.09E-06,  avg # of iterations =  2.0

     negative rho (up, down):  8.541E-05 1.406E-04
 
     Adding external electric field

     Computed dipole along edir(3) : 
        Dipole               -0.3620 Ry au,         -0.9201 Debye
        Dipole field         -0.0002 Ry au, 
 
        Potential amp.        0.0244 Ry
        Total length         55.1515 bohr
 
 
     Adding external electric field

     Computed dipole along edir(3) : 
        Dipole               -0.3620 Ry au,         -0.9201 Debye
        Dipole field         -0.0002 Ry au, 
 
        Potential amp.        0.0244 Ry
        Total length         55.1515 bohr
 

     total cpu time spent up to now is      483.6 secs

     total energy              =   -7738.30662281 Ry
     estimated scf accuracy    <       0.05847217 Ry

     total magnetization       =    88.23 Bohr mag/cell
     absolute magnetization    =    89.42 Bohr mag/cell

     iteration # 31     ecut=    50.00 Ry     beta= 0.10
     Davidson diagonalization with overlap
     ethr =  5.09E-06,  avg # of iterations =  2.0

     negative rho (up, down):  5.908E-05 1.046E-04
 
     Adding external electric field

     Computed dipole along edir(3) : 
        Dipole               -0.3714 Ry au,         -0.9439 Debye
        Dipole field         -0.0002 Ry au, 
 
        Potential amp.        0.0251 Ry
        Total length         55.1515 bohr
 
 
     Adding external electric field

     Computed dipole along edir(3) : 
        Dipole               -0.3714 Ry au,         -0.9439 Debye
        Dipole field         -0.0002 Ry au, 
 
        Potential amp.        0.0251 Ry
        Total length         55.1515 bohr
 

     total cpu time spent up to now is      498.1 secs

     total energy              =   -7738.30663506 Ry
     estimated scf accuracy    <       0.06396272 Ry

     total magnetization       =    88.23 Bohr mag/cell
     absolute magnetization    =    89.42 Bohr mag/cell

     iteration # 32     ecut=    50.00 Ry     beta= 0.10
     Davidson diagonalization with overlap
     ethr =  5.09E-06,  avg # of iterations =  2.0

     negative rho (up, down):  4.858E-05 9.168E-05
 
     Adding external electric field

     Computed dipole along edir(3) : 
        Dipole               -0.3703 Ry au,         -0.9411 Debye
        Dipole field         -0.0002 Ry au, 
 
        Potential amp.        0.0250 Ry
        Total length         55.1515 bohr
 
 
     Adding external electric field

     Computed dipole along edir(3) : 
        Dipole               -0.3703 Ry au,         -0.9411 Debye
        Dipole field         -0.0002 Ry au, 
 
        Potential amp.        0.0250 Ry
        Total length         55.1515 bohr
 

     total cpu time spent up to now is      513.3 secs

     total energy              =   -7738.30698724 Ry
     estimated scf accuracy    <       0.05111448 Ry

     total magnetization       =    88.25 Bohr mag/cell
     absolute magnetization    =    89.48 Bohr mag/cell

     iteration # 33     ecut=    50.00 Ry     beta= 0.10
     Davidson diagonalization with overlap
     ethr =  4.68E-06,  avg # of iterations =  1.5

     negative rho (up, down):  4.275E-05 7.968E-05
 
     Adding external electric field

     Computed dipole along edir(3) : 
        Dipole               -0.3785 Ry au,         -0.9620 Debye
        Dipole field         -0.0002 Ry au, 
 
        Potential amp.        0.0256 Ry
        Total length         55.1515 bohr
 
 
     Adding external electric field

     Computed dipole along edir(3) : 
        Dipole               -0.3785 Ry au,         -0.9620 Debye
        Dipole field         -0.0002 Ry au, 
 
        Potential amp.        0.0256 Ry
        Total length         55.1515 bohr
 

     total cpu time spent up to now is      526.8 secs

     total energy              =   -7738.30751217 Ry
     estimated scf accuracy    <       0.05201928 Ry

     total magnetization       =    88.26 Bohr mag/cell
     absolute magnetization    =    89.50 Bohr mag/cell

     iteration # 34     ecut=    50.00 Ry     beta= 0.10
     Davidson diagonalization with overlap
     ethr =  4.68E-06,  avg # of iterations =  2.0

     negative rho (up, down):  4.090E-05 7.970E-05
 
     Adding external electric field

     Computed dipole along edir(3) : 
        Dipole               -0.3678 Ry au,         -0.9348 Debye
        Dipole field         -0.0002 Ry au, 
 
        Potential amp.        0.0248 Ry
        Total length         55.1515 bohr
 
 
     Adding external electric field

     Computed dipole along edir(3) : 
        Dipole               -0.3678 Ry au,         -0.9348 Debye
        Dipole field         -0.0002 Ry au, 
 
        Potential amp.        0.0248 Ry
        Total length         55.1515 bohr
 

     total cpu time spent up to now is      541.8 secs

     total energy              =   -7738.30716109 Ry
     estimated scf accuracy    <       0.05252336 Ry

     total magnetization       =    88.24 Bohr mag/cell
     absolute magnetization    =    89.50 Bohr mag/cell

     iteration # 35     ecut=    50.00 Ry     beta= 0.10
     Davidson diagonalization with overlap
     ethr =  4.68E-06,  avg # of iterations =  1.5

     negative rho (up, down):  5.738E-05 1.046E-04
 
     Adding external electric field

     Computed dipole along edir(3) : 
        Dipole               -0.3234 Ry au,         -0.8219 Debye
        Dipole field         -0.0002 Ry au, 
 
        Potential amp.        0.0218 Ry
        Total length         55.1515 bohr
 
 
     Adding external electric field

     Computed dipole along edir(3) : 
        Dipole               -0.3234 Ry au,         -0.8219 Debye
        Dipole field         -0.0002 Ry au, 
 
        Potential amp.        0.0218 Ry
        Total length         55.1515 bohr
 

     total cpu time spent up to now is      555.2 secs

     total energy              =   -7738.30573258 Ry
     estimated scf accuracy    <       0.05244104 Ry

     total magnetization       =    88.24 Bohr mag/cell
     absolute magnetization    =    89.48 Bohr mag/cell

     iteration # 36     ecut=    50.00 Ry     beta= 0.10
     Davidson diagonalization with overlap
     ethr =  4.68E-06,  avg # of iterations =  2.0

     negative rho (up, down):  8.783E-05 1.421E-04
 
     Adding external electric field

     Computed dipole along edir(3) : 
        Dipole               -0.3539 Ry au,         -0.8996 Debye
        Dipole field         -0.0002 Ry au, 
 
        Potential amp.        0.0239 Ry
        Total length         55.1515 bohr
 
 
     Adding external electric field

     Computed dipole along edir(3) : 
        Dipole               -0.3539 Ry au,         -0.8996 Debye
        Dipole field         -0.0002 Ry au, 
 
        Potential amp.        0.0239 Ry
        Total length         55.1515 bohr
 

     total cpu time spent up to now is      569.1 secs

     total energy              =   -7738.30585320 Ry
     estimated scf accuracy    <       0.05189732 Ry

     total magnetization       =    88.20 Bohr mag/cell
     absolute magnetization    =    89.38 Bohr mag/cell

     iteration # 37     ecut=    50.00 Ry     beta= 0.10
     Davidson diagonalization with overlap
     ethr =  4.68E-06,  avg # of iterations =  2.0

     negative rho (up, down):  3.948E-05 7.445E-05
 
     Adding external electric field

     Computed dipole along edir(3) : 
        Dipole               -0.3144 Ry au,         -0.7992 Debye
        Dipole field         -0.0002 Ry au, 
 
        Potential amp.        0.0212 Ry
        Total length         55.1515 bohr
 
 
     Adding external electric field

     Computed dipole along edir(3) : 
        Dipole               -0.3144 Ry au,         -0.7992 Debye
        Dipole field         -0.0002 Ry au, 
 
        Potential amp.        0.0212 Ry
        Total length         55.1515 bohr
 

     total cpu time spent up to now is      583.2 secs

     total energy              =   -7738.30608887 Ry
     estimated scf accuracy    <       0.05271116 Ry

     total magnetization       =    88.22 Bohr mag/cell
     absolute magnetization    =    89.38 Bohr mag/cell

     iteration # 38     ecut=    50.00 Ry     beta= 0.10
     Davidson diagonalization with overlap
     ethr =  4.68E-06,  avg # of iterations =  1.5

     negative rho (up, down):  3.522E-05 7.526E-05
 
     Adding external electric field

     Computed dipole along edir(3) : 
        Dipole               -0.3131 Ry au,         -0.7959 Debye
        Dipole field         -0.0002 Ry au, 
 
        Potential amp.        0.0211 Ry
        Total length         55.1515 bohr
 
 
     Adding external electric field

     Computed dipole along edir(3) : 
        Dipole               -0.3131 Ry au,         -0.7959 Debye
        Dipole field         -0.0002 Ry au, 
 
        Potential amp.        0.0211 Ry
        Total length         55.1515 bohr
 

     total cpu time spent up to now is      596.5 secs

     total energy              =   -7738.30579757 Ry
     estimated scf accuracy    <       0.05051173 Ry

     total magnetization       =    88.16 Bohr mag/cell
     absolute magnetization    =    89.36 Bohr mag/cell

     iteration # 39     ecut=    50.00 Ry     beta= 0.10
     Davidson diagonalization with overlap
     ethr =  4.62E-06,  avg # of iterations =  1.0

     negative rho (up, down):  1.743E-05 6.055E-05
 
     Adding external electric field

     Computed dipole along edir(3) : 
        Dipole               -0.2779 Ry au,         -0.7062 Debye
        Dipole field         -0.0002 Ry au, 
 
        Potential amp.        0.0188 Ry
        Total length         55.1515 bohr
 
 
     Adding external electric field

     Computed dipole along edir(3) : 
        Dipole               -0.2779 Ry au,         -0.7062 Debye
        Dipole field         -0.0002 Ry au, 
 
        Potential amp.        0.0188 Ry
        Total length         55.1515 bohr
 

     total cpu time spent up to now is      608.7 secs

     total energy              =   -7738.30401920 Ry
     estimated scf accuracy    <       0.04808062 Ry

     total magnetization       =    88.12 Bohr mag/cell
     absolute magnetization    =    89.33 Bohr mag/cell

     iteration # 40     ecut=    50.00 Ry     beta= 0.10
     Davidson diagonalization with overlap
     ethr =  4.40E-06,  avg # of iterations =  2.5

     negative rho (up, down):  2.635E-05 7.407E-05
 
     Adding external electric field

     Computed dipole along edir(3) : 
        Dipole               -0.2950 Ry au,         -0.7498 Debye
        Dipole field         -0.0002 Ry au, 
 
        Potential amp.        0.0199 Ry
        Total length         55.1515 bohr
 
 
     Adding external electric field

     Computed dipole along edir(3) : 
        Dipole               -0.2950 Ry au,         -0.7498 Debye
        Dipole field         -0.0002 Ry au, 
 
        Potential amp.        0.0199 Ry
        Total length         55.1515 bohr
 

     total cpu time spent up to now is      622.6 secs

     total energy              =   -7738.30481532 Ry
     estimated scf accuracy    <       0.05155557 Ry

     total magnetization       =    88.13 Bohr mag/cell
     absolute magnetization    =    89.35 Bohr mag/cell

     iteration # 41     ecut=    50.00 Ry     beta= 0.10
     Davidson diagonalization with overlap
     ethr =  4.40E-06,  avg # of iterations =  2.0

     negative rho (up, down):  2.297E-05 7.241E-05
 
     Adding external electric field

     Computed dipole along edir(3) : 
        Dipole               -0.2987 Ry au,         -0.7592 Debye
        Dipole field         -0.0002 Ry au, 
 
        Potential amp.        0.0202 Ry
        Total length         55.1515 bohr
 
 
     Adding external electric field

     Computed dipole along edir(3) : 
        Dipole               -0.2987 Ry au,         -0.7592 Debye
        Dipole field         -0.0002 Ry au, 
 
        Potential amp.        0.0202 Ry
        Total length         55.1515 bohr
 

     total cpu time spent up to now is      636.9 secs

     total energy              =   -7738.30467067 Ry
     estimated scf accuracy    <       0.05424576 Ry

     total magnetization       =    88.17 Bohr mag/cell
     absolute magnetization    =    89.38 Bohr mag/cell

     iteration # 42     ecut=    50.00 Ry     beta= 0.10
     Davidson diagonalization with overlap
     ethr =  4.40E-06,  avg # of iterations =  1.5

     negative rho (up, down):  5.799E-05 1.014E-04
 
     Adding external electric field

     Computed dipole along edir(3) : 
        Dipole               -0.2721 Ry au,         -0.6916 Debye
        Dipole field         -0.0002 Ry au, 
 
        Potential amp.        0.0184 Ry
        Total length         55.1515 bohr
 
 
     Adding external electric field

     Computed dipole along edir(3) : 
        Dipole               -0.2721 Ry au,         -0.6916 Debye
        Dipole field         -0.0002 Ry au, 
 
        Potential amp.        0.0184 Ry
        Total length         55.1515 bohr
 

     total cpu time spent up to now is      649.7 secs

     total energy              =   -7738.30528398 Ry
     estimated scf accuracy    <       0.05506638 Ry

     total magnetization       =    88.16 Bohr mag/cell
     absolute magnetization    =    89.37 Bohr mag/cell

     iteration # 43     ecut=    50.00 Ry     beta= 0.10
     Davidson diagonalization with overlap
     ethr =  4.40E-06,  avg # of iterations =  2.0

     negative rho (up, down):  7.735E-05 1.251E-04
 
     Adding external electric field

     Computed dipole along edir(3) : 
        Dipole               -0.2216 Ry au,         -0.5633 Debye
        Dipole field         -0.0001 Ry au, 
 
        Potential amp.        0.0150 Ry
        Total length         55.1515 bohr
 
 
     Adding external electric field

     Computed dipole along edir(3) : 
        Dipole               -0.2216 Ry au,         -0.5633 Debye
        Dipole field         -0.0001 Ry au, 
 
        Potential amp.        0.0150 Ry
        Total length         55.1515 bohr
 

     total cpu time spent up to now is      663.6 secs

     total energy              =   -7738.30465948 Ry
     estimated scf accuracy    <       0.05335158 Ry

     total magnetization       =    88.21 Bohr mag/cell
     absolute magnetization    =    89.40 Bohr mag/cell

     iteration # 44     ecut=    50.00 Ry     beta= 0.10
     Davidson diagonalization with overlap
     ethr =  4.40E-06,  avg # of iterations =  2.0

     negative rho (up, down):  5.982E-05 9.737E-05
 
     Adding external electric field

     Computed dipole along edir(3) : 
        Dipole               -0.3186 Ry au,         -0.8099 Debye
        Dipole field         -0.0002 Ry au, 
 
        Potential amp.        0.0215 Ry
        Total length         55.1515 bohr
 
 
     Adding external electric field

     Computed dipole along edir(3) : 
        Dipole               -0.3186 Ry au,         -0.8099 Debye
        Dipole field         -0.0002 Ry au, 
 
        Potential amp.        0.0215 Ry
        Total length         55.1515 bohr
 

     total cpu time spent up to now is      676.3 secs

     total energy              =   -7738.30636672 Ry
     estimated scf accuracy    <       0.05394634 Ry

     total magnetization       =    88.20 Bohr mag/cell
     absolute magnetization    =    89.38 Bohr mag/cell

     iteration # 45     ecut=    50.00 Ry     beta= 0.10
     Davidson diagonalization with overlap
     ethr =  4.40E-06,  avg # of iterations =  1.0

     negative rho (up, down):  1.166E-04 1.488E-04
 
     Adding external electric field

     Computed dipole along edir(3) : 
        Dipole               -0.2738 Ry au,         -0.6959 Debye
        Dipole field         -0.0002 Ry au, 
 
        Potential amp.        0.0185 Ry
        Total length         55.1515 bohr
 
 
     Adding external electric field

     Computed dipole along edir(3) : 
        Dipole               -0.2738 Ry au,         -0.6959 Debye
        Dipole field         -0.0002 Ry au, 
 
        Potential amp.        0.0185 Ry
        Total length         55.1515 bohr
 

     total cpu time spent up to now is      687.9 secs

     total energy              =   -7738.30525933 Ry
     estimated scf accuracy    <       0.05087436 Ry

     total magnetization       =    88.20 Bohr mag/cell
     absolute magnetization    =    89.40 Bohr mag/cell

     iteration # 46     ecut=    50.00 Ry     beta= 0.10
     Davidson diagonalization with overlap
     ethr =  4.40E-06,  avg # of iterations =  2.0

     negative rho (up, down):  1.087E-04 1.392E-04
 
     Adding external electric field

     Computed dipole along edir(3) : 
        Dipole               -0.2841 Ry au,         -0.7221 Debye
        Dipole field         -0.0002 Ry au, 
 
        Potential amp.        0.0192 Ry
        Total length         55.1515 bohr
 
 
     Adding external electric field

     Computed dipole along edir(3) : 
        Dipole               -0.2841 Ry au,         -0.7221 Debye
        Dipole field         -0.0002 Ry au, 
 
        Potential amp.        0.0192 Ry
        Total length         55.1515 bohr
 

     total cpu time spent up to now is      701.4 secs

     total energy              =   -7738.30586185 Ry
     estimated scf accuracy    <       0.05196621 Ry

     total magnetization       =    88.24 Bohr mag/cell
     absolute magnetization    =    89.38 Bohr mag/cell

     iteration # 47     ecut=    50.00 Ry     beta= 0.10
     Davidson diagonalization with overlap
     ethr =  4.40E-06,  avg # of iterations =  1.5

     negative rho (up, down):  4.390E-04 4.973E-04
 
     Adding external electric field

     Computed dipole along edir(3) : 
        Dipole               -0.0415 Ry au,         -0.1054 Debye
        Dipole field         -0.0000 Ry au, 
 
        Potential amp.        0.0028 Ry
        Total length         55.1515 bohr
 
 
     Adding external electric field

     Computed dipole along edir(3) : 
        Dipole               -0.0415 Ry au,         -0.1054 Debye
        Dipole field         -0.0000 Ry au, 
 
        Potential amp.        0.0028 Ry
        Total length         55.1515 bohr
 

     total cpu time spent up to now is      714.4 secs

     total energy              =   -7738.30350569 Ry
     estimated scf accuracy    <       0.05197987 Ry

     total magnetization       =    88.25 Bohr mag/cell
     absolute magnetization    =    89.40 Bohr mag/cell

     iteration # 48     ecut=    50.00 Ry     beta= 0.10
     Davidson diagonalization with overlap
     ethr =  4.40E-06,  avg # of iterations =  2.0

     negative rho (up, down):  9.066E-05 1.285E-04
 
     Adding external electric field

     Computed dipole along edir(3) : 
        Dipole               -0.2485 Ry au,         -0.6317 Debye
        Dipole field         -0.0002 Ry au, 
 
        Potential amp.        0.0168 Ry
        Total length         55.1515 bohr
 
 
     Adding external electric field

     Computed dipole along edir(3) : 
        Dipole               -0.2485 Ry au,         -0.6317 Debye
        Dipole field         -0.0002 Ry au, 
 
        Potential amp.        0.0168 Ry
        Total length         55.1515 bohr
 

     total cpu time spent up to now is      728.1 secs

     total energy              =   -7738.30498878 Ry
     estimated scf accuracy    <       0.05332081 Ry

     total magnetization       =    88.07 Bohr mag/cell
     absolute magnetization    =    89.21 Bohr mag/cell

     iteration # 49     ecut=    50.00 Ry     beta= 0.10
     Davidson diagonalization with overlap
     ethr =  4.40E-06,  avg # of iterations =  1.5

     negative rho (up, down):  2.145E-04 2.391E-04
 
     Adding external electric field

     Computed dipole along edir(3) : 
        Dipole               -0.3102 Ry au,         -0.7885 Debye
        Dipole field         -0.0002 Ry au, 
 
        Potential amp.        0.0209 Ry
        Total length         55.1515 bohr
 
 
     Adding external electric field

     Computed dipole along edir(3) : 
        Dipole               -0.3102 Ry au,         -0.7885 Debye
        Dipole field         -0.0002 Ry au, 
 
        Potential amp.        0.0209 Ry
        Total length         55.1515 bohr
 

     total cpu time spent up to now is      741.2 secs

     total energy              =   -7738.30599557 Ry
     estimated scf accuracy    <       0.05618917 Ry

     total magnetization       =    88.23 Bohr mag/cell
     absolute magnetization    =    89.39 Bohr mag/cell

     iteration # 50     ecut=    50.00 Ry     beta= 0.10
     Davidson diagonalization with overlap
     ethr =  4.40E-06,  avg # of iterations =  1.5

     negative rho (up, down):  1.793E-04 2.412E-04
 
     Adding external electric field

     Computed dipole along edir(3) : 
        Dipole               -0.2009 Ry au,         -0.5107 Debye
        Dipole field         -0.0001 Ry au, 
 
        Potential amp.        0.0136 Ry
        Total length         55.1515 bohr
 
 
     Adding external electric field

     Computed dipole along edir(3) : 
        Dipole               -0.2009 Ry au,         -0.5107 Debye
        Dipole field         -0.0001 Ry au, 
 
        Potential amp.        0.0136 Ry
        Total length         55.1515 bohr
 

     total cpu time spent up to now is      754.1 secs

     total energy              =   -7738.30444595 Ry
     estimated scf accuracy    <       0.05378801 Ry

     total magnetization       =    88.16 Bohr mag/cell
     absolute magnetization    =    89.30 Bohr mag/cell

     iteration # 51     ecut=    50.00 Ry     beta= 0.10
     Davidson diagonalization with overlap
     ethr =  4.40E-06,  avg # of iterations =  1.5

     negative rho (up, down):  9.662E-05 1.673E-04
 
     Adding external electric field

     Computed dipole along edir(3) : 
        Dipole               -0.1996 Ry au,         -0.5073 Debye
        Dipole field         -0.0001 Ry au, 
 
        Potential amp.        0.0135 Ry
        Total length         55.1515 bohr
 
 
     Adding external electric field

     Computed dipole along edir(3) : 
        Dipole               -0.1996 Ry au,         -0.5073 Debye
        Dipole field         -0.0001 Ry au, 
 
        Potential amp.        0.0135 Ry
        Total length         55.1515 bohr
 

     total cpu time spent up to now is      767.1 secs

     total energy              =   -7738.30378121 Ry
     estimated scf accuracy    <       0.05288108 Ry

     total magnetization       =    88.17 Bohr mag/cell
     absolute magnetization    =    89.32 Bohr mag/cell

     iteration # 52     ecut=    50.00 Ry     beta= 0.10
     Davidson diagonalization with overlap
     ethr =  4.40E-06,  avg # of iterations =  1.0

     negative rho (up, down):  1.204E-04 2.103E-04
 
     Adding external electric field

     Computed dipole along edir(3) : 
        Dipole               -0.1707 Ry au,         -0.4339 Debye
        Dipole field         -0.0001 Ry au, 
 
        Potential amp.        0.0115 Ry
        Total length         55.1515 bohr
 
 
     Adding external electric field

     Computed dipole along edir(3) : 
        Dipole               -0.1707 Ry au,         -0.4339 Debye
        Dipole field         -0.0001 Ry au, 
 
        Potential amp.        0.0115 Ry
        Total length         55.1515 bohr
 

     total cpu time spent up to now is      779.4 secs

     total energy              =   -7738.30256075 Ry
     estimated scf accuracy    <       0.05155030 Ry

     total magnetization       =    88.13 Bohr mag/cell
     absolute magnetization    =    89.28 Bohr mag/cell

     iteration # 53     ecut=    50.00 Ry     beta= 0.10
     Davidson diagonalization with overlap
     ethr =  4.40E-06,  avg # of iterations =  1.5

     negative rho (up, down):  1.348E-04 2.540E-04
 
     Adding external electric field

     Computed dipole along edir(3) : 
        Dipole               -0.1497 Ry au,         -0.3805 Debye
        Dipole field         -0.0001 Ry au, 
 
        Potential amp.        0.0101 Ry
        Total length         55.1515 bohr
 
 
     Adding external electric field

     Computed dipole along edir(3) : 
        Dipole               -0.1497 Ry au,         -0.3805 Debye
        Dipole field         -0.0001 Ry au, 
 
        Potential amp.        0.0101 Ry
        Total length         55.1515 bohr
 

     total cpu time spent up to now is      793.0 secs

     total energy              =   -7738.30052038 Ry
     estimated scf accuracy    <       0.05060560 Ry

     total magnetization       =    88.09 Bohr mag/cell
     absolute magnetization    =    89.25 Bohr mag/cell

     iteration # 54     ecut=    50.00 Ry     beta= 0.10
     Davidson diagonalization with overlap
     ethr =  4.40E-06,  avg # of iterations =  2.0

     negative rho (up, down):  1.587E-04 2.499E-04
 
     Adding external electric field

     Computed dipole along edir(3) : 
        Dipole               -0.1357 Ry au,         -0.3450 Debye
        Dipole field         -0.0001 Ry au, 
 
        Potential amp.        0.0092 Ry
        Total length         55.1515 bohr
 
 
     Adding external electric field

     Computed dipole along edir(3) : 
        Dipole               -0.1357 Ry au,         -0.3450 Debye
        Dipole field         -0.0001 Ry au, 
 
        Potential amp.        0.0092 Ry
        Total length         55.1515 bohr
 

     total cpu time spent up to now is      807.5 secs

     total energy              =   -7738.30255887 Ry
     estimated scf accuracy    <       0.05282320 Ry

     total magnetization       =    88.06 Bohr mag/cell
     absolute magnetization    =    89.25 Bohr mag/cell

     iteration # 55     ecut=    50.00 Ry     beta= 0.10
     Davidson diagonalization with overlap
     ethr =  4.40E-06,  avg # of iterations =  1.0

     negative rho (up, down):  2.299E-04 3.739E-04
 
     Adding external electric field

     Computed dipole along edir(3) : 
        Dipole               -0.1747 Ry au,         -0.4442 Debye
        Dipole field         -0.0001 Ry au, 
 
        Potential amp.        0.0118 Ry
        Total length         55.1515 bohr
 
 
     Adding external electric field

     Computed dipole along edir(3) : 
        Dipole               -0.1747 Ry au,         -0.4442 Debye
        Dipole field         -0.0001 Ry au, 
 
        Potential amp.        0.0118 Ry
        Total length         55.1515 bohr
 

     total cpu time spent up to now is      820.0 secs

     total energy              =   -7738.30132188 Ry
     estimated scf accuracy    <       0.05287023 Ry

     total magnetization       =    88.12 Bohr mag/cell
     absolute magnetization    =    89.29 Bohr mag/cell

     iteration # 56     ecut=    50.00 Ry     beta= 0.10
     Davidson diagonalization with overlap
     ethr =  4.40E-06,  avg # of iterations =  2.0

     negative rho (up, down):  8.325E-04 1.350E-03
 
     Adding external electric field

     Computed dipole along edir(3) : 
        Dipole               -0.1207 Ry au,         -0.3067 Debye
        Dipole field         -0.0001 Ry au, 
 
        Potential amp.        0.0081 Ry
        Total length         55.1515 bohr
 
 
     Adding external electric field

     Computed dipole along edir(3) : 
        Dipole               -0.1207 Ry au,         -0.3067 Debye
        Dipole field         -0.0001 Ry au, 
 
        Potential amp.        0.0081 Ry
        Total length         55.1515 bohr
 

     total cpu time spent up to now is      833.8 secs

     total energy              =   -7738.30108433 Ry
     estimated scf accuracy    <       0.04827041 Ry

     total magnetization       =    88.12 Bohr mag/cell
     absolute magnetization    =    89.31 Bohr mag/cell

     iteration # 57     ecut=    50.00 Ry     beta= 0.10
     Davidson diagonalization with overlap
     ethr =  4.40E-06,  avg # of iterations =  2.0

     negative rho (up, down):  2.796E-04 4.196E-04
 
     Adding external electric field

     Computed dipole along edir(3) : 
        Dipole               -0.2708 Ry au,         -0.6884 Debye
        Dipole field         -0.0002 Ry au, 
 
        Potential amp.        0.0183 Ry
        Total length         55.1515 bohr
 
 
     Adding external electric field

     Computed dipole along edir(3) : 
        Dipole               -0.2708 Ry au,         -0.6884 Debye
        Dipole field         -0.0002 Ry au, 
 
        Potential amp.        0.0183 Ry
        Total length         55.1515 bohr
 

     total cpu time spent up to now is      847.6 secs

     total energy              =   -7738.30280786 Ry
     estimated scf accuracy    <       0.05078254 Ry

     total magnetization       =    88.16 Bohr mag/cell
     absolute magnetization    =    89.29 Bohr mag/cell

     iteration # 58     ecut=    50.00 Ry     beta= 0.10
     Davidson diagonalization with overlap
     ethr =  4.40E-06,  avg # of iterations =  2.0

     negative rho (up, down):  2.445E-04 4.060E-04
 
     Adding external electric field

     Computed dipole along edir(3) : 
        Dipole               -0.0465 Ry au,         -0.1183 Debye
        Dipole field         -0.0000 Ry au, 
 
        Potential amp.        0.0031 Ry
[...]
    -5.9154  -5.8976  -5.8830  -5.8749  -5.8618  -5.8413  -5.8332  -5.8037
    -5.7765  -5.7701  -5.7308  -5.7204  -5.7039  -5.6755  -5.6665  -5.6476
    -5.6294  -5.5981  -5.5511  -5.5493  -5.5246  -5.4946  -5.4789  -5.4686
    -5.4644  -5.4327  -5.4266  -5.3986  -5.3812  -5.3656  -5.3516  -5.3232
    -5.2061  -5.1950  -5.1800  -5.1735  -5.1588  -5.1336  -5.0700  -5.0237
    -5.0083  -4.9889  -4.9460  -4.9183  -4.9069  -4.8889  -4.8557  -4.8132
    -4.7907  -4.7356  -4.7249  -4.7094  -4.6707  -4.6531  -4.6218  -4.5454
    -4.5422  -4.4748  -4.4578  -4.3993  -4.3925  -4.3748  -4.3347  -4.3264
    -4.3097  -4.2534  -4.1890  -4.1779  -4.1427  -4.1160  -4.0974  -4.0711
    -4.0623  -4.0389  -4.0359  -3.9641  -3.9184  -3.8977  -3.8871  -3.8471
    -3.8281  -3.8070  -3.7662  -3.7556  -3.7490  -3.7182  -3.6959  -3.6570
    -3.6318  -3.5844  -3.5823  -3.5769  -3.5559  -3.5361  -3.5337  -3.5147
    -3.4988  -3.4762  -3.4550  -3.4489  -3.4401  -3.4264  -3.4021  -3.3877
    -3.3597  -3.3555  -3.3401  -3.3109  -3.3052  -3.2656  -3.2508  -3.2047
    -3.1990  -3.1882  -3.1824  -3.1634  -3.1541  -3.1012  -3.0769  -3.0538
    -3.0306  -3.0122  -3.0072  -2.9973  -2.9940  -2.9823  -2.9653  -2.9273
    -2.9096  -2.8971  -2.8734  -2.8324  -2.8269  -2.8179  -2.7786  -2.7629
    -2.7402  -2.7274  -2.7119  -2.6982  -2.6949  -2.6747  -2.6607  -2.6516
    -2.6347  -2.6283  -2.6211  -2.5993  -2.5892  -2.5790  -2.5715  -2.5575
    -2.5405  -2.5276  -2.5122  -2.4917  -2.4736  -2.4678  -2.4444  -2.4347
    -2.4060  -2.3981  -2.3733  -2.3482  -2.3116  -2.2973  -2.2765  -2.2548
    -2.2441  -2.2289  -2.2073  -2.1670  -2.1542  -2.1345  -2.1234  -2.0985
    -2.0953  -2.0735  -2.0646  -2.0523  -2.0386  -2.0156  -1.9976  -1.9513
    -1.9372  -1.9087  -1.9039  -1.8962  -1.8844  -1.8745  -1.8424  -1.8186
    -1.8080  -1.7930  -1.7751  -1.7684  -1.7567  -1.7469  -1.7296  -1.7109
    -1.6880  -1.6598  -1.6427  -1.6045  -1.5963  -1.5792  -1.5584  -1.5403
    -1.5282  -1.4951  -1.4743  -1.4568  -1.4488  -1.4399  -1.4137  -1.3896
    -1.3827  -1.3720  -1.3503  -1.3413  -1.3167  -1.3011  -1.2462  -1.2412
    -1.2226  -1.2129  -1.1932  -1.1539  -1.1476  -1.0814  -1.0394  -1.0226
    -0.9785  -0.8739  -0.8555  -0.8164  -0.7481  -0.6829  -0.6826  -0.4480
    -0.2839  -0.2374  -0.2302  -0.1053   0.2177   0.2506   0.2727   0.2809
     0.2857   0.3024   0.3356   0.3451   0.3703   0.3822   0.3949   0.4006
     0.4072   0.4197   0.4293   0.4355   0.4435   0.4555   0.4625   0.4713
     0.4780   0.4889   0.4889   0.4974   0.5027   0.5131   0.5148   0.5260
     0.5422   0.5448   0.5544   0.5606   0.5658   0.5709   0.5740   0.5996
     0.6067   0.6091   0.6164   0.6204   0.6342   0.6471   0.6485   0.6506
     0.6663   0.6700   0.6732   0.6836   0.6856   0.7060   0.7101   0.7136
     0.7225   0.7282   0.7307   0.7405   0.7562   0.7699   0.7822   0.7853
     0.7934   0.7973   0.8068   0.8300   0.8344   0.8449   0.8487   0.8512
     0.8629   0.8662   0.8845   0.8998   0.9025   0.9081   0.9197   0.9237
     0.9319   0.9608   0.9707   0.9840   0.9857   0.9881   0.9919   1.0174
     1.0546   1.1312   1.1333   1.2319   1.2541   1.7032   1.7815   1.7895
     1.7949   1.8103   1.8212   1.8379   1.8481   1.8602   1.9437   1.9601
     1.9723   1.9925   2.0175   2.0414   2.0529   2.0819   2.0958   2.1474
     2.1565   2.1723   2.1834   2.2100   2.2234   2.2386   2.2534   2.2693
     2.2802   2.3038   2.3219   2.3382   2.3479   2.3620   2.3919   2.3998
     2.4123   2.4143   2.4618   2.4625   2.4920   2.5100   2.5175   2.5230
     2.5332   2.5401   2.5598   2.5712   2.5888   2.6210   2.6280   2.6462
     2.6675   2.6727   2.6848   2.7434   2.8108   2.8277   2.8865   2.8951
     2.9021   2.9424   3.5176   3.5531   3.6024   3.6338   3.7631   3.7916
     3.8775   3.8909   3.9020   3.9511   3.9641   4.0184   4.1015   4.1094
     4.1186   4.1416   4.1666   4.1718   4.1936   4.2077   4.6778   4.7955
     4.8477   4.8829   4.9511   4.9657   4.9996   5.0540   5.0622   5.1360
     5.1376   5.1956   5.4394   6.3019   6.3928   6.5294   6.6415   6.7354
     6.8163   6.8673   6.9210   6.9648   7.0030   7.0824   7.1507   7.2180
     7.2956   7.3598   7.4084   7.4212   7.4677   7.5061   7.6491   7.6895
     7.7276   7.7639   7.7754   7.8195   7.8639   7.9095   7.9284   7.9691
     8.0262   8.0613   8.0902   8.1182   8.1744   8.1916   8.2132   8.2450
     8.2792   8.3166   8.3713   8.3864   8.4256   8.4363   8.4459   8.4718
     8.4861   8.5126   8.5376   8.5547   8.5907   8.5993   8.6199   8.6729
     8.6954   8.7087   8.7259   8.7477   8.7697   8.8109   8.8399   8.8701

     the Fermi energy is     1.6944 ev

!    total energy              =   -7738.30217943 Ry
     estimated scf accuracy    <       0.00000083 Ry
     smearing contrib. (-TS)   =      -0.02507526 Ry
     internal energy E=F+TS    =   -7738.27710417 Ry

     The total energy is F=E-TS. E is the sum of the following terms:
     one-electron contribution =  -95040.96377100 Ry
     hartree contribution      =   48137.96363776 Ry
     xc contribution           =   -2218.74326702 Ry
     ewald contribution        =   41385.27490501 Ry
     Dispersion Correction     =      -1.80878090 Ry
     electric field correction =       0.00017197 Ry

     total magnetization       =    88.32 Bohr mag/cell
     absolute magnetization    =    89.69 Bohr mag/cell

     convergence has been achieved in 119 iterations

     negative rho (up, down):  1.048E-03 5.888E-04

     Forces acting on atoms (cartesian axes, Ry/au):

     atom    1 type  1   force =     0.02515909   -0.03094600    0.01881533
     atom    2 type  2   force =    -0.01382143   -0.00143435   -0.00990252
     atom    3 type  1   force =    -0.02318250   -0.01849817    0.02014813
     atom    4 type  1   force =     0.00571030    0.00406249   -0.00633583
     atom    5 type  1   force =    -0.00191224    0.00105277   -0.00494181
     atom    6 type  1   force =     0.00207453    0.00785360   -0.00879344
     atom    7 type  3   force =    -0.00773785    0.00116607   -0.01040990
     atom    8 type  3   force =    -0.03499091    0.05414960   -0.08325038
     atom    9 type  3   force =     0.03414273    0.03816946   -0.06424410
     atom   10 type  3   force =    -0.00305483   -0.00249184   -0.01157537
     atom   11 type  4   force =     0.00680901    0.00572390    0.01409188
     atom   12 type  4   force =    -0.00016973   -0.00302303    0.01473960
     atom   13 type  4   force =     0.00188176    0.00160483    0.01730624
     atom   14 type  4   force =    -0.00055584   -0.00119557    0.01289972
     atom   15 type  4   force =    -0.00057367    0.00468193   -0.00217603
     atom   16 type  4   force =    -0.00039690    0.00258562    0.04048320
     atom   17 type  4   force =     0.00168633    0.00807142    0.03793090
     atom   18 type  4   force =     0.00789512   -0.00436654   -0.00064464
     atom   19 type  4   force =     0.00034885    0.01172464    0.00424958
     atom   20 type  4   force =    -0.00973274   -0.02663552   -0.00360272
     atom   21 type  4   force =    -0.01091876   -0.00043598    0.00065782
     atom   22 type  4   force =    -0.03192402    0.00311486    0.00793613
     atom   23 type  4   force =     0.03188979    0.00059737    0.01417183
     atom   24 type  4   force =     0.00708565   -0.03682948    0.00387213
     atom   25 type  4   force =    -0.00303701    0.00151178    0.00391946
     atom   26 type  4   force =     0.01760492   -0.00688695    0.00078384
     atom   27 type  1   force =    -0.00521711   -0.00875347    0.00258570
     atom   28 type  2   force =    -0.01332569    0.00011250    0.00495250
     atom   29 type  1   force =     0.00299195   -0.00517290   -0.00135169
     atom   30 type  1   force =     0.00250460    0.00481478   -0.00140214
     atom   31 type  1   force =     0.00176201   -0.00478598    0.00023814
     atom   32 type  1   force =    -0.00074021    0.00131604   -0.00192177
     atom   33 type  3   force =    -0.00623807   -0.00191092   -0.00261780
     atom   34 type  3   force =    -0.00800937    0.00261338   -0.00024386
     atom   35 type  3   force =     0.00448067   -0.00068758    0.00281810
     atom   36 type  3   force =     0.00094289   -0.00221199   -0.00382331
     atom   37 type  4   force =     0.00870668    0.00548484    0.00779538
     atom   38 type  4   force =     0.00383030   -0.00091135   -0.01934368
     atom   39 type  4   force =    -0.00159016    0.00356179   -0.00997348
     atom   40 type  4   force =    -0.00143874   -0.00245985    0.00916049
     atom   41 type  4   force =    -0.00139482    0.00345259   -0.00683138
     atom   42 type  4   force =    -0.00417610   -0.00464918    0.01819093
     atom   43 type  4   force =     0.00761467    0.00330596    0.00786662
     atom   44 type  4   force =     0.00988991   -0.00559032   -0.00578157
     atom   45 type  4   force =     0.00282659    0.00465776    0.00054097
     atom   46 type  4   force =     0.00222324    0.00007711   -0.00557615
     atom   47 type  4   force =    -0.01281971   -0.00023739   -0.00368962
     atom   48 type  4   force =    -0.01448170    0.00126257    0.00341850
     atom   49 type  4   force =     0.01333395    0.00255037    0.00442270
     atom   50 type  4   force =    -0.00265249   -0.00474776   -0.00045247
     atom   51 type  4   force =    -0.00523299    0.00144507    0.00049867
     atom   52 type  4   force =     0.01521319   -0.00408185   -0.00448720
     atom   53 type  1   force =    -0.00003834   -0.00020768   -0.00038244
     atom   54 type  2   force =     0.00002078   -0.00011303   -0.00057659
     atom   55 type  1   force =    -0.00007203   -0.00023277   -0.00041923
     atom   56 type  1   force =    -0.00033086   -0.00014738   -0.00021035
     atom   57 type  1   force =    -0.00049245    0.00050582    0.00005947
     atom   58 type  1   force =     0.00055555    0.00068185   -0.00051501
     atom   59 type  3   force =     0.00035107    0.00029957   -0.00036778
     atom   60 type  3   force =     0.00008121   -0.00006135    0.00027282
     atom   61 type  3   force =     0.00022296   -0.00021817    0.00005616
     atom   62 type  3   force =    -0.00036954   -0.00049717    0.00062516
     atom   63 type  4   force =     0.00033721    0.00014179   -0.00017571
     atom   64 type  4   force =     0.00014996    0.00001550    0.00053119
     atom   65 type  4   force =    -0.00018863   -0.00021535    0.00037575
     atom   66 type  4   force =     0.00009445    0.00003331    0.00032259
     atom   67 type  4   force =    -0.00011593   -0.00035160   -0.00015118
     atom   68 type  4   force =     0.00063364    0.00024757    0.00009458
     atom   69 type  4   force =    -0.00045222   -0.00031142    0.00015545
     atom   70 type  4   force =     0.00036489    0.00010740   -0.00003573
     atom   71 type  4   force =    -0.00011637   -0.00012305   -0.00013500
     atom   72 type  4   force =    -0.00038948   -0.00029746   -0.00028561
     atom   73 type  4   force =     0.00008001    0.00032512    0.00016308
     atom   74 type  4   force =    -0.00014280   -0.00035973   -0.00053199
     atom   75 type  4   force =    -0.00008358   -0.00019906   -0.00027794
     atom   76 type  4   force =    -0.00001358   -0.00012814   -0.00034565
     atom   77 type  4   force =     0.00008337   -0.00007846    0.00020953
     atom   78 type  4   force =     0.00018928    0.00011544   -0.00016404
     atom   79 type  1   force =     0.02515632   -0.03096555    0.01885572
     atom   80 type  2   force =    -0.01372134   -0.00143441   -0.00995307
     atom   81 type  1   force =    -0.02320830   -0.01848824    0.02013706
     atom   82 type  1   force =     0.00568516    0.00403347   -0.00632613
     atom   83 type  1   force =    -0.00191047    0.00103134   -0.00494143
     atom   84 type  1   force =     0.00208525    0.00784804   -0.00878869
     atom   85 type  3   force =    -0.00773709    0.00117548   -0.01041506
     atom   86 type  3   force =    -0.03498464    0.05414482   -0.08325919
     atom   87 type  3   force =     0.03414915    0.03816894   -0.06424628
     atom   88 type  3   force =    -0.00306039   -0.00248163   -0.01158190
     atom   89 type  4   force =     0.00693107    0.00572772    0.01409325
     atom   90 type  4   force =    -0.00005828   -0.00294624    0.01474164
     atom   91 type  4   force =     0.00197746    0.00160088    0.01728109
     atom   92 type  4   force =    -0.00038747   -0.00119320    0.01289749
     atom   93 type  4   force =    -0.00056119    0.00488816   -0.00203956
     atom   94 type  4   force =    -0.00045071    0.00254008    0.04027732
     atom   95 type  4   force =     0.00182010    0.00807579    0.03792532
     atom   96 type  4   force =     0.00768566   -0.00438689   -0.00064670
     atom   97 type  4   force =     0.00046835    0.01181338    0.00414582
     atom   98 type  4   force =    -0.00961663   -0.02647007   -0.00357167
     atom   99 type  4   force =    -0.01094387   -0.00040003    0.00085561
     atom  100 type  4   force =    -0.03196095    0.00301202    0.00780998
     atom  101 type  4   force =     0.03192043    0.00059457    0.01417738
     atom  102 type  4   force =     0.00690495   -0.03683442    0.00387795
     atom  103 type  4   force =    -0.00293865    0.00144589    0.00388985
     atom  104 type  4   force =     0.01770060   -0.00689696    0.00078229
     atom  105 type  1   force =    -0.00527384   -0.00874949    0.00267520
     atom  106 type  2   force =    -0.01412018   -0.00047007    0.00546639
     atom  107 type  1   force =     0.00299127   -0.00506166   -0.00129121
     atom  108 type  1   force =     0.00379343    0.00339261    0.00165169
     atom  109 type  1   force =     0.00134805   -0.00485187    0.00015064
     atom  110 type  1   force =    -0.00083691    0.00128251   -0.00189056
     atom  111 type  3   force =    -0.00635733   -0.00074041   -0.00033169
     atom  112 type  3   force =    -0.00797780    0.00258340   -0.00019904
     atom  113 type  3   force =     0.00436916   -0.00059085    0.00296282
     atom  114 type  3   force =     0.00094029   -0.00176312   -0.00492737
     atom  115 type  4   force =     0.00837764    0.00494208    0.00733690
     atom  116 type  4   force =     0.00385566   -0.00093717   -0.01936232
     atom  117 type  4   force =    -0.00141288    0.00361131   -0.00999548
     atom  118 type  4   force =    -0.00175500   -0.00240382    0.00919200
     atom  119 type  4   force =    -0.00028018    0.00320021   -0.00616057
     atom  120 type  4   force =    -0.00413281   -0.00470119    0.01823745
     atom  121 type  4   force =     0.00766285    0.00330581    0.00789181
     atom  122 type  4   force =     0.01019971   -0.00490510   -0.00766428
     atom  123 type  4   force =     0.00273574    0.00429089    0.00048430
     atom  124 type  4   force =     0.00215435    0.00002744   -0.00558329
     atom  125 type  4   force =    -0.01272680   -0.00010089   -0.00357483
     atom  126 type  4   force =    -0.01449879    0.00126171    0.00335973
     atom  127 type  4   force =     0.01336949    0.00248387    0.00456955
     atom  128 type  4   force =    -0.00278665   -0.00476964   -0.00046209
     atom  129 type  4   force =    -0.00500151    0.00139198   -0.00010643
     atom  130 type  4   force =     0.01578694   -0.00427944   -0.00434378
     atom  131 type  1   force =    -0.00020215   -0.00000522   -0.00047965
     atom  132 type  2   force =     0.00027743   -0.00006706   -0.00050523
     atom  133 type  1   force =    -0.00061527    0.00004417   -0.00029006
     atom  134 type  1   force =     0.00003968   -0.00069205    0.00006415
     atom  135 type  1   force =    -0.00012742    0.00063479   -0.00061187
     atom  136 type  1   force =     0.00052502    0.00067723   -0.00011906
     atom  137 type  3   force =     0.00020660    0.00046106   -0.00033219
     atom  138 type  3   force =    -0.00028756    0.00034662    0.00032628
     atom  139 type  3   force =     0.00016532   -0.00036885    0.00024057
     atom  140 type  3   force =    -0.00039543   -0.00013645   -0.00024283
     atom  141 type  4   force =     0.00021833   -0.00022134    0.00036399
     atom  142 type  4   force =    -0.00041971    0.00044694    0.00041916
     atom  143 type  4   force =    -0.00031070   -0.00019046    0.00047877
     atom  144 type  4   force =    -0.00013341   -0.00038109   -0.00000023
     atom  145 type  4   force =     0.00013563   -0.00042836   -0.00037040
     atom  146 type  4   force =     0.00066248   -0.00037991    0.00002766
     atom  147 type  4   force =     0.00005857    0.00004176    0.00034866
     atom  148 type  4   force =     0.00027634   -0.00072211   -0.00051477
     atom  149 type  4   force =    -0.00046594    0.00024693    0.00043227
     atom  150 type  4   force =    -0.00038942   -0.00042225   -0.00024954
     atom  151 type  4   force =    -0.00062011    0.00031846   -0.00011512
     atom  152 type  4   force =     0.00013787   -0.00034771   -0.00048300
     atom  153 type  4   force =    -0.00049750   -0.00033400    0.00000298
     atom  154 type  4   force =     0.00043821    0.00000360   -0.00011168
     atom  155 type  4   force =     0.00021346    0.00026021   -0.00005852
     atom  156 type  4   force =     0.00022298    0.00039562   -0.00033429
     atom  157 type  4   force =    -0.01105298   -0.00777358   -0.00423350
     atom  158 type  5   force =     0.01092951    0.00682840    0.00287065

     Total force =     0.263275     Total SCF correction =     0.003949
 
     init_run     :      8.79s CPU      9.54s WALL (       1 calls)
     electrons    :   1648.36s CPU   1721.11s WALL (       1 calls)
     forces       :      4.20s CPU      4.66s WALL (       1 calls)
     force_london :      0.09s CPU      0.09s WALL (       1 calls)

     Called by init_run:
     wfcinit      :      4.90s CPU      5.07s WALL (       1 calls)
     potinit      :      1.01s CPU      1.15s WALL (       1 calls)
     hinit0       :      1.35s CPU      1.58s WALL (       1 calls)

     Called by electrons:
     c_bands      :   1284.25s CPU   1321.37s WALL (     119 calls)
     sum_band     :    227.57s CPU    245.30s WALL (     119 calls)
     v_of_rho     :     27.41s CPU     31.21s WALL (     120 calls)
     newd         :     73.77s CPU     87.67s WALL (     120 calls)
     mix_rho      :     33.51s CPU     33.84s WALL (     119 calls)
     energy_londo :      0.08s CPU      0.08s WALL (       1 calls)

     Called by c_bands:
     init_us_2    :      3.17s CPU      3.28s WALL (     480 calls)
     init_us_2:cp :      3.16s CPU      3.27s WALL (     480 calls)
     regterg      :   1258.10s CPU   1294.91s WALL (     240 calls)

     Called by *egterg:
     rdiaghg      :    316.19s CPU    334.41s WALL (     903 calls)
     h_psi        :    481.17s CPU    490.06s WALL (     905 calls)
     s_psi        :     76.38s CPU     76.40s WALL (     905 calls)
     g_psi        :      0.55s CPU      0.55s WALL (     663 calls)

     Called by h_psi:
     h_psi:calbec :    127.29s CPU    134.32s WALL (     905 calls)
     vloc_psi     :    275.34s CPU    276.39s WALL (     905 calls)
     add_vuspsi   :     77.55s CPU     78.34s WALL (     905 calls)

     General routines
     calbec       :    187.50s CPU    197.82s WALL (    1151 calls)
     fft          :     48.74s CPU     53.41s WALL (    2173 calls)
     ffts         :     19.69s CPU     19.74s WALL (   14873 calls)
     fftw         :    315.63s CPU    316.75s WALL (  400788 calls)
     interpolate  :      2.47s CPU      2.55s WALL (     240 calls)
 
     Parallel routines
 
     PWSCF        :  27m43.46s CPU  28m57.71s WALL

 
   This run was terminated on:  23:52:57  17Nov2025            

=------------------------------------------------------------------------------=
   JOB DONE.
=------------------------------------------------------------------------------=
