
     Program PWSCF v.7.2 starts on 19Nov2025 at 23:40:41 

     This program is part of the open-source Quantum ESPRESSO suite
     for quantum simulation of materials; please cite
         "P. Giannozzi et al., J. Phys.:Condens. Matter 21 395502 (2009);
         "P. Giannozzi et al., J. Phys.:Condens. Matter 29 465901 (2017);
         "P. Giannozzi et al., J. Chem. Phys. 152 154105 (2020);
          URL http://www.quantum-espresso.org", 
     in publications or presentations arising from this work. More details at
     http://www.quantum-espresso.org/quote

     Parallel version (MPI), running on    64 processors

     MPI processes distributed on     4 nodes
     448256 MiB available memory on the printing compute node when the environment starts
 
     Reading input from PWINPUT_atm158_yp

     Current dimensions of program PWSCF are:
     Max number of different atomic species (ntypx) = 10
     Max number of k-points (npk) =  40000
     Max angular momentum in pseudopotentials (lmaxx) =  4
     Presently no symmetry can be used with electric field

     file Ni.pbe-n-rrkjus_psl.1.0.0.UPF: wavefunction(s)  3D renormalized
     file Mn.pbe-spn-rrkjus_psl.0.3.1.UPF: wavefunction(s)  3D renormalized
     file O.pbe-rrkjus.UPF: wavefunction(s)  2S renormalized
     file H.pbe-rrkjus.UPF: wavefunction(s)  1S renormalized

     gamma-point specific algorithms are used
 
     R & G space division:  proc/nbgrp/npool/nimage =      64
     Subspace diagonalization in iterative solution of the eigenvalue problem:
     one sub-group per band group will be used
     custom distributed-memory algorithm (size of sub-group:  7*  7 procs)

 
     Parallelization info
     --------------------
     sticks:   dense  smooth     PW     G-vecs:    dense   smooth      PW
     Min         207      82     20                60552    15302    1896
     Max         210      84     22                60574    15336    1950
     Sum       13325    5345   1333              3876045   980655  122653
 
     Using Slab Decomposition
 


     bravais-lattice index     =            0
     lattice parameter (alat)  =      17.4067  a.u.
     unit-cell volume          =   20529.8182 (a.u.)^3
     number of atoms/cell      =          158
     number of atomic types    =            5
     number of electrons       =      1093.00
     number of Kohn-Sham states=          656
     kinetic-energy cutoff     =      50.0000  Ry
     charge density cutoff     =     500.0000  Ry
     scf convergence threshold =      1.0E-06
     mixing beta               =       0.2000
     number of iterations used =            8  local-TF  mixing
     Exchange-correlation=  SLA  PW   PBE  PBE
                           (   1   4   3   4   0   0   0)

     celldm(1)=  17.406729  celldm(2)=   0.000000  celldm(3)=   0.000000
     celldm(4)=   0.000000  celldm(5)=   0.000000  celldm(6)=   0.000000

     crystal axes: (cart. coord. in units of alat)
               a(1) = (   1.000000   0.000000   0.000000 )  
               a(2) = (  -0.001404   1.105696   0.000000 )  
               a(3) = (   0.000000   0.000000   3.520448 )  

     reciprocal axes: (cart. coord. in units 2 pi/alat)
               b(1) = (  1.000000  0.001270  0.000000 )  
               b(2) = (  0.000000  0.904408  0.000000 )  
               b(3) = (  0.000000  0.000000  0.284055 )  


     PseudoPot. # 1 for Ni read from file:
     ~/PSEUDO/Ni.pbe-n-rrkjus_psl.1.0.0.UPF
     MD5 check sum: Not computed, couldn't open file
     Pseudo is Ultrasoft + core correction, Zval = 10.0
     Generated using "atomic" code by A. Dal Corso  v.5.1.2
     Using radial grid of 1195 points,  6 beta functions with: 
                l(1) =   0
                l(2) =   0
                l(3) =   1
                l(4) =   1
                l(5) =   2
                l(6) =   2
     Q(r) pseudized with 0 coefficients 


     PseudoPot. # 2 for Mn read from file:
     ~/PSEUDO/Mn.pbe-spn-rrkjus_psl.0.3.1.UPF
     MD5 check sum: Not computed, couldn't open file
     Pseudo is Ultrasoft + core correction, Zval = 15.0
     Generated using &quot;atomic&quot; code by A. Dal Corso  v.6.2.2
     Using radial grid of 1187 points,  6 beta functions with: 
                l(1) =   0
                l(2) =   0
                l(3) =   1
                l(4) =   1
                l(5) =   2
                l(6) =   2
     Q(r) pseudized with 0 coefficients 


     PseudoPot. # 3 for P  read from file:
     ~/PSEUDO/P.pbe-n-rrkjus_psl.1.0.0.UPF
     MD5 check sum: Not computed, couldn't open file
     Pseudo is Ultrasoft + core correction, Zval =  5.0
     Generated using "atomic" code by A. Dal Corso  v.5.1
     Using radial grid of 1147 points,  6 beta functions with: 
                l(1) =   0
                l(2) =   0
                l(3) =   1
                l(4) =   1
                l(5) =   2
                l(6) =   2
     Q(r) pseudized with 0 coefficients 


     PseudoPot. # 4 for O  read from file:
     ~/PSEUDO/O.pbe-rrkjus.UPF
     MD5 check sum: Not computed, couldn't open file
     Pseudo is Ultrasoft, Zval =  6.0
     Generated by new atomic code, or converted to UPF format
     Using radial grid of 1269 points,  4 beta functions with: 
                l(1) =   0
                l(2) =   0
                l(3) =   1
                l(4) =   1
     Q(r) pseudized with 0 coefficients 


     PseudoPot. # 5 for H  read from file:
     ~/PSEUDO/H.pbe-rrkjus.UPF
     MD5 check sum: Not computed, couldn't open file
     Pseudo is Ultrasoft, Zval =  1.0
     Generated by new atomic code, or converted to UPF format
     Using radial grid of 1061 points,  2 beta functions with: 
                l(1) =   0
                l(2) =   0
     Q(r) pseudized with 0 coefficients 


     atomic species   valence    mass     pseudopotential
     Ni               10.00    58.69300     Ni( 1.00)
     Mn               15.00    54.93800     Mn( 1.00)
     P                 5.00    30.97300     P ( 1.00)
     O                 6.00    15.99900     O ( 1.00)
     H                 1.00     1.00790     H ( 1.00)

     Starting magnetic structure 
     atomic species   magnetization
     Ni              1.000
     Mn              1.000
     P               1.000
     O               1.000
     H               0.000

     No symmetry found



   Cartesian axes

     site n.     atom                  positions (alat units)
         1        Ni     tau(   1) = (   0.2421002   0.8609138   0.1302181  )
         2        Mn     tau(   2) = (   0.4924481   0.7886602   0.4655392  )
         3        Ni     tau(   3) = (   0.0052341   0.3031820   0.1284544  )
         4        Ni     tau(   4) = (   0.2570603   0.2374878   0.4617901  )
         5        Ni     tau(   5) = (   0.4976584   1.1048203   0.2964410  )
         6        Ni     tau(   6) = (   0.2495781   0.5440308   0.2953805  )
         7        P      tau(   7) = (   0.2083492   0.9982113   0.4588145  )
         8        P      tau(   8) = (   0.4584476   0.6559264   0.1347090  )
         9        P      tau(   9) = (   0.2889394   0.1031966   0.1319347  )
        10        P      tau(  10) = (   0.0400379   0.4338094   0.4586283  )
        11        O      tau(  11) = (   0.1314218   0.9248062   0.3189972  )
        12        O      tau(  12) = (   0.3797244   0.7272031   0.2742874  )
        13        O      tau(  13) = (   0.3662315   0.1762062   0.2720888  )
        14        O      tau(  14) = (   0.1171240   0.3646150   0.3169340  )
        15        O      tau(  15) = (   0.1510364   0.9068326   0.5881934  )
        16        O      tau(  16) = (   0.3981989   0.7453439   0.0053495  )
        17        O      tau(  17) = (   0.3490561   0.1888693   0.0010856  )
        18        O      tau(  18) = (   0.0982395   0.3475583   0.5894443  )
        19        O      tau(  19) = (   0.0992163   0.5918099   0.4542505  )
        20        O      tau(  20) = (   0.3467441   1.0504690   0.1405000  )
        21        O      tau(  21) = (   0.3739183   0.4303319   0.4477971  )
        22        O      tau(  22) = (   0.1230967   0.1088895   0.1422960  )
        23        O      tau(  23) = (   0.1242901   0.6635968   0.1442928  )
        24        O      tau(  24) = (   0.4011802   0.4971632   0.1376281  )
        25        O      tau(  25) = (   0.1484006   0.0497464   0.4550965  )
        26        O      tau(  26) = (   0.3736100   0.9942556   0.4492158  )
        27        Ni     tau(  27) = (   0.2413539   0.8509941   0.7820408  )
        28        Mn     tau(  28) = (   0.4917018   0.7787406   1.1173619  )
        29        Ni     tau(  29) = (   0.0044877   0.2932623   0.7802771  )
        30        Ni     tau(  30) = (   0.2563139   0.2275682   1.1136128  )
        31        Ni     tau(  31) = (   0.4969120   1.0949007   0.9482637  )
        32        Ni     tau(  32) = (   0.2488318   0.5341111   0.9472032  )
        33        P      tau(  33) = (   0.2076029   0.9882917   1.1106372  )
        34        P      tau(  34) = (   0.4577012   0.6460068   0.7865316  )
        35        P      tau(  35) = (   0.2881931   0.0932770   0.7837574  )
        36        P      tau(  36) = (   0.0392916   0.4238898   1.1104509  )
        37        O      tau(  37) = (   0.1306755   0.9148866   0.9708199  )
        38        O      tau(  38) = (   0.3789780   0.7172835   0.9261101  )
        39        O      tau(  39) = (   0.3654852   0.1662865   0.9239115  )
        40        O      tau(  40) = (   0.1163776   0.3546954   0.9687567  )
        41        O      tau(  41) = (   0.1502901   0.8969129   1.2400160  )
        42        O      tau(  42) = (   0.3974525   0.7354243   0.6571722  )
        43        O      tau(  43) = (   0.3483097   0.1789497   0.6529083  )
        44        O      tau(  44) = (   0.0974932   0.3376387   1.2412670  )
        45        O      tau(  45) = (   0.0984699   0.5818903   1.1060732  )
        46        O      tau(  46) = (   0.3459978   1.0405493   0.7923226  )
        47        O      tau(  47) = (   0.3731719   0.4204123   1.0996198  )
        48        O      tau(  48) = (   0.1223503   0.0989699   0.7941187  )
        49        O      tau(  49) = (   0.1235438   0.6536772   0.7961155  )
        50        O      tau(  50) = (   0.4004339   0.4872435   0.7894508  )
        51        O      tau(  51) = (   0.1476543   0.0398268   1.1069192  )
        52        O      tau(  52) = (   0.3728637   0.9843360   1.1010385  )
        53        Ni     tau(  53) = (   0.2408392   0.8320559   1.4307548  )
        54        Mn     tau(  54) = (   0.4954146   0.7586327   1.7610775  )
        55        Ni     tau(  55) = (   0.0038240   0.2752655   1.4301830  )
        56        Ni     tau(  56) = (   0.2490297   0.2126224   1.7413163  )
        57        Ni     tau(  57) = (   0.5009698   1.0727426   1.5934065  )
        58        Ni     tau(  58) = (   0.2431858   0.5187785   1.5959132  )
        59        P      tau(  59) = (   0.2122300   0.9646931   1.7577827  )
        60        P      tau(  60) = (   0.4560273   0.6255665   1.4349308  )
        61        P      tau(  61) = (   0.2895010   0.0747953   1.4294223  )
        62        P      tau(  62) = (   0.0342753   0.4049908   1.7624825  )
        63        O      tau(  63) = (   0.1360342   0.9011422   1.6115162  )
        64        O      tau(  64) = (   0.3787980   0.6986865   1.5736904  )
        65        O      tau(  65) = (   0.3677510   0.1474149   1.5681507  )
        66        O      tau(  66) = (   0.1091522   0.3445019   1.6130708  )
        67        O      tau(  67) = (   0.1535140   0.8654492   1.8774963  )
        68        O      tau(  68) = (   0.3948076   0.7176264   1.3082772  )
        69        O      tau(  69) = (   0.3502162   0.1643066   1.3009305  )
        70        O      tau(  70) = (   0.0993202   0.3091187   1.8805971  )
        71        O      tau(  71) = (   0.0903777   0.5660296   1.7630811  )
        72        O      tau(  72) = (   0.3492636   1.0227954   1.4341724  )
        73        O      tau(  73) = (   0.3646020   0.4001049   1.7428273  )
        74        O      tau(  74) = (   0.1232632   0.0821777   1.4436547  )
        75        O      tau(  75) = (   0.1218485   0.6357099   1.4465986  )
        76        O      tau(  76) = (   0.3950879   0.4683338   1.4358038  )
        77        O      tau(  77) = (   0.1575600   0.0186245   1.7589158  )
        78        O      tau(  78) = (   0.3794955   0.9564473   1.7469906  )
        79        Ni     tau(  79) = (   0.7421002   0.8609138   0.1302181  )
        80        Mn     tau(  80) = (   0.9924481   0.7886602   0.4655392  )
        81        Ni     tau(  81) = (   0.5052341   0.3031820   0.1284544  )
        82        Ni     tau(  82) = (   0.7570603   0.2374878   0.4617901  )
        83        Ni     tau(  83) = (   0.9976584   1.1048203   0.2964410  )
        84        Ni     tau(  84) = (   0.7495781   0.5440308   0.2953805  )
        85        P      tau(  85) = (   0.7083492   0.9982113   0.4588145  )
        86        P      tau(  86) = (   0.9584476   0.6559264   0.1347090  )
        87        P      tau(  87) = (   0.7889394   0.1031966   0.1319347  )
        88        P      tau(  88) = (   0.5400379   0.4338094   0.4586283  )
        89        O      tau(  89) = (   0.6314218   0.9248062   0.3189972  )
        90        O      tau(  90) = (   0.8797244   0.7272031   0.2742874  )
        91        O      tau(  91) = (   0.8662315   0.1762062   0.2720888  )
        92        O      tau(  92) = (   0.6171240   0.3646150   0.3169340  )
        93        O      tau(  93) = (   0.6510364   0.9068326   0.5881934  )
        94        O      tau(  94) = (   0.8981989   0.7453439   0.0053495  )
        95        O      tau(  95) = (   0.8490561   0.1888693   0.0010856  )
        96        O      tau(  96) = (   0.5982395   0.3475583   0.5894443  )
        97        O      tau(  97) = (   0.5992163   0.5918099   0.4542505  )
        98        O      tau(  98) = (   0.8467441   1.0504690   0.1405000  )
        99        O      tau(  99) = (   0.8739183   0.4303319   0.4477971  )
       100        O      tau( 100) = (   0.6230967   0.1088895   0.1422960  )
       101        O      tau( 101) = (   0.6242901   0.6635968   0.1442928  )
       102        O      tau( 102) = (   0.9011802   0.4971632   0.1376281  )
       103        O      tau( 103) = (   0.6484006   0.0497464   0.4550965  )
       104        O      tau( 104) = (   0.8736100   0.9942556   0.4492158  )
       105        Ni     tau( 105) = (   0.7413539   0.8509941   0.7820408  )
       106        Mn     tau( 106) = (   0.9917018   0.7787406   1.1173619  )
       107        Ni     tau( 107) = (   0.5044877   0.2932623   0.7802771  )
       108        Ni     tau( 108) = (   0.7563139   0.2275682   1.1136128  )
       109        Ni     tau( 109) = (   0.9969120   1.0949007   0.9482637  )
       110        Ni     tau( 110) = (   0.7488318   0.5341111   0.9472032  )
       111        P      tau( 111) = (   0.7076029   0.9882917   1.1106372  )
       112        P      tau( 112) = (   0.9577012   0.6460068   0.7865316  )
       113        P      tau( 113) = (   0.7881931   0.0932770   0.7837574  )
       114        P      tau( 114) = (   0.5392916   0.4238898   1.1104509  )
       115        O      tau( 115) = (   0.6306755   0.9148866   0.9708199  )
       116        O      tau( 116) = (   0.8789780   0.7172835   0.9261101  )
       117        O      tau( 117) = (   0.8654852   0.1662865   0.9239115  )
       118        O      tau( 118) = (   0.6163776   0.3546954   0.9687567  )
       119        O      tau( 119) = (   0.6502901   0.8969129   1.2400160  )
       120        O      tau( 120) = (   0.8974525   0.7354243   0.6571722  )
       121        O      tau( 121) = (   0.8483097   0.1789497   0.6529083  )
       122        O      tau( 122) = (   0.5974932   0.3376387   1.2412670  )
       123        O      tau( 123) = (   0.5984699   0.5818903   1.1060732  )
       124        O      tau( 124) = (   0.8459978   1.0405493   0.7923226  )
       125        O      tau( 125) = (   0.8731719   0.4204123   1.0996198  )
       126        O      tau( 126) = (   0.6223503   0.0989699   0.7941187  )
       127        O      tau( 127) = (   0.6235438   0.6536772   0.7961155  )
       128        O      tau( 128) = (   0.9004339   0.4872435   0.7894508  )
       129        O      tau( 129) = (   0.6476543   0.0398268   1.1069192  )
       130        O      tau( 130) = (   0.8728637   0.9843360   1.1010385  )
       131        Ni     tau( 131) = (   0.7412940   0.8317433   1.4310133  )
       132        Mn     tau( 132) = (   0.9942976   0.7631104   1.7617718  )
       133        Ni     tau( 133) = (   0.5047574   0.2752797   1.4288709  )
       134        Ni     tau( 134) = (   0.7578350   0.2028549   1.7762646  )
       135        Ni     tau( 135) = (   0.9991757   1.0753039   1.5972728  )
       136        Ni     tau( 136) = (   0.7442600   0.5152897   1.5986856  )
       137        P      tau( 137) = (   0.7103622   0.9612778   1.7571285  )
       138        P      tau( 138) = (   0.9553703   0.6259627   1.4358934  )
       139        P      tau( 139) = (   0.7893263   0.0766982   1.4325513  )
       140        P      tau( 140) = (   0.5325678   0.3983667   1.7561030  )
       141        O      tau( 141) = (   0.6347348   0.8960507   1.6104236  )
       142        O      tau( 142) = (   0.8786872   0.6982692   1.5748233  )
       143        O      tau( 143) = (   0.8656120   0.1503721   1.5709854  )
       144        O      tau( 144) = (   0.6103215   0.3431354   1.6091064  )
       145        O      tau( 145) = (   0.6551320   0.8592875   1.8763947  )
       146        O      tau( 146) = (   0.8944353   0.7174045   1.3087138  )
       147        O      tau( 147) = (   0.8496681   0.1651992   1.3026615  )
       148        O      tau( 148) = (   0.5874463   0.2980729   1.8752625  )
       149        O      tau( 149) = (   0.5882302   0.5598447   1.7638488  )
       150        O      tau( 150) = (   0.8489894   1.0242576   1.4369886  )
       151        O      tau( 151) = (   0.8668845   0.4032412   1.7522286  )
       152        O      tau( 152) = (   0.6225444   0.0814235   1.4420664  )
       153        O      tau( 153) = (   0.6223363   0.6337860   1.4464754  )
       154        O      tau( 154) = (   0.8959961   0.4681766   1.4379317  )
       155        O      tau( 155) = (   0.6491461   0.0122190   1.7550753  )
       156        O      tau( 156) = (   0.8775761   0.9554460   1.7441695  )
       157        O      tau( 157) = (   0.8703181   0.1184006   1.9156559  )
       158        H      tau( 158) = (   0.9557521   0.1797875   1.9403932  )

     -------------------------------------------------
     Parameters for Dispersion (Grimme-D2) Correction:
     -------------------------------------------------
       atom      VdW radius       C_6     

        Ni         2.952        374.666
        Mn         2.952        374.666
        P          3.222        271.980
        O          2.536         24.284
        H          1.892          4.857

     number of k points=     1  Gaussian smearing, width (Ry)=  0.0100
                       cart. coord. in units 2pi/alat
        k(    1) = (   0.0000000   0.0000000   0.0000000), wk =   1.0000000

     Dense  grid:  1938023 G-vectors     FFT dimensions: ( 125, 144, 450)

     Smooth grid:   490328 G-vectors     FFT dimensions: (  80,  90, 288)

     Estimated max dynamical RAM per process >     326.29 MB

     Estimated total dynamical RAM >      20.39 GB

     Check: negative core charge=   -0.000001
     Generating pointlists ...
     new r_m :   0.0817 (alat units)  1.4219 (a.u.) for type    1
     new r_m :   0.0904 (alat units)  1.5743 (a.u.) for type    2
     new r_m :   0.0681 (alat units)  1.1857 (a.u.) for type    3
     new r_m :   0.0446 (alat units)  0.7760 (a.u.) for type    4
     new r_m :   0.0446 (alat units)  0.7760 (a.u.) for type    5

     Initial potential from superposition of free atoms

     starting charge    1092.8893, renormalised to    1093.0000

     negative rho (up, down):  1.375E-03 4.542E-04
 
     Adding external electric field

     Computed dipole along edir(3) : 
        Dipole                1.6484 Ry au,          4.1898 Debye
        Dipole field          0.0010 Ry au, 
 
        Potential amp.       -0.1113 Ry
        Total length         55.1515 bohr
 
 
     Adding external electric field

     Computed dipole along edir(3) : 
        Dipole                1.6484 Ry au,          4.1898 Debye
        Dipole field          0.0010 Ry au, 
 
        Potential amp.       -0.1113 Ry
        Total length         55.1515 bohr
 
     Starting wfcs are  815 randomized atomic wfcs

     total cpu time spent up to now is       10.3 secs

     Self-consistent Calculation

     iteration #  1     ecut=    50.00 Ry     beta= 0.20
     Davidson diagonalization with overlap
     ethr =  1.00E-02,  avg # of iterations =  6.0

     negative rho (up, down):  8.903E-01 3.358E-06
 
     Adding external electric field

     Computed dipole along edir(3) : 
        Dipole               -8.7021 Ry au,        -22.1186 Debye
        Dipole field         -0.0053 Ry au, 
 
        Potential amp.        0.5875 Ry
        Total length         55.1515 bohr
 
 
     Adding external electric field

     Computed dipole along edir(3) : 
        Dipole               -8.7021 Ry au,        -22.1186 Debye
        Dipole field         -0.0053 Ry au, 
 
        Potential amp.        0.5875 Ry
        Total length         55.1515 bohr
 

     total cpu time spent up to now is       36.7 secs

     total energy              =   -7532.61054113 Ry
     estimated scf accuracy    <     751.20584479 Ry

     total magnetization       =   219.00 Bohr mag/cell
     absolute magnetization    =   307.84 Bohr mag/cell

     iteration #  2     ecut=    50.00 Ry     beta= 0.20
     Davidson diagonalization with overlap
     ethr =  1.00E-02,  avg # of iterations =  2.5

     negative rho (up, down):  8.388E-01 2.497E-06
 
     Adding external electric field

     Computed dipole along edir(3) : 
        Dipole               -4.2058 Ry au,        -10.6900 Debye
        Dipole field         -0.0026 Ry au, 
 
        Potential amp.        0.2840 Ry
        Total length         55.1515 bohr
 
 
     Adding external electric field

     Computed dipole along edir(3) : 
        Dipole               -4.2058 Ry au,        -10.6900 Debye
        Dipole field         -0.0026 Ry au, 
 
        Potential amp.        0.2840 Ry
        Total length         55.1515 bohr
 

     total cpu time spent up to now is       54.0 secs

     total energy              =   -7632.80613920 Ry
     estimated scf accuracy    <     899.87982173 Ry

     total magnetization       =   147.27 Bohr mag/cell
     absolute magnetization    =   198.32 Bohr mag/cell

     iteration #  3     ecut=    50.00 Ry     beta= 0.20
     Davidson diagonalization with overlap
     ethr =  1.00E-02,  avg # of iterations =  1.5

     negative rho (up, down):  6.889E-01 4.201E-06
 
     Adding external electric field

     Computed dipole along edir(3) : 
        Dipole               -4.2029 Ry au,        -10.6827 Debye
        Dipole field         -0.0026 Ry au, 
 
        Potential amp.        0.2838 Ry
        Total length         55.1515 bohr
 
 
     Adding external electric field

     Computed dipole along edir(3) : 
        Dipole               -4.2029 Ry au,        -10.6827 Debye
        Dipole field         -0.0026 Ry au, 
 
        Potential amp.        0.2838 Ry
        Total length         55.1515 bohr
 

     total cpu time spent up to now is       66.5 secs

     total energy              =   -7663.70280689 Ry
     estimated scf accuracy    <     100.92209951 Ry

     total magnetization       =   129.86 Bohr mag/cell
     absolute magnetization    =   180.84 Bohr mag/cell

     iteration #  4     ecut=    50.00 Ry     beta= 0.20
     Davidson diagonalization with overlap
     ethr =  9.23E-03,  avg # of iterations =  1.0

     negative rho (up, down):  4.147E-01 2.394E-07
 
     Adding external electric field

     Computed dipole along edir(3) : 
        Dipole               -2.1297 Ry au,         -5.4131 Debye
        Dipole field         -0.0013 Ry au, 
 
        Potential amp.        0.1438 Ry
        Total length         55.1515 bohr
 
 
     Adding external electric field

     Computed dipole along edir(3) : 
        Dipole               -2.1297 Ry au,         -5.4131 Debye
        Dipole field         -0.0013 Ry au, 
 
        Potential amp.        0.1438 Ry
        Total length         55.1515 bohr
 

     total cpu time spent up to now is       78.4 secs

     total energy              =   -7703.49377917 Ry
     estimated scf accuracy    <     114.20464957 Ry

     total magnetization       =   106.93 Bohr mag/cell
     absolute magnetization    =   160.08 Bohr mag/cell

     iteration #  5     ecut=    50.00 Ry     beta= 0.20
     Davidson diagonalization with overlap
     ethr =  9.23E-03,  avg # of iterations =  1.0

     negative rho (up, down):  1.727E-01 2.009E-08
 
     Adding external electric field

     Computed dipole along edir(3) : 
        Dipole               -1.4371 Ry au,         -3.6527 Debye
        Dipole field         -0.0009 Ry au, 
 
        Potential amp.        0.0970 Ry
        Total length         55.1515 bohr
 
 
     Adding external electric field

     Computed dipole along edir(3) : 
        Dipole               -1.4371 Ry au,         -3.6527 Debye
        Dipole field         -0.0009 Ry au, 
 
        Potential amp.        0.0970 Ry
        Total length         55.1515 bohr
 

     total cpu time spent up to now is       89.5 secs

     total energy              =   -7725.15486497 Ry
     estimated scf accuracy    <      59.74519285 Ry

     total magnetization       =    94.41 Bohr mag/cell
     absolute magnetization    =   138.54 Bohr mag/cell

     iteration #  6     ecut=    50.00 Ry     beta= 0.20
     Davidson diagonalization with overlap
     ethr =  5.47E-03,  avg # of iterations =  1.5

     negative rho (up, down):  1.463E-02 2.280E-04
 
     Adding external electric field

     Computed dipole along edir(3) : 
        Dipole               -0.6848 Ry au,         -1.7406 Debye
        Dipole field         -0.0004 Ry au, 
 
        Potential amp.        0.0462 Ry
        Total length         55.1515 bohr
 
 
     Adding external electric field

     Computed dipole along edir(3) : 
        Dipole               -0.6848 Ry au,         -1.7406 Debye
        Dipole field         -0.0004 Ry au, 
 
        Potential amp.        0.0462 Ry
        Total length         55.1515 bohr
 

     total cpu time spent up to now is      101.3 secs

     total energy              =   -7735.47882754 Ry
     estimated scf accuracy    <      29.27851989 Ry

     total magnetization       =    91.00 Bohr mag/cell
     absolute magnetization    =   121.86 Bohr mag/cell

     iteration #  7     ecut=    50.00 Ry     beta= 0.20
     Davidson diagonalization with overlap
     ethr =  2.68E-03,  avg # of iterations =  2.0

     negative rho (up, down):  5.237E-03 3.554E-03
 
     Adding external electric field

     Computed dipole along edir(3) : 
        Dipole               -0.5074 Ry au,         -1.2898 Debye
        Dipole field         -0.0003 Ry au, 
 
        Potential amp.        0.0343 Ry
        Total length         55.1515 bohr
 
 
     Adding external electric field

     Computed dipole along edir(3) : 
        Dipole               -0.5074 Ry au,         -1.2898 Debye
        Dipole field         -0.0003 Ry au, 
 
        Potential amp.        0.0343 Ry
        Total length         55.1515 bohr
 

     total cpu time spent up to now is      113.3 secs

     total energy              =   -7737.57912799 Ry
     estimated scf accuracy    <      21.04017782 Ry

     total magnetization       =    71.11 Bohr mag/cell
     absolute magnetization    =    91.03 Bohr mag/cell

     iteration #  8     ecut=    50.00 Ry     beta= 0.20
     Davidson diagonalization with overlap
     ethr =  1.92E-03,  avg # of iterations =  1.5

     negative rho (up, down):  2.417E-03 4.843E-03
 
     Adding external electric field

     Computed dipole along edir(3) : 
        Dipole               -0.4659 Ry au,         -1.1842 Debye
        Dipole field         -0.0003 Ry au, 
 
        Potential amp.        0.0315 Ry
        Total length         55.1515 bohr
 
 
     Adding external electric field

     Computed dipole along edir(3) : 
        Dipole               -0.4659 Ry au,         -1.1842 Debye
        Dipole field         -0.0003 Ry au, 
 
        Potential amp.        0.0315 Ry
        Total length         55.1515 bohr
 

     total cpu time spent up to now is      125.0 secs

     total energy              =   -7737.30916029 Ry
     estimated scf accuracy    <      14.60336196 Ry

     total magnetization       =    72.49 Bohr mag/cell
     absolute magnetization    =    88.74 Bohr mag/cell

     iteration #  9     ecut=    50.00 Ry     beta= 0.20
     Davidson diagonalization with overlap
     ethr =  1.34E-03,  avg # of iterations =  5.0

     negative rho (up, down):  9.384E-04 2.209E-03
 
     Adding external electric field

     Computed dipole along edir(3) : 
        Dipole               -0.4932 Ry au,         -1.2537 Debye
        Dipole field         -0.0003 Ry au, 
 
        Potential amp.        0.0333 Ry
        Total length         55.1515 bohr
 
 
     Adding external electric field

     Computed dipole along edir(3) : 
        Dipole               -0.4932 Ry au,         -1.2537 Debye
        Dipole field         -0.0003 Ry au, 
 
        Potential amp.        0.0333 Ry
        Total length         55.1515 bohr
 

     total cpu time spent up to now is      141.3 secs

     total energy              =   -7738.02136893 Ry
     estimated scf accuracy    <       1.72045316 Ry

     total magnetization       =    89.78 Bohr mag/cell
     absolute magnetization    =   100.41 Bohr mag/cell

     iteration # 10     ecut=    50.00 Ry     beta= 0.20
     Davidson diagonalization with overlap
     ethr =  1.57E-04,  avg # of iterations = 12.5

     negative rho (up, down):  3.375E-04 2.128E-03
 
     Adding external electric field

     Computed dipole along edir(3) : 
        Dipole               -0.4748 Ry au,         -1.2069 Debye
        Dipole field         -0.0003 Ry au, 
 
        Potential amp.        0.0321 Ry
        Total length         55.1515 bohr
 
 
     Adding external electric field

     Computed dipole along edir(3) : 
        Dipole               -0.4748 Ry au,         -1.2069 Debye
        Dipole field         -0.0003 Ry au, 
 
        Potential amp.        0.0321 Ry
        Total length         55.1515 bohr
 

     total cpu time spent up to now is      163.7 secs

     total energy              =   -7738.11234354 Ry
     estimated scf accuracy    <       1.77177608 Ry

     total magnetization       =    90.45 Bohr mag/cell
     absolute magnetization    =    98.54 Bohr mag/cell

     iteration # 11     ecut=    50.00 Ry     beta= 0.20
     Davidson diagonalization with overlap
     ethr =  1.57E-04,  avg # of iterations =  1.5

     negative rho (up, down):  8.640E-05 7.621E-04
 
     Adding external electric field

     Computed dipole along edir(3) : 
        Dipole               -0.4579 Ry au,         -1.1638 Debye
        Dipole field         -0.0003 Ry au, 
 
        Potential amp.        0.0309 Ry
        Total length         55.1515 bohr
 
 
     Adding external electric field

     Computed dipole along edir(3) : 
        Dipole               -0.4579 Ry au,         -1.1638 Debye
        Dipole field         -0.0003 Ry au, 
 
        Potential amp.        0.0309 Ry
        Total length         55.1515 bohr
 

     total cpu time spent up to now is      174.8 secs

     total energy              =   -7738.16507868 Ry
     estimated scf accuracy    <       0.84690829 Ry

     total magnetization       =    89.26 Bohr mag/cell
     absolute magnetization    =    96.35 Bohr mag/cell

     iteration # 12     ecut=    50.00 Ry     beta= 0.20
     Davidson diagonalization with overlap
     ethr =  7.75E-05,  avg # of iterations =  1.5

     negative rho (up, down):  2.384E-05 6.486E-05
 
     Adding external electric field

     Computed dipole along edir(3) : 
        Dipole               -0.5536 Ry au,         -1.4072 Debye
        Dipole field         -0.0003 Ry au, 
 
        Potential amp.        0.0374 Ry
        Total length         55.1515 bohr
 
 
     Adding external electric field

     Computed dipole along edir(3) : 
        Dipole               -0.5536 Ry au,         -1.4072 Debye
        Dipole field         -0.0003 Ry au, 
 
        Potential amp.        0.0374 Ry
        Total length         55.1515 bohr
 

     total cpu time spent up to now is      185.8 secs

     total energy              =   -7738.23867016 Ry
     estimated scf accuracy    <       1.16650507 Ry

     total magnetization       =    87.93 Bohr mag/cell
     absolute magnetization    =    93.87 Bohr mag/cell

     iteration # 13     ecut=    50.00 Ry     beta= 0.20
     Davidson diagonalization with overlap
     ethr =  7.75E-05,  avg # of iterations =  1.5

     negative rho (up, down):  2.375E-06 1.699E-05
 
     Adding external electric field

     Computed dipole along edir(3) : 
        Dipole               -0.5565 Ry au,         -1.4145 Debye
        Dipole field         -0.0003 Ry au, 
 
        Potential amp.        0.0376 Ry
        Total length         55.1515 bohr
 
 
     Adding external electric field

     Computed dipole along edir(3) : 
        Dipole               -0.5565 Ry au,         -1.4145 Debye
        Dipole field         -0.0003 Ry au, 
 
        Potential amp.        0.0376 Ry
        Total length         55.1515 bohr
 

     total cpu time spent up to now is      196.8 secs

     total energy              =   -7738.28101982 Ry
     estimated scf accuracy    <       0.57121422 Ry

     total magnetization       =    88.87 Bohr mag/cell
     absolute magnetization    =    93.12 Bohr mag/cell

     iteration # 14     ecut=    50.00 Ry     beta= 0.20
     Davidson diagonalization with overlap
     ethr =  5.23E-05,  avg # of iterations =  1.5

     negative rho (up, down):  2.654E-06 1.032E-05
 
     Adding external electric field

     Computed dipole along edir(3) : 
        Dipole               -0.6004 Ry au,         -1.5259 Debye
        Dipole field         -0.0004 Ry au, 
 
        Potential amp.        0.0405 Ry
        Total length         55.1515 bohr
 
 
     Adding external electric field

     Computed dipole along edir(3) : 
        Dipole               -0.6004 Ry au,         -1.5259 Debye
        Dipole field         -0.0004 Ry au, 
 
        Potential amp.        0.0405 Ry
        Total length         55.1515 bohr
 

     total cpu time spent up to now is      207.6 secs

     total energy              =   -7738.29526478 Ry
     estimated scf accuracy    <       1.33773183 Ry

     total magnetization       =    87.10 Bohr mag/cell
     absolute magnetization    =    89.66 Bohr mag/cell

     iteration # 15     ecut=    50.00 Ry     beta= 0.20
     Davidson diagonalization with overlap
     ethr =  5.23E-05,  avg # of iterations =  1.5

     negative rho (up, down):  1.305E-06 5.983E-06
 
     Adding external electric field

     Computed dipole along edir(3) : 
        Dipole               -0.5943 Ry au,         -1.5105 Debye
        Dipole field         -0.0004 Ry au, 
 
        Potential amp.        0.0401 Ry
        Total length         55.1515 bohr
 
 
     Adding external electric field

     Computed dipole along edir(3) : 
        Dipole               -0.5943 Ry au,         -1.5105 Debye
        Dipole field         -0.0004 Ry au, 
 
        Potential amp.        0.0401 Ry
        Total length         55.1515 bohr
 

     total cpu time spent up to now is      218.5 secs

     total energy              =   -7738.30197809 Ry
     estimated scf accuracy    <       0.35226524 Ry

     total magnetization       =    88.87 Bohr mag/cell
     absolute magnetization    =    91.22 Bohr mag/cell

     iteration # 16     ecut=    50.00 Ry     beta= 0.20
     Davidson diagonalization with overlap
     ethr =  3.22E-05,  avg # of iterations = 12.0

     negative rho (up, down):  7.023E-07 1.635E-06
 
     Adding external electric field

     Computed dipole along edir(3) : 
        Dipole               -0.5456 Ry au,         -1.3867 Debye
        Dipole field         -0.0003 Ry au, 
 
        Potential amp.        0.0368 Ry
        Total length         55.1515 bohr
 
 
     Adding external electric field

     Computed dipole along edir(3) : 
        Dipole               -0.5456 Ry au,         -1.3867 Debye
        Dipole field         -0.0003 Ry au, 
 
        Potential amp.        0.0368 Ry
        Total length         55.1515 bohr
 

     total cpu time spent up to now is      240.6 secs

     total energy              =   -7738.30923290 Ry
     estimated scf accuracy    <       0.25971001 Ry

     total magnetization       =    88.70 Bohr mag/cell
     absolute magnetization    =    90.19 Bohr mag/cell

     iteration # 17     ecut=    50.00 Ry     beta= 0.20
     Davidson diagonalization with overlap
     ethr =  2.38E-05,  avg # of iterations =  2.0

     negative rho (up, down):  2.453E-06 1.086E-07
 
     Adding external electric field

     Computed dipole along edir(3) : 
        Dipole               -0.4883 Ry au,         -1.2410 Debye
        Dipole field         -0.0003 Ry au, 
 
        Potential amp.        0.0330 Ry
        Total length         55.1515 bohr
 
 
     Adding external electric field

     Computed dipole along edir(3) : 
        Dipole               -0.4883 Ry au,         -1.2410 Debye
        Dipole field         -0.0003 Ry au, 
 
        Potential amp.        0.0330 Ry
        Total length         55.1515 bohr
 

     total cpu time spent up to now is      252.4 secs

     total energy              =   -7738.30663023 Ry
     estimated scf accuracy    <       0.28731788 Ry

     total magnetization       =    88.40 Bohr mag/cell
     absolute magnetization    =    89.78 Bohr mag/cell

     iteration # 18     ecut=    50.00 Ry     beta= 0.20
     Davidson diagonalization with overlap
     ethr =  2.38E-05,  avg # of iterations =  3.0

     negative rho (up, down):  3.426E-04 6.753E-05
 
     Adding external electric field

     Computed dipole along edir(3) : 
        Dipole               -0.3721 Ry au,         -0.9457 Debye
        Dipole field         -0.0002 Ry au, 
 
        Potential amp.        0.0251 Ry
        Total length         55.1515 bohr
 
 
     Adding external electric field

     Computed dipole along edir(3) : 
        Dipole               -0.3721 Ry au,         -0.9457 Debye
        Dipole field         -0.0002 Ry au, 
 
        Potential amp.        0.0251 Ry
        Total length         55.1515 bohr
 

     total cpu time spent up to now is      264.9 secs

     total energy              =   -7738.30335419 Ry
     estimated scf accuracy    <       0.33422293 Ry

     total magnetization       =    88.28 Bohr mag/cell
     absolute magnetization    =    89.49 Bohr mag/cell

     iteration # 19     ecut=    50.00 Ry     beta= 0.20
     Davidson diagonalization with overlap
     ethr =  2.38E-05,  avg # of iterations =  2.0

     negative rho (up, down):  1.152E-04 1.551E-06
 
     Adding external electric field

     Computed dipole along edir(3) : 
        Dipole               -0.5509 Ry au,         -1.4004 Debye
        Dipole field         -0.0003 Ry au, 
 
        Potential amp.        0.0372 Ry
        Total length         55.1515 bohr
 
 
     Adding external electric field

     Computed dipole along edir(3) : 
        Dipole               -0.5509 Ry au,         -1.4004 Debye
        Dipole field         -0.0003 Ry au, 
 
        Potential amp.        0.0372 Ry
        Total length         55.1515 bohr
 

     total cpu time spent up to now is      276.1 secs

     total energy              =   -7738.30295405 Ry
     estimated scf accuracy    <       0.36984102 Ry

     total magnetization       =    88.43 Bohr mag/cell
     absolute magnetization    =    89.64 Bohr mag/cell

     iteration # 20     ecut=    50.00 Ry     beta= 0.20
     Davidson diagonalization with overlap
     ethr =  2.38E-05,  avg # of iterations =  2.0

     negative rho (up, down):  8.336E-05 1.814E-07
 
     Adding external electric field

     Computed dipole along edir(3) : 
        Dipole               -0.5588 Ry au,         -1.4204 Debye
        Dipole field         -0.0003 Ry au, 
 
        Potential amp.        0.0377 Ry
        Total length         55.1515 bohr
 
 
     Adding external electric field

     Computed dipole along edir(3) : 
        Dipole               -0.5588 Ry au,         -1.4204 Debye
        Dipole field         -0.0003 Ry au, 
 
        Potential amp.        0.0377 Ry
        Total length         55.1515 bohr
 

     total cpu time spent up to now is      287.2 secs

     total energy              =   -7738.30254347 Ry
     estimated scf accuracy    <       0.09440457 Ry

     total magnetization       =    89.00 Bohr mag/cell
     absolute magnetization    =    90.11 Bohr mag/cell

     iteration # 21     ecut=    50.00 Ry     beta= 0.20
     Davidson diagonalization with overlap
     ethr =  8.64E-06,  avg # of iterations = 30.5

     negative rho (up, down):  1.246E-05 6.128E-08
 
     Adding external electric field

     Computed dipole along edir(3) : 
        Dipole               -0.6073 Ry au,         -1.5436 Debye
        Dipole field         -0.0004 Ry au, 
 
        Potential amp.        0.0410 Ry
        Total length         55.1515 bohr
 
 
     Adding external electric field

     Computed dipole along edir(3) : 
        Dipole               -0.6073 Ry au,         -1.5436 Debye
        Dipole field         -0.0004 Ry au, 
 
        Potential amp.        0.0410 Ry
        Total length         55.1515 bohr
 

     total cpu time spent up to now is      321.8 secs

     total energy              =   -7738.30589523 Ry
     estimated scf accuracy    <       0.12147968 Ry

     total magnetization       =    88.64 Bohr mag/cell
     absolute magnetization    =    89.82 Bohr mag/cell

     iteration # 22     ecut=    50.00 Ry     beta= 0.20
     Davidson diagonalization with overlap
     ethr =  8.64E-06,  avg # of iterations =  2.0

     negative rho (up, down):  4.516E-06 4.741E-07
 
     Adding external electric field

     Computed dipole along edir(3) : 
        Dipole               -0.7581 Ry au,         -1.9270 Debye
        Dipole field         -0.0005 Ry au, 
 
        Potential amp.        0.0512 Ry
        Total length         55.1515 bohr
 
 
     Adding external electric field

     Computed dipole along edir(3) : 
        Dipole               -0.7581 Ry au,         -1.9270 Debye
        Dipole field         -0.0005 Ry au, 
 
        Potential amp.        0.0512 Ry
        Total length         55.1515 bohr
 

     total cpu time spent up to now is      332.9 secs

     total energy              =   -7738.30840327 Ry
     estimated scf accuracy    <       0.16620070 Ry

     total magnetization       =    88.32 Bohr mag/cell
     absolute magnetization    =    89.55 Bohr mag/cell

     iteration # 23     ecut=    50.00 Ry     beta= 0.20
     Davidson diagonalization with overlap
     ethr =  8.64E-06,  avg # of iterations =  2.0

     negative rho (up, down):  2.286E-06 1.744E-07
 
     Adding external electric field

     Computed dipole along edir(3) : 
        Dipole               -0.6743 Ry au,         -1.7140 Debye
        Dipole field         -0.0004 Ry au, 
 
        Potential amp.        0.0455 Ry
        Total length         55.1515 bohr
 
 
     Adding external electric field

     Computed dipole along edir(3) : 
        Dipole               -0.6743 Ry au,         -1.7140 Debye
        Dipole field         -0.0004 Ry au, 
 
        Potential amp.        0.0455 Ry
        Total length         55.1515 bohr
 

     total cpu time spent up to now is      344.1 secs

     total energy              =   -7738.30842665 Ry
     estimated scf accuracy    <       0.10584504 Ry

     total magnetization       =    88.65 Bohr mag/cell
     absolute magnetization    =    89.91 Bohr mag/cell

     iteration # 24     ecut=    50.00 Ry     beta= 0.20
     Davidson diagonalization with overlap
     ethr =  8.64E-06,  avg # of iterations =  1.5

     negative rho (up, down):  2.581E-06 1.557E-07
 
     Adding external electric field

     Computed dipole along edir(3) : 
        Dipole               -0.7086 Ry au,         -1.8010 Debye
        Dipole field         -0.0004 Ry au, 
 
        Potential amp.        0.0478 Ry
        Total length         55.1515 bohr
 
 
     Adding external electric field

     Computed dipole along edir(3) : 
        Dipole               -0.7086 Ry au,         -1.8010 Debye
        Dipole field         -0.0004 Ry au, 
 
        Potential amp.        0.0478 Ry
        Total length         55.1515 bohr
 

     total cpu time spent up to now is      354.8 secs

     total energy              =   -7738.30918703 Ry
     estimated scf accuracy    <       0.12830944 Ry

     total magnetization       =    88.66 Bohr mag/cell
     absolute magnetization    =    89.94 Bohr mag/cell

     iteration # 25     ecut=    50.00 Ry     beta= 0.20
     Davidson diagonalization with overlap
     ethr =  8.64E-06,  avg # of iterations =  1.5

     negative rho (up, down):  1.025E-05 8.415E-07
 
     Adding external electric field

     Computed dipole along edir(3) : 
        Dipole               -0.7535 Ry au,         -1.9151 Debye
        Dipole field         -0.0005 Ry au, 
 
        Potential amp.        0.0509 Ry
        Total length         55.1515 bohr
 
 
     Adding external electric field

     Computed dipole along edir(3) : 
        Dipole               -0.7535 Ry au,         -1.9151 Debye
        Dipole field         -0.0005 Ry au, 
 
        Potential amp.        0.0509 Ry
        Total length         55.1515 bohr
 

     total cpu time spent up to now is      365.2 secs

     total energy              =   -7738.30792397 Ry
     estimated scf accuracy    <       0.16475247 Ry

     total magnetization       =    88.50 Bohr mag/cell
     absolute magnetization    =    89.76 Bohr mag/cell

     iteration # 26     ecut=    50.00 Ry     beta= 0.20
     Davidson diagonalization with overlap
     ethr =  8.64E-06,  avg # of iterations =  1.5

     negative rho (up, down):  1.308E-04 1.970E-05
 
     Adding external electric field

     Computed dipole along edir(3) : 
        Dipole               -0.4759 Ry au,         -1.2097 Debye
        Dipole field         -0.0003 Ry au, 
 
        Potential amp.        0.0321 Ry
        Total length         55.1515 bohr
 
 
     Adding external electric field

     Computed dipole along edir(3) : 
        Dipole               -0.4759 Ry au,         -1.2097 Debye
        Dipole field         -0.0003 Ry au, 
 
        Potential amp.        0.0321 Ry
        Total length         55.1515 bohr
 

     total cpu time spent up to now is      375.9 secs

     total energy              =   -7738.30546332 Ry
     estimated scf accuracy    <       0.09594992 Ry

     total magnetization       =    88.48 Bohr mag/cell
     absolute magnetization    =    89.69 Bohr mag/cell

     iteration # 27     ecut=    50.00 Ry     beta= 0.20
     Davidson diagonalization with overlap
     ethr =  8.64E-06,  avg # of iterations =  1.5

     negative rho (up, down):  4.820E-04 1.336E-04
 
     Adding external electric field

     Computed dipole along edir(3) : 
        Dipole               -0.2934 Ry au,         -0.7458 Debye
        Dipole field         -0.0002 Ry au, 
 
        Potential amp.        0.0198 Ry
        Total length         55.1515 bohr
 
 
     Adding external electric field

     Computed dipole along edir(3) : 
        Dipole               -0.2934 Ry au,         -0.7458 Debye
        Dipole field         -0.0002 Ry au, 
 
        Potential amp.        0.0198 Ry
        Total length         55.1515 bohr
 

     total cpu time spent up to now is      386.1 secs

     total energy              =   -7738.30354112 Ry
     estimated scf accuracy    <       0.11281760 Ry

     total magnetization       =    88.52 Bohr mag/cell
     absolute magnetization    =    89.69 Bohr mag/cell

     iteration # 28     ecut=    50.00 Ry     beta= 0.20
     Davidson diagonalization with overlap
     ethr =  8.64E-06,  avg # of iterations =  2.0

     negative rho (up, down):  1.882E-03 9.374E-04
 
     Adding external electric field

     Computed dipole along edir(3) : 
        Dipole                0.0092 Ry au,          0.0233 Debye
        Dipole field          0.0000 Ry au, 
 
        Potential amp.       -0.0006 Ry
        Total length         55.1515 bohr
 
 
     Adding external electric field

     Computed dipole along edir(3) : 
        Dipole                0.0092 Ry au,          0.0233 Debye
        Dipole field          0.0000 Ry au, 
 
        Potential amp.       -0.0006 Ry
        Total length         55.1515 bohr
 

     total cpu time spent up to now is      397.4 secs

     total energy              =   -7738.30219839 Ry
     estimated scf accuracy    <       0.09555238 Ry

     total magnetization       =    88.39 Bohr mag/cell
     absolute magnetization    =    89.61 Bohr mag/cell

     iteration # 29     ecut=    50.00 Ry     beta= 0.20
     Davidson diagonalization with overlap
     ethr =  8.64E-06,  avg # of iterations =  2.0

     negative rho (up, down):  2.437E-03 1.897E-03
 
     Adding external electric field

     Computed dipole along edir(3) : 
        Dipole                0.4300 Ry au,          1.0930 Debye
        Dipole field          0.0003 Ry au, 
 
        Potential amp.       -0.0290 Ry
        Total length         55.1515 bohr
 
 
     Adding external electric field

     Computed dipole along edir(3) : 
        Dipole                0.4300 Ry au,          1.0930 Debye
        Dipole field          0.0003 Ry au, 
 
        Potential amp.       -0.0290 Ry
        Total length         55.1515 bohr
 

     total cpu time spent up to now is      408.5 secs

     total energy              =   -7738.30120141 Ry
     estimated scf accuracy    <       0.04572491 Ry

     total magnetization       =    88.40 Bohr mag/cell
     absolute magnetization    =    89.61 Bohr mag/cell

     iteration # 30     ecut=    50.00 Ry     beta= 0.20
     Davidson diagonalization with overlap
     c_bands:  2 eigenvalues not converged
     c_bands:  1 eigenvalues not converged
     ethr =  4.18E-06,  avg # of iterations = 20.0

     negative rho (up, down):  3.133E-03 2.754E-03
 
     Adding external electric field

     Computed dipole along edir(3) : 
        Dipole                0.6470 Ry au,          1.6444 Debye
        Dipole field          0.0004 Ry au, 
 
        Potential amp.       -0.0437 Ry
        Total length         55.1515 bohr
 
 
     Adding external electric field

     Computed dipole along edir(3) : 
        Dipole                0.6470 Ry au,          1.6444 Debye
        Dipole field          0.0004 Ry au, 
 
        Potential amp.       -0.0437 Ry
        Total length         55.1515 bohr
 

     total cpu time spent up to now is      433.6 secs

     total energy              =   -7738.30167476 Ry
     estimated scf accuracy    <       0.01614098 Ry

     total magnetization       =    88.29 Bohr mag/cell
     absolute magnetization    =    89.57 Bohr mag/cell

     iteration # 31     ecut=    50.00 Ry     beta= 0.20
     Davidson diagonalization with overlap
     ethr =  1.48E-06,  avg # of iterations =  3.0

     negative rho (up, down):  1.350E-03 8.178E-04
 
     Adding external electric field

     Computed dipole along edir(3) : 
        Dipole                0.6199 Ry au,          1.5757 Debye
        Dipole field          0.0004 Ry au, 
 
        Potential amp.       -0.0419 Ry
        Total length         55.1515 bohr
 
 
     Adding external electric field

     Computed dipole along edir(3) : 
        Dipole                0.6199 Ry au,          1.5757 Debye
        Dipole field          0.0004 Ry au, 
 
        Potential amp.       -0.0419 Ry
        Total length         55.1515 bohr
 

     total cpu time spent up to now is      445.5 secs

     total energy              =   -7738.30186831 Ry
     estimated scf accuracy    <       0.01029745 Ry

     total magnetization       =    88.42 Bohr mag/cell
     absolute magnetization    =    89.79 Bohr mag/cell

     iteration # 32     ecut=    50.00 Ry     beta= 0.20
     Davidson diagonalization with overlap
     c_bands:  1 eigenvalues not converged
     ethr =  9.42E-07,  avg # of iterations = 11.0

     negative rho (up, down):  4.872E-04 1.430E-04
 
     Adding external electric field

     Computed dipole along edir(3) : 
        Dipole                0.5728 Ry au,          1.4560 Debye
        Dipole field          0.0004 Ry au, 
 
        Potential amp.       -0.0387 Ry
        Total length         55.1515 bohr
 
 
     Adding external electric field

     Computed dipole along edir(3) : 
        Dipole                0.5728 Ry au,          1.4560 Debye
        Dipole field          0.0004 Ry au, 
 
        Potential amp.       -0.0387 Ry
        Total length         55.1515 bohr
 

     total cpu time spent up to now is      460.7 secs

     total energy              =   -7738.30206816 Ry
     estimated scf accuracy    <       0.01047154 Ry

     total magnetization       =    88.31 Bohr mag/cell
     absolute magnetization    =    89.67 Bohr mag/cell

     iteration # 33     ecut=    50.00 Ry     beta= 0.20
     Davidson diagonalization with overlap
     ethr =  9.42E-07,  avg # of iterations =  2.0

     negative rho (up, down):  3.810E-05 7.370E-06
 
     Adding external electric field

     Computed dipole along edir(3) : 
        Dipole                0.5376 Ry au,          1.3665 Debye
        Dipole field          0.0003 Ry au, 
 
        Potential amp.       -0.0363 Ry
        Total length         55.1515 bohr
 
 
     Adding external electric field

     Computed dipole along edir(3) : 
        Dipole                0.5376 Ry au,          1.3665 Debye
        Dipole field          0.0003 Ry au, 
 
        Potential amp.       -0.0363 Ry
        Total length         55.1515 bohr
 

     total cpu time spent up to now is      471.8 secs

     total energy              =   -7738.30194242 Ry
     estimated scf accuracy    <       0.00600276 Ry

     total magnetization       =    88.35 Bohr mag/cell
     absolute magnetization    =    89.71 Bohr mag/cell

     iteration # 34     ecut=    50.00 Ry     beta= 0.20
     Davidson diagonalization with overlap
     ethr =  5.49E-07,  avg # of iterations =  2.0

     negative rho (up, down):  1.017E-05 7.233E-06
 
     Adding external electric field

     Computed dipole along edir(3) : 
        Dipole                0.4466 Ry au,          1.1350 Debye
        Dipole field          0.0003 Ry au, 
 
        Potential amp.       -0.0301 Ry
        Total length         55.1515 bohr
 
 
     Adding external electric field

     Computed dipole along edir(3) : 
        Dipole                0.4466 Ry au,          1.1350 Debye
        Dipole field          0.0003 Ry au, 
 
        Potential amp.       -0.0301 Ry
        Total length         55.1515 bohr
 

     total cpu time spent up to now is      482.9 secs

     total energy              =   -7738.30185884 Ry
     estimated scf accuracy    <       0.00485496 Ry

     total magnetization       =    88.35 Bohr mag/cell
     absolute magnetization    =    89.76 Bohr mag/cell

     iteration # 35     ecut=    50.00 Ry     beta= 0.20
     Davidson diagonalization with overlap
     ethr =  4.44E-07,  avg # of iterations =  5.5

     negative rho (up, down):  2.839E-06 2.182E-06
 
     Adding external electric field

     Computed dipole along edir(3) : 
        Dipole                0.3876 Ry au,          0.9853 Debye
        Dipole field          0.0002 Ry au, 
 
        Potential amp.       -0.0262 Ry
        Total length         55.1515 bohr
 
 
     Adding external electric field

     Computed dipole along edir(3) : 
        Dipole                0.3876 Ry au,          0.9853 Debye
        Dipole field          0.0002 Ry au, 
 
        Potential amp.       -0.0262 Ry
        Total length         55.1515 bohr
 

     total cpu time spent up to now is      496.4 secs

     total energy              =   -7738.30189483 Ry
     estimated scf accuracy    <       0.00409874 Ry

     total magnetization       =    88.32 Bohr mag/cell
     absolute magnetization    =    89.75 Bohr mag/cell

     iteration # 36     ecut=    50.00 Ry     beta= 0.20
     Davidson diagonalization with overlap
     ethr =  3.75E-07,  avg # of iterations =  6.5

     negative rho (up, down):  7.246E-06 8.033E-06
 
     Adding external electric field

     Computed dipole along edir(3) : 
        Dipole                0.3596 Ry au,          0.9139 Debye
        Dipole field          0.0002 Ry au, 
 
        Potential amp.       -0.0243 Ry
        Total length         55.1515 bohr
 
 
     Adding external electric field

     Computed dipole along edir(3) : 
        Dipole                0.3596 Ry au,          0.9139 Debye
        Dipole field          0.0002 Ry au, 
 
        Potential amp.       -0.0243 Ry
        Total length         55.1515 bohr
 

     total cpu time spent up to now is      509.5 secs

     total energy              =   -7738.30193965 Ry
     estimated scf accuracy    <       0.00221521 Ry

     total magnetization       =    88.32 Bohr mag/cell
     absolute magnetization    =    89.76 Bohr mag/cell

     iteration # 37     ecut=    50.00 Ry     beta= 0.20
     Davidson diagonalization with overlap
     ethr =  2.03E-07,  avg # of iterations =  2.0

     negative rho (up, down):  8.933E-05 1.474E-04
 
     Adding external electric field

     Computed dipole along edir(3) : 
        Dipole                0.4444 Ry au,          1.1294 Debye
        Dipole field          0.0003 Ry au, 
 
        Potential amp.       -0.0300 Ry
        Total length         55.1515 bohr
 
 
     Adding external electric field

     Computed dipole along edir(3) : 
        Dipole                0.4444 Ry au,          1.1294 Debye
        Dipole field          0.0003 Ry au, 
 
        Potential amp.       -0.0300 Ry
        Total length         55.1515 bohr
 

     total cpu time spent up to now is      520.2 secs

     total energy              =   -7738.30199033 Ry
     estimated scf accuracy    <       0.00119113 Ry

     total magnetization       =    88.31 Bohr mag/cell
     absolute magnetization    =    89.72 Bohr mag/cell

     iteration # 38     ecut=    50.00 Ry     beta= 0.20
     Davidson diagonalization with overlap
     ethr =  1.09E-07,  avg # of iterations =  4.5

     negative rho (up, down):  1.725E-04 2.856E-04
 
     Adding external electric field

     Computed dipole along edir(3) : 
        Dipole                0.4595 Ry au,          1.1679 Debye
        Dipole field          0.0003 Ry au, 
 
        Potential amp.       -0.0310 Ry
        Total length         55.1515 bohr
 
 
     Adding external electric field

     Computed dipole along edir(3) : 
        Dipole                0.4595 Ry au,          1.1679 Debye
        Dipole field          0.0003 Ry au, 
 
        Potential amp.       -0.0310 Ry
        Total length         55.1515 bohr
 

     total cpu time spent up to now is      532.2 secs

     total energy              =   -7738.30202782 Ry
     estimated scf accuracy    <       0.00072200 Ry

     total magnetization       =    88.31 Bohr mag/cell
     absolute magnetization    =    89.68 Bohr mag/cell

     iteration # 39     ecut=    50.00 Ry     beta= 0.20
     Davidson diagonalization with overlap
     ethr =  6.61E-08,  avg # of iterations =  2.0

     negative rho (up, down):  3.296E-04 4.539E-04
 
     Adding external electric field

     Computed dipole along edir(3) : 
        Dipole                0.4941 Ry au,          1.2559 Debye
        Dipole field          0.0003 Ry au, 
 
        Potential amp.       -0.0334 Ry
        Total length         55.1515 bohr
 
 
     Adding external electric field

     Computed dipole along edir(3) : 
        Dipole                0.4941 Ry au,          1.2559 Debye
        Dipole field          0.0003 Ry au, 
 
        Potential amp.       -0.0334 Ry
        Total length         55.1515 bohr
 

     total cpu time spent up to now is      542.5 secs

     total energy              =   -7738.30210679 Ry
     estimated scf accuracy    <       0.00056712 Ry

     total magnetization       =    88.31 Bohr mag/cell
     absolute magnetization    =    89.67 Bohr mag/cell

     iteration # 40     ecut=    50.00 Ry     beta= 0.20
     Davidson diagonalization with overlap
     ethr =  5.19E-08,  avg # of iterations =  7.0

     negative rho (up, down):  5.495E-04 3.881E-04
 
     Adding external electric field

     Computed dipole along edir(3) : 
        Dipole                0.5230 Ry au,          1.3293 Debye
        Dipole field          0.0003 Ry au, 
 
        Potential amp.       -0.0353 Ry
        Total length         55.1515 bohr
 
 
     Adding external electric field

     Computed dipole along edir(3) : 
        Dipole                0.5230 Ry au,          1.3293 Debye
        Dipole field          0.0003 Ry au, 
 
        Potential amp.       -0.0353 Ry
        Total length         55.1515 bohr
 

     total cpu time spent up to now is      554.7 secs

     total energy              =   -7738.30217279 Ry
     estimated scf accuracy    <       0.00034713 Ry

     total magnetization       =    88.31 Bohr mag/cell
     absolute magnetization    =    89.66 Bohr mag/cell

     iteration # 41     ecut=    50.00 Ry     beta= 0.20
     Davidson diagonalization with overlap
     ethr =  3.18E-08,  avg # of iterations =  2.0

     negative rho (up, down):  9.634E-04 5.239E-04
 
     Adding external electric field

     Computed dipole along edir(3) : 
        Dipole                0.5317 Ry au,          1.3515 Debye
        Dipole field          0.0003 Ry au, 
 
        Potential amp.       -0.0359 Ry
        Total length         55.1515 bohr
 
 
     Adding external electric field

     Computed dipole along edir(3) : 
        Dipole                0.5317 Ry au,          1.3515 Debye
        Dipole field          0.0003 Ry au, 
 
        Potential amp.       -0.0359 Ry
        Total length         55.1515 bohr
 

     total cpu time spent up to now is      565.3 secs

     total energy              =   -7738.30219783 Ry
     estimated scf accuracy    <       0.00027211 Ry

     total magnetization       =    88.33 Bohr mag/cell
     absolute magnetization    =    89.67 Bohr mag/cell

     iteration # 42     ecut=    50.00 Ry     beta= 0.20
     Davidson diagonalization with overlap
     ethr =  2.49E-08,  avg # of iterations =  2.0

     negative rho (up, down):  8.808E-04 4.047E-04
 
     Adding external electric field

     Computed dipole along edir(3) : 
        Dipole                0.5389 Ry au,          1.3696 Debye
        Dipole field          0.0003 Ry au, 
 
        Potential amp.       -0.0364 Ry
        Total length         55.1515 bohr
 
 
     Adding external electric field

     Computed dipole along edir(3) : 
        Dipole                0.5389 Ry au,          1.3696 Debye
        Dipole field          0.0003 Ry au, 
 
        Potential amp.       -0.0364 Ry
        Total length         55.1515 bohr
 

     total cpu time spent up to now is      575.6 secs

     total energy              =   -7738.30220376 Ry
     estimated scf accuracy    <       0.00018346 Ry

     total magnetization       =    88.33 Bohr mag/cell
     absolute magnetization    =    89.68 Bohr mag/cell

     iteration # 43     ecut=    50.00 Ry     beta= 0.20
     Davidson diagonalization with overlap
     ethr =  1.68E-08,  avg # of iterations =  2.0

     negative rho (up, down):  1.084E-03 5.473E-04
 
     Adding external electric field

     Computed dipole along edir(3) : 
        Dipole                0.5456 Ry au,          1.3869 Debye
        Dipole field          0.0003 Ry au, 
 
        Potential amp.       -0.0368 Ry
        Total length         55.1515 bohr
 
 
     Adding external electric field

     Computed dipole along edir(3) : 
        Dipole                0.5456 Ry au,          1.3869 Debye
        Dipole field          0.0003 Ry au, 
 
        Potential amp.       -0.0368 Ry
        Total length         55.1515 bohr
 

     total cpu time spent up to now is      585.6 secs

     total energy              =   -7738.30220948 Ry
     estimated scf accuracy    <       0.00009162 Ry

     total magnetization       =    88.33 Bohr mag/cell
     absolute magnetization    =    89.68 Bohr mag/cell

     iteration # 44     ecut=    50.00 Ry     beta= 0.20
     Davidson diagonalization with overlap
     ethr =  8.38E-09,  avg # of iterations =  1.0

     negative rho (up, down):  1.061E-03 5.518E-04
 
     Adding external electric field

     Computed dipole along edir(3) : 
        Dipole                0.5442 Ry au,          1.3833 Debye
        Dipole field          0.0003 Ry au, 
 
        Potential amp.       -0.0367 Ry
        Total length         55.1515 bohr
 
 
     Adding external electric field

     Computed dipole along edir(3) : 
        Dipole                0.5442 Ry au,          1.3833 Debye
        Dipole field          0.0003 Ry au, 
 
        Potential amp.       -0.0367 Ry
        Total length         55.1515 bohr
 

     total cpu time spent up to now is      595.0 secs

     total energy              =   -7738.30221375 Ry
     estimated scf accuracy    <       0.00003272 Ry

     total magnetization       =    88.33 Bohr mag/cell
     absolute magnetization    =    89.68 Bohr mag/cell

     iteration # 45     ecut=    50.00 Ry     beta= 0.20
     Davidson diagonalization with overlap
     ethr =  2.99E-09,  avg # of iterations =  2.0

     negative rho (up, down):  1.161E-03 6.626E-04
 
     Adding external electric field

     Computed dipole along edir(3) : 
        Dipole                0.5459 Ry au,          1.3876 Debye
        Dipole field          0.0003 Ry au, 
 
        Potential amp.       -0.0369 Ry
        Total length         55.1515 bohr
 
 
     Adding external electric field

     Computed dipole along edir(3) : 
        Dipole                0.5459 Ry au,          1.3876 Debye
        Dipole field          0.0003 Ry au, 
 
        Potential amp.       -0.0369 Ry
        Total length         55.1515 bohr
 

     total cpu time spent up to now is      605.3 secs

     total energy              =   -7738.30221606 Ry
     estimated scf accuracy    <       0.00004225 Ry

     total magnetization       =    88.33 Bohr mag/cell
     absolute magnetization    =    89.69 Bohr mag/cell

     iteration # 46     ecut=    50.00 Ry     beta= 0.20
     Davidson diagonalization with overlap
     ethr =  2.99E-09,  avg # of iterations =  1.5

     negative rho (up, down):  1.140E-03 6.920E-04
 
     Adding external electric field

     Computed dipole along edir(3) : 
        Dipole                0.5449 Ry au,          1.3850 Debye
        Dipole field          0.0003 Ry au, 
 
        Potential amp.       -0.0368 Ry
        Total length         55.1515 bohr
 
 
     Adding external electric field

     Computed dipole along edir(3) : 
        Dipole                0.5449 Ry au,          1.3850 Debye
        Dipole field          0.0003 Ry au, 
 
        Potential amp.       -0.0368 Ry
        Total length         55.1515 bohr
 

     total cpu time spent up to now is      615.2 secs

     total energy              =   -7738.30221733 Ry
     estimated scf accuracy    <       0.00001673 Ry

     total magnetization       =    88.33 Bohr mag/cell
     absolute magnetization    =    89.69 Bohr mag/cell

     iteration # 47     ecut=    50.00 Ry     beta= 0.20
     Davidson diagonalization with overlap
     ethr =  1.53E-09,  avg # of iterations =  2.0

     negative rho (up, down):  1.142E-03 6.871E-04
 
     Adding external electric field

     Computed dipole along edir(3) : 
        Dipole                0.5444 Ry au,          1.3837 Debye
        Dipole field          0.0003 Ry au, 
 
        Potential amp.       -0.0368 Ry
        Total length         55.1515 bohr
 
 
     Adding external electric field

     Computed dipole along edir(3) : 
        Dipole                0.5444 Ry au,          1.3837 Debye
        Dipole field          0.0003 Ry au, 
 
        Potential amp.       -0.0368 Ry
        Total length         55.1515 bohr
 

     total cpu time spent up to now is      625.3 secs

     total energy              =   -7738.30221829 Ry
     estimated scf accuracy    <       0.00000589 Ry

     total magnetization       =    88.33 Bohr mag/cell
     absolute magnetization    =    89.69 Bohr mag/cell

     iteration # 48     ecut=    50.00 Ry     beta= 0.20
     Davidson diagonalization with overlap
     ethr =  5.39E-10,  avg # of iterations =  2.0

     negative rho (up, down):  1.142E-03 6.893E-04
 
     Adding external electric field

     Computed dipole along edir(3) : 
        Dipole                0.5451 Ry au,          1.3855 Debye
        Dipole field          0.0003 Ry au, 
 
        Potential amp.       -0.0368 Ry
        Total length         55.1515 bohr
 
 
     Adding external electric field

     Computed dipole along edir(3) : 
        Dipole                0.5451 Ry au,          1.3855 Debye
        Dipole field          0.0003 Ry au, 
 
        Potential amp.       -0.0368 Ry
        Total length         55.1515 bohr
 

     total cpu time spent up to now is      635.6 secs

     total energy              =   -7738.30221869 Ry
     estimated scf accuracy    <       0.00000390 Ry

     total magnetization       =    88.32 Bohr mag/cell
     absolute magnetization    =    89.69 Bohr mag/cell

     iteration # 49     ecut=    50.00 Ry     beta= 0.20
     Davidson diagonalization with overlap
     ethr =  3.57E-10,  avg # of iterations =  2.0

     negative rho (up, down):  1.117E-03 6.632E-04
 
     Adding external electric field

     Computed dipole along edir(3) : 
        Dipole                0.5462 Ry au,          1.3882 Debye
        Dipole field          0.0003 Ry au, 
 
        Potential amp.       -0.0369 Ry
        Total length         55.1515 bohr
 
 
     Adding external electric field

     Computed dipole along edir(3) : 
        Dipole                0.5462 Ry au,          1.3882 Debye
        Dipole field          0.0003 Ry au, 
 
        Potential amp.       -0.0369 Ry
        Total length         55.1515 bohr
 

     total cpu time spent up to now is      645.7 secs

     total energy              =   -7738.30221868 Ry
     estimated scf accuracy    <       0.00000197 Ry

     total magnetization       =    88.32 Bohr mag/cell
     absolute magnetization    =    89.69 Bohr mag/cell

     iteration # 50     ecut=    50.00 Ry     beta= 0.20
     Davidson diagonalization with overlap
     ethr =  1.80E-10,  avg # of iterations =  2.0

     negative rho (up, down):  1.048E-03 5.888E-04
 
     Adding external electric field

     Computed dipole along edir(3) : 
        Dipole                0.5445 Ry au,          1.3841 Debye
        Dipole field          0.0003 Ry au, 
 
        Potential amp.       -0.0368 Ry
        Total length         55.1515 bohr
 
 
     Adding external electric field

     Computed dipole along edir(3) : 
        Dipole                0.5445 Ry au,          1.3841 Debye
        Dipole field          0.0003 Ry au, 
 
        Potential amp.       -0.0368 Ry
        Total length         55.1515 bohr
 
 
     Magnetic moment per site  (integrated on atomic sphere of radius R)
     atom   1 (R=0.082)  charge=  7.1488  magn=  1.4224
     atom   2 (R=0.090)  charge= 12.1456  magn=  3.8874
     atom   3 (R=0.082)  charge=  7.1507  magn=  1.4234
     atom   4 (R=0.082)  charge=  7.1357  magn=  1.5277
     atom   5 (R=0.082)  charge=  7.1530  magn=  1.4951
     atom   6 (R=0.082)  charge=  7.1507  magn=  1.4922
     atom   7 (R=0.068)  charge=  0.8221  magn=  0.0071
     atom   8 (R=0.068)  charge=  0.8232  magn=  0.0035
     atom   9 (R=0.068)  charge=  0.8230  magn=  0.0030
     atom  10 (R=0.068)  charge=  0.8217  magn=  0.0070
     atom  11 (R=0.045)  charge=  2.0022  magn=  0.0649
     atom  12 (R=0.045)  charge=  2.0041  magn=  0.0760
     atom  13 (R=0.045)  charge=  2.0005  magn=  0.0957
     atom  14 (R=0.045)  charge=  2.0023  magn=  0.0769
     atom  15 (R=0.045)  charge=  2.0112  magn=  0.0461
     atom  16 (R=0.045)  charge=  1.9908  magn=  0.0477
     atom  17 (R=0.045)  charge=  1.9917  magn=  0.0484
     atom  18 (R=0.045)  charge=  2.0096  magn=  0.0530
     atom  19 (R=0.045)  charge=  2.0122  magn=  0.0439
     atom  20 (R=0.045)  charge=  2.0082  magn=  0.0532
     atom  21 (R=0.045)  charge=  2.0112  magn=  0.0487
     atom  22 (R=0.045)  charge=  2.0095  magn=  0.0487
     atom  23 (R=0.045)  charge=  2.0116  magn=  0.0487
     atom  24 (R=0.045)  charge=  2.0077  magn=  0.0516
     atom  25 (R=0.045)  charge=  2.0098  magn=  0.0514
     atom  26 (R=0.045)  charge=  2.0163  magn=  0.0351
     atom  27 (R=0.082)  charge=  7.1356  magn=  1.5171
     atom  28 (R=0.090)  charge= 12.1603  magn=  3.9335
     atom  29 (R=0.082)  charge=  7.1351  magn=  1.5283
     atom  30 (R=0.082)  charge=  7.1371  magn=  1.5299
     atom  31 (R=0.082)  charge=  7.1541  magn=  1.5072
     atom  32 (R=0.082)  charge=  7.1520  magn=  1.5048
     atom  33 (R=0.068)  charge=  0.8216  magn=  0.0073
     atom  34 (R=0.068)  charge=  0.8204  magn=  0.0082
     atom  35 (R=0.068)  charge=  0.8198  magn=  0.0061
     atom  36 (R=0.068)  charge=  0.8224  magn=  0.0071
     atom  37 (R=0.045)  charge=  2.0019  magn=  0.0690
     atom  38 (R=0.045)  charge=  2.0055  magn=  0.0666
     atom  39 (R=0.045)  charge=  2.0005  magn=  0.0829
     atom  40 (R=0.045)  charge=  1.9995  magn=  0.0807
     atom  41 (R=0.045)  charge=  2.0108  magn=  0.0476
     atom  42 (R=0.045)  charge=  2.0126  magn=  0.0452
     atom  43 (R=0.045)  charge=  2.0094  magn=  0.0558
     atom  44 (R=0.045)  charge=  2.0087  magn=  0.0538
     atom  45 (R=0.045)  charge=  2.0130  magn=  0.0477
     atom  46 (R=0.045)  charge=  2.0100  magn=  0.0578
     atom  47 (R=0.045)  charge=  2.0115  magn=  0.0502
     atom  48 (R=0.045)  charge=  2.0105  magn=  0.0502
     atom  49 (R=0.045)  charge=  2.0089  magn=  0.0477
     atom  50 (R=0.045)  charge=  2.0078  magn=  0.0554
     atom  51 (R=0.045)  charge=  2.0093  magn=  0.0536
     atom  52 (R=0.045)  charge=  2.0149  magn=  0.0381
     atom  53 (R=0.082)  charge=  7.1340  magn=  1.5269
     atom  54 (R=0.090)  charge= 12.1396  magn=  3.8612
     atom  55 (R=0.082)  charge=  7.1356  magn=  1.5351
     atom  56 (R=0.082)  charge=  7.1605  magn=  1.4303
     atom  57 (R=0.082)  charge=  7.1514  magn=  1.5012
     atom  58 (R=0.082)  charge=  7.1529  magn=  1.5019
     atom  59 (R=0.068)  charge=  0.8207  magn=  0.0070
     atom  60 (R=0.068)  charge=  0.8204  magn=  0.0079
     atom  61 (R=0.068)  charge=  0.8193  magn=  0.0062
     atom  62 (R=0.068)  charge=  0.8192  magn=  0.0051
     atom  63 (R=0.045)  charge=  2.0038  magn=  0.0767
     atom  64 (R=0.045)  charge=  2.0051  magn=  0.0628
     atom  65 (R=0.045)  charge=  2.0043  magn=  0.0818
     atom  66 (R=0.045)  charge=  2.0002  magn=  0.0941
     atom  67 (R=0.045)  charge=  2.0042  magn=  0.0342
     atom  68 (R=0.045)  charge=  2.0138  magn=  0.0432
     atom  69 (R=0.045)  charge=  2.0094  magn=  0.0553
     atom  70 (R=0.045)  charge=  2.0026  magn=  0.0360
     atom  71 (R=0.045)  charge=  2.0090  magn=  0.0447
     atom  72 (R=0.045)  charge=  2.0082  magn=  0.0579
     atom  73 (R=0.045)  charge=  2.0083  magn=  0.0518
     atom  74 (R=0.045)  charge=  2.0104  magn=  0.0487
     atom  75 (R=0.045)  charge=  2.0093  magn=  0.0478
     atom  76 (R=0.045)  charge=  2.0051  magn=  0.0583
     atom  77 (R=0.045)  charge=  2.0059  magn=  0.0471
     atom  78 (R=0.045)  charge=  2.0121  magn=  0.0361
     atom  79 (R=0.082)  charge=  7.1487  magn=  1.4225
     atom  80 (R=0.090)  charge= 12.1456  magn=  3.8875
     atom  81 (R=0.082)  charge=  7.1508  magn=  1.4234
     atom  82 (R=0.082)  charge=  7.1356  magn=  1.5278
     atom  83 (R=0.082)  charge=  7.1531  magn=  1.4950
     atom  84 (R=0.082)  charge=  7.1506  magn=  1.4922
     atom  85 (R=0.068)  charge=  0.8224  magn=  0.0071
     atom  86 (R=0.068)  charge=  0.8226  magn=  0.0035
     atom  87 (R=0.068)  charge=  0.8233  magn=  0.0030
     atom  88 (R=0.068)  charge=  0.8228  magn=  0.0070
     atom  89 (R=0.045)  charge=  2.0021  magn=  0.0649
     atom  90 (R=0.045)  charge=  2.0041  magn=  0.0760
     atom  91 (R=0.045)  charge=  1.9999  magn=  0.0956
     atom  92 (R=0.045)  charge=  2.0018  magn=  0.0768
     atom  93 (R=0.045)  charge=  2.0099  magn=  0.0461
     atom  94 (R=0.045)  charge=  1.9895  magn=  0.0477
     atom  95 (R=0.045)  charge=  1.9915  magn=  0.0484
     atom  96 (R=0.045)  charge=  2.0102  magn=  0.0530
     atom  97 (R=0.045)  charge=  2.0136  magn=  0.0439
     atom  98 (R=0.045)  charge=  2.0075  magn=  0.0532
     atom  99 (R=0.045)  charge=  2.0105  magn=  0.0487
     atom 100 (R=0.045)  charge=  2.0110  magn=  0.0487
     atom 101 (R=0.045)  charge=  2.0104  magn=  0.0487
     atom 102 (R=0.045)  charge=  2.0075  magn=  0.0516
     atom 103 (R=0.045)  charge=  2.0093  magn=  0.0514
     atom 104 (R=0.045)  charge=  2.0172  magn=  0.0351
     atom 105 (R=0.082)  charge=  7.1354  magn=  1.5175
     atom 106 (R=0.090)  charge= 12.1610  magn=  3.9368
     atom 107 (R=0.082)  charge=  7.1352  magn=  1.5283
     atom 108 (R=0.082)  charge=  7.1372  magn=  1.5279
     atom 109 (R=0.082)  charge=  7.1541  magn=  1.5073
     atom 110 (R=0.082)  charge=  7.1521  magn=  1.5047
     atom 111 (R=0.068)  charge=  0.8220  magn=  0.0073
     atom 112 (R=0.068)  charge=  0.8202  magn=  0.0082
     atom 113 (R=0.068)  charge=  0.8200  magn=  0.0061
     atom 114 (R=0.068)  charge=  0.8226  magn=  0.0072
     atom 115 (R=0.045)  charge=  2.0024  magn=  0.0688
     atom 116 (R=0.045)  charge=  2.0048  magn=  0.0666
     atom 117 (R=0.045)  charge=  2.0006  magn=  0.0829
     atom 118 (R=0.045)  charge=  2.0007  magn=  0.0805
     atom 119 (R=0.045)  charge=  2.0098  magn=  0.0475
     atom 120 (R=0.045)  charge=  2.0124  magn=  0.0452
     atom 121 (R=0.045)  charge=  2.0093  magn=  0.0559
     atom 122 (R=0.045)  charge=  2.0091  magn=  0.0542
     atom 123 (R=0.045)  charge=  2.0140  magn=  0.0477
     atom 124 (R=0.045)  charge=  2.0094  magn=  0.0578
     atom 125 (R=0.045)  charge=  2.0117  magn=  0.0502
     atom 126 (R=0.045)  charge=  2.0103  magn=  0.0502
     atom 127 (R=0.045)  charge=  2.0104  magn=  0.0477
     atom 128 (R=0.045)  charge=  2.0084  magn=  0.0554
     atom 129 (R=0.045)  charge=  2.0099  magn=  0.0537
     atom 130 (R=0.045)  charge=  2.0145  magn=  0.0381
     atom 131 (R=0.082)  charge=  7.1337  magn=  1.5270
     atom 132 (R=0.090)  charge= 12.1383  magn=  3.8570
     atom 133 (R=0.082)  charge=  7.1333  magn=  1.5428
     atom 134 (R=0.082)  charge=  7.1055  magn=  1.6299
     atom 135 (R=0.082)  charge=  7.1521  magn=  1.4968
     atom 136 (R=0.082)  charge=  7.1499  magn=  1.5042
     atom 137 (R=0.068)  charge=  0.8197  magn=  0.0068
     atom 138 (R=0.068)  charge=  0.8221  magn=  0.0082
     atom 139 (R=0.068)  charge=  0.8185  magn=  0.0056
[...]
    -5.9153  -5.8979  -5.8830  -5.8749  -5.8617  -5.8411  -5.8332  -5.8036
    -5.7763  -5.7706  -5.7308  -5.7205  -5.7038  -5.6759  -5.6669  -5.6473
    -5.6300  -5.5980  -5.5515  -5.5494  -5.5245  -5.4947  -5.4786  -5.4684
    -5.4641  -5.4329  -5.4266  -5.3984  -5.3809  -5.3655  -5.3525  -5.3240
    -5.2070  -5.1951  -5.1803  -5.1731  -5.1584  -5.1336  -5.0700  -5.0269
    -5.0079  -4.9888  -4.9465  -4.9182  -4.9073  -4.8891  -4.8569  -4.8131
    -4.7904  -4.7354  -4.7247  -4.7095  -4.6717  -4.6519  -4.6217  -4.5450
    -4.5428  -4.4715  -4.4575  -4.3991  -4.3925  -4.3746  -4.3341  -4.3263
    -4.3094  -4.2470  -4.1880  -4.1778  -4.1428  -4.1155  -4.0974  -4.0707
    -4.0619  -4.0390  -4.0359  -3.9641  -3.9181  -3.8976  -3.8879  -3.8475
    -3.8284  -3.8068  -3.7656  -3.7551  -3.7507  -3.7171  -3.6962  -3.6570
    -3.6320  -3.5845  -3.5821  -3.5768  -3.5556  -3.5358  -3.5335  -3.5149
    -3.4986  -3.4758  -3.4547  -3.4489  -3.4400  -3.4266  -3.4022  -3.3875
    -3.3596  -3.3552  -3.3399  -3.3118  -3.3046  -3.2656  -3.2506  -3.2045
    -3.1995  -3.1883  -3.1822  -3.1639  -3.1541  -3.1014  -3.0770  -3.0543
    -3.0317  -3.0119  -3.0072  -2.9971  -2.9939  -2.9820  -2.9652  -2.9270
    -2.9095  -2.8968  -2.8734  -2.8320  -2.8266  -2.8180  -2.7788  -2.7627
    -2.7403  -2.7271  -2.7114  -2.6980  -2.6947  -2.6745  -2.6607  -2.6515
    -2.6341  -2.6280  -2.6202  -2.5993  -2.5889  -2.5789  -2.5714  -2.5572
    -2.5402  -2.5273  -2.5122  -2.4910  -2.4734  -2.4686  -2.4446  -2.4344
    -2.4060  -2.3981  -2.3736  -2.3481  -2.3124  -2.2974  -2.2769  -2.2558
    -2.2437  -2.2290  -2.2071  -2.1675  -2.1540  -2.1353  -2.1242  -2.0983
    -2.0950  -2.0737  -2.0646  -2.0526  -2.0383  -2.0152  -1.9974  -1.9510
    -1.9370  -1.9092  -1.9039  -1.8960  -1.8845  -1.8743  -1.8430  -1.8186
    -1.8084  -1.7928  -1.7752  -1.7682  -1.7581  -1.7480  -1.7295  -1.7120
    -1.6884  -1.6596  -1.6472  -1.6046  -1.5962  -1.5793  -1.5599  -1.5401
    -1.5281  -1.4956  -1.4742  -1.4563  -1.4489  -1.4398  -1.4134  -1.3905
    -1.3822  -1.3717  -1.3505  -1.3417  -1.3166  -1.3010  -1.2466  -1.2420
    -1.2225  -1.2135  -1.1948  -1.1539  -1.1500  -1.0811  -1.0396  -1.0251
    -0.9778  -0.8728  -0.8571  -0.8158  -0.7499  -0.6868  -0.6818  -0.4472
    -0.2831  -0.2365  -0.2289  -0.1044   0.2184   0.2512   0.2732   0.2808
     0.2859   0.3024   0.3363   0.3456   0.3708   0.3820   0.3949   0.4009
     0.4076   0.4198   0.4296   0.4356   0.4439   0.4560   0.4629   0.4713
     0.4781   0.4890   0.4893   0.4978   0.5030   0.5134   0.5149   0.5264
     0.5426   0.5450   0.5547   0.5609   0.5661   0.5713   0.5742   0.6000
     0.6069   0.6093   0.6167   0.6208   0.6345   0.6473   0.6487   0.6505
     0.6664   0.6701   0.6731   0.6839   0.6858   0.7061   0.7101   0.7137
     0.7228   0.7284   0.7308   0.7408   0.7552   0.7704   0.7825   0.7851
     0.7937   0.7976   0.8070   0.8304   0.8347   0.8452   0.8490   0.8511
     0.8633   0.8664   0.8846   0.8999   0.9029   0.9085   0.9200   0.9239
     0.9323   0.9612   0.9712   0.9826   0.9862   0.9886   0.9922   1.0179
     1.0543   1.1316   1.1339   1.2326   1.2547   1.7048   1.7819   1.7896
     1.7952   1.8108   1.8217   1.8383   1.8485   1.8608   1.9442   1.9606
     1.9726   1.9926   2.0178   2.0415   2.0533   2.0823   2.0956   2.1476
     2.1568   2.1725   2.1835   2.2100   2.2238   2.2387   2.2537   2.2695
     2.2806   2.3036   2.3223   2.3384   2.3481   2.3617   2.3918   2.4001
     2.4126   2.4148   2.4616   2.4629   2.4924   2.5104   2.5173   2.5232
     2.5329   2.5405   2.5602   2.5712   2.5891   2.6212   2.6283   2.6464
     2.6677   2.6730   2.6848   2.7438   2.8113   2.8281   2.8860   2.8956
     2.9011   2.9428   3.5187   3.5541   3.6037   3.6350   3.7644   3.7930
     3.8788   3.8918   3.9030   3.9518   3.9649   4.0191   4.1023   4.1103
     4.1194   4.1424   4.1673   4.1724   4.1943   4.2084   4.6781   4.7972
     4.8494   4.8839   4.9522   4.9654   5.0005   5.0548   5.0630   5.1368
     5.1382   5.1961   5.4389   6.3012   6.3935   6.5302   6.6415   6.7359
     6.8159   6.8669   6.9205   6.9639   7.0030   7.0823   7.1497   7.2181
     7.2954   7.3598   7.4081   7.4211   7.4645   7.5055   7.6490   7.6891
     7.7279   7.7637   7.7756   7.8199   7.8634   7.9097   7.9279   7.9690
     8.0260   8.0608   8.0905   8.1183   8.1711   8.1910   8.2122   8.2454
     8.2791   8.3166   8.3709   8.3853   8.4245   8.4353   8.4458   8.4717
     8.4848   8.5116   8.5376   8.5542   8.5904   8.5987   8.6188   8.6727
     8.6950   8.7074   8.7259   8.7476   8.7696   8.8097   8.8373   8.8692

     the Fermi energy is     1.6949 ev

!    total energy              =   -7738.30221781 Ry
     estimated scf accuracy    <       0.00000079 Ry
     smearing contrib. (-TS)   =      -0.02507666 Ry
     internal energy E=F+TS    =   -7738.27714114 Ry

     The total energy is F=E-TS. E is the sum of the following terms:
     one-electron contribution =  -95040.96158957 Ry
     hartree contribution      =   48138.02284512 Ry
     xc contribution           =   -2218.73389761 Ry
     ewald contribution        =   41385.20411210 Ry
     Dispersion Correction     =      -1.80879269 Ry
     electric field correction =       0.00018150 Ry

     total magnetization       =    88.32 Bohr mag/cell
     absolute magnetization    =    89.69 Bohr mag/cell

     convergence has been achieved in  50 iterations

     negative rho (up, down):  1.048E-03 5.888E-04

     Forces acting on atoms (cartesian axes, Ry/au):

     atom    1 type  1   force =     0.02523205   -0.03111203    0.01838314
     atom    2 type  2   force =    -0.01383669   -0.00155255   -0.00985640
     atom    3 type  1   force =    -0.02326224   -0.01841988    0.01974979
     atom    4 type  1   force =     0.00574643    0.00405887   -0.00614137
     atom    5 type  1   force =    -0.00192041    0.00100488   -0.00517645
     atom    6 type  1   force =     0.00210474    0.00794337   -0.00906368
     atom    7 type  3   force =    -0.00773375    0.00116550   -0.01043390
     atom    8 type  3   force =    -0.03499111    0.05414462   -0.08328231
     atom    9 type  3   force =     0.03414403    0.03817490   -0.06428264
     atom   10 type  3   force =    -0.00304498   -0.00247746   -0.01160199
     atom   11 type  4   force =     0.00672546    0.00560249    0.01388338
     atom   12 type  4   force =    -0.00025198   -0.00292866    0.01485609
     atom   13 type  4   force =     0.00196385    0.00172479    0.01747238
     atom   14 type  4   force =    -0.00046167   -0.00130343    0.01269305
     atom   15 type  4   force =    -0.00066269    0.00457485   -0.00196943
     atom   16 type  4   force =    -0.00043289    0.00265104    0.04031653
     atom   17 type  4   force =     0.00173377    0.00815137    0.03768745
     atom   18 type  4   force =     0.00798761   -0.00446278   -0.00042721
     atom   19 type  4   force =     0.00046924    0.01194505    0.00428799
     atom   20 type  4   force =    -0.00962978   -0.02682734   -0.00367726
     atom   21 type  4   force =    -0.01117699   -0.00041098    0.00068486
     atom   22 type  4   force =    -0.03216722    0.00308584    0.00786059
     atom   23 type  4   force =     0.03207876    0.00059425    0.01411022
     atom   24 type  4   force =     0.00699423   -0.03698947    0.00379602
     atom   25 type  4   force =    -0.00316983    0.00177068    0.00397578
     atom   26 type  4   force =     0.01788390   -0.00687119    0.00080869
     atom   27 type  1   force =    -0.00523413   -0.00878000    0.00298334
     atom   28 type  2   force =    -0.01337721   -0.00011262    0.00530675
     atom   29 type  1   force =     0.00301144   -0.00512915   -0.00078881
     atom   30 type  1   force =     0.00249623    0.00502198   -0.00100636
     atom   31 type  1   force =     0.00172635   -0.00460527    0.00062635
     atom   32 type  1   force =    -0.00077328    0.00110455   -0.00138363
     atom   33 type  3   force =    -0.00624391   -0.00190728   -0.00265818
     atom   34 type  3   force =    -0.00801093    0.00261387   -0.00027887
     atom   35 type  3   force =     0.00447944   -0.00068667    0.00278360
     atom   36 type  3   force =     0.00093265   -0.00220549   -0.00386891
     atom   37 type  4   force =     0.00868787    0.00546187    0.00780739
     atom   38 type  4   force =     0.00382038   -0.00090717   -0.01925389
     atom   39 type  4   force =    -0.00158383    0.00357963   -0.00990849
     atom   40 type  4   force =    -0.00144026   -0.00243862    0.00923819
     atom   41 type  4   force =    -0.00137428    0.00346557   -0.00686145
     atom   42 type  4   force =    -0.00425359   -0.00456890    0.01806070
     atom   43 type  4   force =     0.00769898    0.00339671    0.00774982
     atom   44 type  4   force =     0.00983493   -0.00553043   -0.00587946
     atom   45 type  4   force =     0.00279369    0.00458006    0.00055595
     atom   46 type  4   force =     0.00229029   -0.00003710   -0.00554677
     atom   47 type  4   force =    -0.01272159   -0.00025360   -0.00366696
     atom   48 type  4   force =    -0.01459663    0.00126804    0.00345975
     atom   49 type  4   force =     0.01345599    0.00253270    0.00446285
     atom   50 type  4   force =    -0.00269610   -0.00485142   -0.00041575
     atom   51 type  4   force =    -0.00521022    0.00142945    0.00051955
     atom   52 type  4   force =     0.01521279   -0.00408389   -0.00445750
     atom   53 type  1   force =     0.00000971   -0.00034190   -0.00044294
     atom   54 type  2   force =    -0.00013705   -0.00043581   -0.00060440
     atom   55 type  1   force =    -0.00003530   -0.00011965   -0.00060020
     atom   56 type  1   force =    -0.00001563   -0.00010913   -0.00049711
     atom   57 type  1   force =    -0.00061724    0.00074623   -0.00021100
     atom   58 type  1   force =     0.00066180    0.00059737   -0.00073639
     atom   59 type  3   force =     0.00036941    0.00022435   -0.00038232
     atom   60 type  3   force =     0.00005768   -0.00004223    0.00023534
     atom   61 type  3   force =     0.00022806   -0.00021907   -0.00000192
     atom   62 type  3   force =    -0.00067920    0.00028721   -0.00041568
     atom   63 type  4   force =     0.00035836    0.00016645   -0.00015788
     atom   64 type  4   force =     0.00018239   -0.00008249    0.00043819
     atom   65 type  4   force =    -0.00023697   -0.00022954    0.00030781
     atom   66 type  4   force =    -0.00003582    0.00012275    0.00064608
     atom   67 type  4   force =    -0.00004510   -0.00028338   -0.00019591
     atom   68 type  4   force =     0.00068616    0.00017595    0.00017869
     atom   69 type  4   force =    -0.00052311   -0.00035844    0.00029558
     atom   70 type  4   force =     0.00018459   -0.00023799    0.00056304
     atom   71 type  4   force =    -0.00014306   -0.00056356   -0.00002785
     atom   72 type  4   force =    -0.00041593   -0.00021516   -0.00027439
     atom   73 type  4   force =     0.00016468    0.00030002    0.00015391
     atom   74 type  4   force =    -0.00004274   -0.00032879   -0.00052373
     atom   75 type  4   force =    -0.00019221   -0.00023441   -0.00026023
     atom   76 type  4   force =     0.00005340    0.00000027   -0.00031513
     atom   77 type  4   force =     0.00009258   -0.00003060    0.00021040
     atom   78 type  4   force =     0.00012953    0.00013686   -0.00018007
     atom   79 type  1   force =     0.02520149   -0.03111104    0.01838346
     atom   80 type  2   force =    -0.01377984   -0.00155076   -0.00987636
     atom   81 type  1   force =    -0.02326032   -0.01841198    0.01975195
     atom   82 type  1   force =     0.00572338    0.00406294   -0.00614620
     atom   83 type  1   force =    -0.00194094    0.00099487   -0.00517082
     atom   84 type  1   force =     0.00208322    0.00796116   -0.00906742
     atom   85 type  3   force =    -0.00772592    0.00117769   -0.01044075
     atom   86 type  3   force =    -0.03498255    0.05414298   -0.08328978
     atom   87 type  3   force =     0.03415222    0.03817645   -0.06428551
     atom   88 type  3   force =    -0.00305638   -0.00247543   -0.01160638
     atom   89 type  4   force =     0.00685657    0.00560785    0.01388892
     atom   90 type  4   force =    -0.00016614   -0.00283646    0.01484197
     atom   91 type  4   force =     0.00205508    0.00172185    0.01744571
     atom   92 type  4   force =    -0.00029834   -0.00129656    0.01269575
     atom   93 type  4   force =    -0.00065356    0.00478142   -0.00184480
     atom   94 type  4   force =    -0.00050434    0.00261023    0.04012352
     atom   95 type  4   force =     0.00186077    0.00815152    0.03768668
     atom   96 type  4   force =     0.00778022   -0.00448516   -0.00042886
     atom   97 type  4   force =     0.00056865    0.01201530    0.00417904
     atom   98 type  4   force =    -0.00953584   -0.02666406   -0.00364708
     atom   99 type  4   force =    -0.01119853   -0.00037571    0.00088236
     atom  100 type  4   force =    -0.03219258    0.00297998    0.00773517
     atom  101 type  4   force =     0.03210510    0.00060561    0.01411789
     atom  102 type  4   force =     0.00680899   -0.03699024    0.00380189
     atom  103 type  4   force =    -0.00307646    0.00170885    0.00394523
     atom  104 type  4   force =     0.01798390   -0.00687343    0.00080755
     atom  105 type  1   force =    -0.00524844   -0.00878992    0.00305173
     atom  106 type  2   force =    -0.01406507   -0.00068853    0.00579012
     atom  107 type  1   force =     0.00299106   -0.00502098   -0.00074895
     atom  108 type  1   force =     0.00379712    0.00363582    0.00200040
     atom  109 type  1   force =     0.00139494   -0.00466708    0.00053384
     atom  110 type  1   force =    -0.00081787    0.00106889   -0.00137744
     atom  111 type  3   force =    -0.00636093   -0.00073788   -0.00037363
     atom  112 type  3   force =    -0.00798010    0.00258625   -0.00023763
     atom  113 type  3   force =     0.00436893   -0.00059024    0.00292814
     atom  114 type  3   force =     0.00092887   -0.00175945   -0.00496891
     atom  115 type  4   force =     0.00835128    0.00491274    0.00734200
     atom  116 type  4   force =     0.00384644   -0.00092996   -0.01926731
     atom  117 type  4   force =    -0.00140227    0.00363471   -0.00992931
     atom  118 type  4   force =    -0.00175567   -0.00238730    0.00925989
     atom  119 type  4   force =    -0.00027040    0.00320850   -0.00617883
     atom  120 type  4   force =    -0.00421960   -0.00461957    0.01810778
     atom  121 type  4   force =     0.00774866    0.00339805    0.00777432
     atom  122 type  4   force =     0.01013484   -0.00484213   -0.00776050
     atom  123 type  4   force =     0.00270123    0.00422192    0.00050124
     atom  124 type  4   force =     0.00222493   -0.00008967   -0.00555692
     atom  125 type  4   force =    -0.01263476   -0.00011698   -0.00355454
     atom  126 type  4   force =    -0.01462546    0.00126604    0.00339807
     atom  127 type  4   force =     0.01349561    0.00246542    0.00460606
     atom  128 type  4   force =    -0.00282769   -0.00487190   -0.00042355
     atom  129 type  4   force =    -0.00499185    0.00139175   -0.00008177
     atom  130 type  4   force =     0.01580289   -0.00427994   -0.00431404
     atom  131 type  1   force =    -0.00017691   -0.00017397   -0.00055750
     atom  132 type  2   force =     0.00022599   -0.00034368   -0.00049500
     atom  133 type  1   force =    -0.00068941    0.00014808   -0.00042011
     atom  134 type  1   force =     0.00006143   -0.00065587    0.00011206
     atom  135 type  1   force =    -0.00005947    0.00085982   -0.00088932
     atom  136 type  1   force =     0.00047031    0.00056973   -0.00031992
     atom  137 type  3   force =     0.00017519    0.00033371   -0.00040828
     atom  138 type  3   force =    -0.00031116    0.00038132    0.00028069
     atom  139 type  3   force =     0.00014145   -0.00038319    0.00014365
     atom  140 type  3   force =    -0.00037630   -0.00008813   -0.00032505
     atom  141 type  4   force =     0.00023485   -0.00020366    0.00038519
     atom  142 type  4   force =    -0.00038902    0.00034671    0.00032525
     atom  143 type  4   force =    -0.00036059   -0.00018579    0.00047312
     atom  144 type  4   force =    -0.00019015   -0.00030234    0.00008808
     atom  145 type  4   force =     0.00019567   -0.00035670   -0.00040124
     atom  146 type  4   force =     0.00071031   -0.00044789    0.00010423
     atom  147 type  4   force =     0.00000183   -0.00000054    0.00048120
     atom  148 type  4   force =     0.00026484   -0.00062688   -0.00067372
     atom  149 type  4   force =    -0.00051567    0.00009118    0.00039563
     atom  150 type  4   force =    -0.00040309   -0.00035119   -0.00024019
     atom  151 type  4   force =    -0.00029197    0.00021387    0.00001085
     atom  152 type  4   force =     0.00023710   -0.00031641   -0.00046246
     atom  153 type  4   force =    -0.00059743   -0.00036856    0.00001722
     atom  154 type  4   force =     0.00049870    0.00010877   -0.00008052
     atom  155 type  4   force =     0.00027277    0.00031194   -0.00002375
     atom  156 type  4   force =     0.00016161    0.00047761   -0.00031998
     atom  157 type  4   force =     0.00702607    0.00552433    0.00107415
     atom  158 type  5   force =    -0.00701744   -0.00610763   -0.00271213

     Total force =     0.263021     Total SCF correction =     0.004619
 
     init_run     :      7.42s CPU      7.98s WALL (       1 calls)
     electrons    :    614.25s CPU    645.67s WALL (       1 calls)
     forces       :      3.10s CPU      3.45s WALL (       1 calls)
     force_london :      0.08s CPU      0.08s WALL (       1 calls)

     Called by init_run:
     wfcinit      :      4.22s CPU      4.40s WALL (       1 calls)
     potinit      :      0.68s CPU      0.85s WALL (       1 calls)
     hinit0       :      1.32s CPU      1.41s WALL (       1 calls)

     Called by electrons:
     c_bands      :    493.92s CPU    511.41s WALL (      50 calls)
     sum_band     :     74.54s CPU     81.65s WALL (      50 calls)
     v_of_rho     :     11.81s CPU     12.63s WALL (      51 calls)
     newd         :     22.49s CPU     28.48s WALL (      51 calls)
     mix_rho      :     11.20s CPU     11.39s WALL (      50 calls)
     energy_londo :      0.08s CPU      0.08s WALL (       1 calls)

     Called by c_bands:
     init_us_2    :      1.19s CPU      1.23s WALL (     204 calls)
     init_us_2:cp :      1.19s CPU      1.23s WALL (     204 calls)
     regterg      :    484.48s CPU    501.84s WALL (     104 calls)

     Called by *egterg:
     rdiaghg      :    158.83s CPU    168.49s WALL (     487 calls)
     h_psi        :    175.52s CPU    178.70s WALL (     489 calls)
     s_psi        :     31.32s CPU     31.34s WALL (     489 calls)
     g_psi        :      0.23s CPU      0.23s WALL (     383 calls)

     Called by h_psi:
     h_psi:calbec :     47.78s CPU     50.50s WALL (     489 calls)
     vloc_psi     :     94.93s CPU     95.30s WALL (     489 calls)
     add_vuspsi   :     32.42s CPU     32.50s WALL (     489 calls)

     General routines
     calbec       :     69.64s CPU     73.69s WALL (     597 calls)
     fft          :     12.65s CPU     14.05s WALL (     931 calls)
     ffts         :      7.19s CPU      7.22s WALL (    6179 calls)
     fftw         :    107.47s CPU    107.85s WALL (  176554 calls)
     interpolate  :      1.12s CPU      1.17s WALL (     102 calls)
 
     Parallel routines
 
     PWSCF        :  10m26.76s CPU  10m59.52s WALL

 
   This run was terminated on:  23:51:40  19Nov2025            

=------------------------------------------------------------------------------=
   JOB DONE.
=------------------------------------------------------------------------------=
