
     Program PWSCF v.7.2 starts on 17Nov2025 at 21: 2: 4 

     This program is part of the open-source Quantum ESPRESSO suite
     for quantum simulation of materials; please cite
         "P. Giannozzi et al., J. Phys.:Condens. Matter 21 395502 (2009);
         "P. Giannozzi et al., J. Phys.:Condens. Matter 29 465901 (2017);
         "P. Giannozzi et al., J. Chem. Phys. 152 154105 (2020);
          URL http://www.quantum-espresso.org", 
     in publications or presentations arising from this work. More details at
     http://www.quantum-espresso.org/quote

     Parallel version (MPI), running on    64 processors

     MPI processes distributed on     4 nodes
     470771 MiB available memory on the printing compute node when the environment starts
 
     Reading input from PWINPUT_atm157_xp

     Current dimensions of program PWSCF are:
     Max number of different atomic species (ntypx) = 10
     Max number of k-points (npk) =  40000
     Max angular momentum in pseudopotentials (lmaxx) =  4
     Presently no symmetry can be used with electric field

     file Ni.pbe-n-rrkjus_psl.1.0.0.UPF: wavefunction(s)  3D renormalized
     file Mn.pbe-spn-rrkjus_psl.0.3.1.UPF: wavefunction(s)  3D renormalized
     file O.pbe-rrkjus.UPF: wavefunction(s)  2S renormalized
     file H.pbe-rrkjus.UPF: wavefunction(s)  1S renormalized

     gamma-point specific algorithms are used
 
     R & G space division:  proc/nbgrp/npool/nimage =      64
     Subspace diagonalization in iterative solution of the eigenvalue problem:
     one sub-group per band group will be used
     custom distributed-memory algorithm (size of sub-group:  7*  7 procs)

 
     Parallelization info
     --------------------
     sticks:   dense  smooth     PW     G-vecs:    dense   smooth      PW
     Min         207      82     20                60552    15302    1896
     Max         210      84     22                60574    15336    1950
     Sum       13325    5345   1333              3876045   980655  122653
 
     Using Slab Decomposition
 


     bravais-lattice index     =            0
     lattice parameter (alat)  =      17.4067  a.u.
     unit-cell volume          =   20529.8182 (a.u.)^3
     number of atoms/cell      =          158
     number of atomic types    =            5
     number of electrons       =      1093.00
     number of Kohn-Sham states=          656
     kinetic-energy cutoff     =      50.0000  Ry
     charge density cutoff     =     500.0000  Ry
     scf convergence threshold =      1.0E-06
     mixing beta               =       0.1000
     number of iterations used =            8  local-TF  mixing
     Exchange-correlation=  SLA  PW   PBE  PBE
                           (   1   4   3   4   0   0   0)

     celldm(1)=  17.406729  celldm(2)=   0.000000  celldm(3)=   0.000000
     celldm(4)=   0.000000  celldm(5)=   0.000000  celldm(6)=   0.000000

     crystal axes: (cart. coord. in units of alat)
               a(1) = (   1.000000   0.000000   0.000000 )  
               a(2) = (  -0.001404   1.105696   0.000000 )  
               a(3) = (   0.000000   0.000000   3.520448 )  

     reciprocal axes: (cart. coord. in units 2 pi/alat)
               b(1) = (  1.000000  0.001270  0.000000 )  
               b(2) = (  0.000000  0.904408  0.000000 )  
               b(3) = (  0.000000  0.000000  0.284055 )  


     PseudoPot. # 1 for Ni read from file:
     ~/PSEUDO/Ni.pbe-n-rrkjus_psl.1.0.0.UPF
     MD5 check sum: Not computed, couldn't open file
     Pseudo is Ultrasoft + core correction, Zval = 10.0
     Generated using "atomic" code by A. Dal Corso  v.5.1.2
     Using radial grid of 1195 points,  6 beta functions with: 
                l(1) =   0
                l(2) =   0
                l(3) =   1
                l(4) =   1
                l(5) =   2
                l(6) =   2
     Q(r) pseudized with 0 coefficients 


     PseudoPot. # 2 for Mn read from file:
     ~/PSEUDO/Mn.pbe-spn-rrkjus_psl.0.3.1.UPF
     MD5 check sum: Not computed, couldn't open file
     Pseudo is Ultrasoft + core correction, Zval = 15.0
     Generated using &quot;atomic&quot; code by A. Dal Corso  v.6.2.2
     Using radial grid of 1187 points,  6 beta functions with: 
                l(1) =   0
                l(2) =   0
                l(3) =   1
                l(4) =   1
                l(5) =   2
                l(6) =   2
     Q(r) pseudized with 0 coefficients 


     PseudoPot. # 3 for P  read from file:
     ~/PSEUDO/P.pbe-n-rrkjus_psl.1.0.0.UPF
     MD5 check sum: Not computed, couldn't open file
     Pseudo is Ultrasoft + core correction, Zval =  5.0
     Generated using "atomic" code by A. Dal Corso  v.5.1
     Using radial grid of 1147 points,  6 beta functions with: 
                l(1) =   0
                l(2) =   0
                l(3) =   1
                l(4) =   1
                l(5) =   2
                l(6) =   2
     Q(r) pseudized with 0 coefficients 


     PseudoPot. # 4 for O  read from file:
     ~/PSEUDO/O.pbe-rrkjus.UPF
     MD5 check sum: Not computed, couldn't open file
     Pseudo is Ultrasoft, Zval =  6.0
     Generated by new atomic code, or converted to UPF format
     Using radial grid of 1269 points,  4 beta functions with: 
                l(1) =   0
                l(2) =   0
                l(3) =   1
                l(4) =   1
     Q(r) pseudized with 0 coefficients 


     PseudoPot. # 5 for H  read from file:
     ~/PSEUDO/H.pbe-rrkjus.UPF
     MD5 check sum: Not computed, couldn't open file
     Pseudo is Ultrasoft, Zval =  1.0
     Generated by new atomic code, or converted to UPF format
     Using radial grid of 1061 points,  2 beta functions with: 
                l(1) =   0
                l(2) =   0
     Q(r) pseudized with 0 coefficients 


     atomic species   valence    mass     pseudopotential
     Ni               10.00    58.69300     Ni( 1.00)
     Mn               15.00    54.93800     Mn( 1.00)
     P                 5.00    30.97300     P ( 1.00)
     O                 6.00    15.99900     O ( 1.00)
     H                 1.00     1.00790     H ( 1.00)

     Starting magnetic structure 
     atomic species   magnetization
     Ni              1.000
     Mn              1.000
     P               1.000
     O               1.000
     H               0.000

     No symmetry found



   Cartesian axes

     site n.     atom                  positions (alat units)
         1        Ni     tau(   1) = (   0.2421002   0.8609138   0.1302181  )
         2        Mn     tau(   2) = (   0.4924481   0.7886602   0.4655392  )
         3        Ni     tau(   3) = (   0.0052341   0.3031820   0.1284544  )
         4        Ni     tau(   4) = (   0.2570603   0.2374878   0.4617901  )
         5        Ni     tau(   5) = (   0.4976584   1.1048203   0.2964410  )
         6        Ni     tau(   6) = (   0.2495781   0.5440308   0.2953805  )
         7        P      tau(   7) = (   0.2083492   0.9982113   0.4588145  )
         8        P      tau(   8) = (   0.4584476   0.6559264   0.1347090  )
         9        P      tau(   9) = (   0.2889394   0.1031966   0.1319347  )
        10        P      tau(  10) = (   0.0400379   0.4338094   0.4586283  )
        11        O      tau(  11) = (   0.1314218   0.9248062   0.3189972  )
        12        O      tau(  12) = (   0.3797244   0.7272031   0.2742874  )
        13        O      tau(  13) = (   0.3662315   0.1762062   0.2720888  )
        14        O      tau(  14) = (   0.1171240   0.3646150   0.3169340  )
        15        O      tau(  15) = (   0.1510364   0.9068326   0.5881934  )
        16        O      tau(  16) = (   0.3981989   0.7453439   0.0053495  )
        17        O      tau(  17) = (   0.3490561   0.1888693   0.0010856  )
        18        O      tau(  18) = (   0.0982395   0.3475583   0.5894443  )
        19        O      tau(  19) = (   0.0992163   0.5918099   0.4542505  )
        20        O      tau(  20) = (   0.3467441   1.0504690   0.1405000  )
        21        O      tau(  21) = (   0.3739183   0.4303319   0.4477971  )
        22        O      tau(  22) = (   0.1230967   0.1088895   0.1422960  )
        23        O      tau(  23) = (   0.1242901   0.6635968   0.1442928  )
        24        O      tau(  24) = (   0.4011802   0.4971632   0.1376281  )
        25        O      tau(  25) = (   0.1484006   0.0497464   0.4550965  )
        26        O      tau(  26) = (   0.3736100   0.9942556   0.4492158  )
        27        Ni     tau(  27) = (   0.2413539   0.8509941   0.7820408  )
        28        Mn     tau(  28) = (   0.4917018   0.7787406   1.1173619  )
        29        Ni     tau(  29) = (   0.0044877   0.2932623   0.7802771  )
        30        Ni     tau(  30) = (   0.2563139   0.2275682   1.1136128  )
        31        Ni     tau(  31) = (   0.4969120   1.0949007   0.9482637  )
        32        Ni     tau(  32) = (   0.2488318   0.5341111   0.9472032  )
        33        P      tau(  33) = (   0.2076029   0.9882917   1.1106372  )
        34        P      tau(  34) = (   0.4577012   0.6460068   0.7865316  )
        35        P      tau(  35) = (   0.2881931   0.0932770   0.7837574  )
        36        P      tau(  36) = (   0.0392916   0.4238898   1.1104509  )
        37        O      tau(  37) = (   0.1306755   0.9148866   0.9708199  )
        38        O      tau(  38) = (   0.3789780   0.7172835   0.9261101  )
        39        O      tau(  39) = (   0.3654852   0.1662865   0.9239115  )
        40        O      tau(  40) = (   0.1163776   0.3546954   0.9687567  )
        41        O      tau(  41) = (   0.1502901   0.8969129   1.2400160  )
        42        O      tau(  42) = (   0.3974525   0.7354243   0.6571722  )
        43        O      tau(  43) = (   0.3483097   0.1789497   0.6529083  )
        44        O      tau(  44) = (   0.0974932   0.3376387   1.2412670  )
        45        O      tau(  45) = (   0.0984699   0.5818903   1.1060732  )
        46        O      tau(  46) = (   0.3459978   1.0405493   0.7923226  )
        47        O      tau(  47) = (   0.3731719   0.4204123   1.0996198  )
        48        O      tau(  48) = (   0.1223503   0.0989699   0.7941187  )
        49        O      tau(  49) = (   0.1235438   0.6536772   0.7961155  )
        50        O      tau(  50) = (   0.4004339   0.4872435   0.7894508  )
        51        O      tau(  51) = (   0.1476543   0.0398268   1.1069192  )
        52        O      tau(  52) = (   0.3728637   0.9843360   1.1010385  )
        53        Ni     tau(  53) = (   0.2408392   0.8320559   1.4307548  )
        54        Mn     tau(  54) = (   0.4954146   0.7586327   1.7610775  )
        55        Ni     tau(  55) = (   0.0038240   0.2752655   1.4301830  )
        56        Ni     tau(  56) = (   0.2490297   0.2126224   1.7413163  )
        57        Ni     tau(  57) = (   0.5009698   1.0727426   1.5934065  )
        58        Ni     tau(  58) = (   0.2431858   0.5187785   1.5959132  )
        59        P      tau(  59) = (   0.2122300   0.9646931   1.7577827  )
        60        P      tau(  60) = (   0.4560273   0.6255665   1.4349308  )
        61        P      tau(  61) = (   0.2895010   0.0747953   1.4294223  )
        62        P      tau(  62) = (   0.0342753   0.4049908   1.7624825  )
        63        O      tau(  63) = (   0.1360342   0.9011422   1.6115162  )
        64        O      tau(  64) = (   0.3787980   0.6986865   1.5736904  )
        65        O      tau(  65) = (   0.3677510   0.1474149   1.5681507  )
        66        O      tau(  66) = (   0.1091522   0.3445019   1.6130708  )
        67        O      tau(  67) = (   0.1535140   0.8654492   1.8774963  )
        68        O      tau(  68) = (   0.3948076   0.7176264   1.3082772  )
        69        O      tau(  69) = (   0.3502162   0.1643066   1.3009305  )
        70        O      tau(  70) = (   0.0993202   0.3091187   1.8805971  )
        71        O      tau(  71) = (   0.0903777   0.5660296   1.7630811  )
        72        O      tau(  72) = (   0.3492636   1.0227954   1.4341724  )
        73        O      tau(  73) = (   0.3646020   0.4001049   1.7428273  )
        74        O      tau(  74) = (   0.1232632   0.0821777   1.4436547  )
        75        O      tau(  75) = (   0.1218485   0.6357099   1.4465986  )
        76        O      tau(  76) = (   0.3950879   0.4683338   1.4358038  )
        77        O      tau(  77) = (   0.1575600   0.0186245   1.7589158  )
        78        O      tau(  78) = (   0.3794955   0.9564473   1.7469906  )
        79        Ni     tau(  79) = (   0.7421002   0.8609138   0.1302181  )
        80        Mn     tau(  80) = (   0.9924481   0.7886602   0.4655392  )
        81        Ni     tau(  81) = (   0.5052341   0.3031820   0.1284544  )
        82        Ni     tau(  82) = (   0.7570603   0.2374878   0.4617901  )
        83        Ni     tau(  83) = (   0.9976584   1.1048203   0.2964410  )
        84        Ni     tau(  84) = (   0.7495781   0.5440308   0.2953805  )
        85        P      tau(  85) = (   0.7083492   0.9982113   0.4588145  )
        86        P      tau(  86) = (   0.9584476   0.6559264   0.1347090  )
        87        P      tau(  87) = (   0.7889394   0.1031966   0.1319347  )
        88        P      tau(  88) = (   0.5400379   0.4338094   0.4586283  )
        89        O      tau(  89) = (   0.6314218   0.9248062   0.3189972  )
        90        O      tau(  90) = (   0.8797244   0.7272031   0.2742874  )
        91        O      tau(  91) = (   0.8662315   0.1762062   0.2720888  )
        92        O      tau(  92) = (   0.6171240   0.3646150   0.3169340  )
        93        O      tau(  93) = (   0.6510364   0.9068326   0.5881934  )
        94        O      tau(  94) = (   0.8981989   0.7453439   0.0053495  )
        95        O      tau(  95) = (   0.8490561   0.1888693   0.0010856  )
        96        O      tau(  96) = (   0.5982395   0.3475583   0.5894443  )
        97        O      tau(  97) = (   0.5992163   0.5918099   0.4542505  )
        98        O      tau(  98) = (   0.8467441   1.0504690   0.1405000  )
        99        O      tau(  99) = (   0.8739183   0.4303319   0.4477971  )
       100        O      tau( 100) = (   0.6230967   0.1088895   0.1422960  )
       101        O      tau( 101) = (   0.6242901   0.6635968   0.1442928  )
       102        O      tau( 102) = (   0.9011802   0.4971632   0.1376281  )
       103        O      tau( 103) = (   0.6484006   0.0497464   0.4550965  )
       104        O      tau( 104) = (   0.8736100   0.9942556   0.4492158  )
       105        Ni     tau( 105) = (   0.7413539   0.8509941   0.7820408  )
       106        Mn     tau( 106) = (   0.9917018   0.7787406   1.1173619  )
       107        Ni     tau( 107) = (   0.5044877   0.2932623   0.7802771  )
       108        Ni     tau( 108) = (   0.7563139   0.2275682   1.1136128  )
       109        Ni     tau( 109) = (   0.9969120   1.0949007   0.9482637  )
       110        Ni     tau( 110) = (   0.7488318   0.5341111   0.9472032  )
       111        P      tau( 111) = (   0.7076029   0.9882917   1.1106372  )
       112        P      tau( 112) = (   0.9577012   0.6460068   0.7865316  )
       113        P      tau( 113) = (   0.7881931   0.0932770   0.7837574  )
       114        P      tau( 114) = (   0.5392916   0.4238898   1.1104509  )
       115        O      tau( 115) = (   0.6306755   0.9148866   0.9708199  )
       116        O      tau( 116) = (   0.8789780   0.7172835   0.9261101  )
       117        O      tau( 117) = (   0.8654852   0.1662865   0.9239115  )
       118        O      tau( 118) = (   0.6163776   0.3546954   0.9687567  )
       119        O      tau( 119) = (   0.6502901   0.8969129   1.2400160  )
       120        O      tau( 120) = (   0.8974525   0.7354243   0.6571722  )
       121        O      tau( 121) = (   0.8483097   0.1789497   0.6529083  )
       122        O      tau( 122) = (   0.5974932   0.3376387   1.2412670  )
       123        O      tau( 123) = (   0.5984699   0.5818903   1.1060732  )
       124        O      tau( 124) = (   0.8459978   1.0405493   0.7923226  )
       125        O      tau( 125) = (   0.8731719   0.4204123   1.0996198  )
       126        O      tau( 126) = (   0.6223503   0.0989699   0.7941187  )
       127        O      tau( 127) = (   0.6235438   0.6536772   0.7961155  )
       128        O      tau( 128) = (   0.9004339   0.4872435   0.7894508  )
       129        O      tau( 129) = (   0.6476543   0.0398268   1.1069192  )
       130        O      tau( 130) = (   0.8728637   0.9843360   1.1010385  )
       131        Ni     tau( 131) = (   0.7412940   0.8317433   1.4310133  )
       132        Mn     tau( 132) = (   0.9942976   0.7631104   1.7617718  )
       133        Ni     tau( 133) = (   0.5047574   0.2752797   1.4288709  )
       134        Ni     tau( 134) = (   0.7578350   0.2028549   1.7762646  )
       135        Ni     tau( 135) = (   0.9991757   1.0753039   1.5972728  )
       136        Ni     tau( 136) = (   0.7442600   0.5152897   1.5986856  )
       137        P      tau( 137) = (   0.7103622   0.9612778   1.7571285  )
       138        P      tau( 138) = (   0.9553703   0.6259627   1.4358934  )
       139        P      tau( 139) = (   0.7893263   0.0766982   1.4325513  )
       140        P      tau( 140) = (   0.5325678   0.3983667   1.7561030  )
       141        O      tau( 141) = (   0.6347348   0.8960507   1.6104236  )
       142        O      tau( 142) = (   0.8786872   0.6982692   1.5748233  )
       143        O      tau( 143) = (   0.8656120   0.1503721   1.5709854  )
       144        O      tau( 144) = (   0.6103215   0.3431354   1.6091064  )
       145        O      tau( 145) = (   0.6551320   0.8592875   1.8763947  )
       146        O      tau( 146) = (   0.8944353   0.7174045   1.3087138  )
       147        O      tau( 147) = (   0.8496681   0.1651992   1.3026615  )
       148        O      tau( 148) = (   0.5874463   0.2980729   1.8752625  )
       149        O      tau( 149) = (   0.5882302   0.5598447   1.7638488  )
       150        O      tau( 150) = (   0.8489894   1.0242576   1.4369886  )
       151        O      tau( 151) = (   0.8668845   0.4032412   1.7522286  )
       152        O      tau( 152) = (   0.6225444   0.0814235   1.4420664  )
       153        O      tau( 153) = (   0.6223363   0.6337860   1.4464754  )
       154        O      tau( 154) = (   0.8959961   0.4681766   1.4379317  )
       155        O      tau( 155) = (   0.6491461   0.0122190   1.7550753  )
       156        O      tau( 156) = (   0.8775761   0.9554460   1.7441695  )
       157        O      tau( 157) = (   0.8714037   0.1184006   1.9156559  )
       158        H      tau( 158) = (   0.9557521   0.1787018   1.9403932  )

     -------------------------------------------------
     Parameters for Dispersion (Grimme-D2) Correction:
     -------------------------------------------------
       atom      VdW radius       C_6     

        Ni         2.952        374.666
        Mn         2.952        374.666
        P          3.222        271.980
        O          2.536         24.284
        H          1.892          4.857

     number of k points=     1  Gaussian smearing, width (Ry)=  0.0100
                       cart. coord. in units 2pi/alat
        k(    1) = (   0.0000000   0.0000000   0.0000000), wk =   1.0000000

     Dense  grid:  1938023 G-vectors     FFT dimensions: ( 125, 144, 450)

     Smooth grid:   490328 G-vectors     FFT dimensions: (  80,  90, 288)

     Estimated max dynamical RAM per process >     326.29 MB

     Estimated total dynamical RAM >      20.39 GB

     Check: negative core charge=   -0.000001
     Generating pointlists ...
     new r_m :   0.0819 (alat units)  1.4263 (a.u.) for type    1
     new r_m :   0.0904 (alat units)  1.5743 (a.u.) for type    2
     new r_m :   0.0681 (alat units)  1.1857 (a.u.) for type    3
     new r_m :   0.0440 (alat units)  0.7654 (a.u.) for type    4
     new r_m :   0.0440 (alat units)  0.7654 (a.u.) for type    5

     Initial potential from superposition of free atoms

     starting charge    1092.8893, renormalised to    1093.0000

     negative rho (up, down):  1.375E-03 4.556E-04
 
     Adding external electric field

     Computed dipole along edir(3) : 
        Dipole                1.6484 Ry au,          4.1898 Debye
        Dipole field          0.0010 Ry au, 
 
        Potential amp.       -0.1113 Ry
        Total length         55.1515 bohr
 
 
     Adding external electric field

     Computed dipole along edir(3) : 
        Dipole                1.6484 Ry au,          4.1898 Debye
        Dipole field          0.0010 Ry au, 
 
        Potential amp.       -0.1113 Ry
        Total length         55.1515 bohr
 
     Starting wfcs are  815 randomized atomic wfcs

     total cpu time spent up to now is       10.4 secs

     Self-consistent Calculation

     iteration #  1     ecut=    50.00 Ry     beta= 0.10
     Davidson diagonalization with overlap
     ethr =  1.00E-02,  avg # of iterations =  6.0

     negative rho (up, down):  3.939E-01 2.278E-06
 
     Adding external electric field

     Computed dipole along edir(3) : 
        Dipole               -3.3939 Ry au,         -8.6266 Debye
        Dipole field         -0.0021 Ry au, 
 
        Potential amp.        0.2291 Ry
        Total length         55.1515 bohr
 
 
     Adding external electric field

     Computed dipole along edir(3) : 
        Dipole               -3.3939 Ry au,         -8.6266 Debye
        Dipole field         -0.0021 Ry au, 
 
        Potential amp.        0.2291 Ry
        Total length         55.1515 bohr
 

     total cpu time spent up to now is       37.3 secs

     total energy              =   -7519.14277353 Ry
     estimated scf accuracy    <     751.13045575 Ry

     total magnetization       =   219.00 Bohr mag/cell
     absolute magnetization    =   307.78 Bohr mag/cell

     iteration #  2     ecut=    50.00 Ry     beta= 0.10
     Davidson diagonalization with overlap
     ethr =  1.00E-02,  avg # of iterations =  2.0

     negative rho (up, down):  3.642E-01 1.852E-06
 
     Adding external electric field

     Computed dipole along edir(3) : 
        Dipole               -2.4467 Ry au,         -6.2189 Debye
        Dipole field         -0.0015 Ry au, 
 
        Potential amp.        0.1652 Ry
        Total length         55.1515 bohr
 
 
     Adding external electric field

     Computed dipole along edir(3) : 
        Dipole               -2.4467 Ry au,         -6.2189 Debye
        Dipole field         -0.0015 Ry au, 
 
        Potential amp.        0.1652 Ry
        Total length         55.1515 bohr
 

     total cpu time spent up to now is       51.8 secs

     total energy              =   -7602.56860215 Ry
     estimated scf accuracy    <     170.78759865 Ry

     total magnetization       =   154.75 Bohr mag/cell
     absolute magnetization    =   204.55 Bohr mag/cell

     iteration #  3     ecut=    50.00 Ry     beta= 0.10
     Davidson diagonalization with overlap
     ethr =  1.00E-02,  avg # of iterations =  1.5

     negative rho (up, down):  3.178E-01 1.593E-06
 
     Adding external electric field

     Computed dipole along edir(3) : 
        Dipole               -2.0038 Ry au,         -5.0932 Debye
        Dipole field         -0.0012 Ry au, 
 
        Potential amp.        0.1353 Ry
        Total length         55.1515 bohr
 
 
     Adding external electric field

     Computed dipole along edir(3) : 
        Dipole               -2.0038 Ry au,         -5.0932 Debye
        Dipole field         -0.0012 Ry au, 
 
        Potential amp.        0.1353 Ry
        Total length         55.1515 bohr
 

     total cpu time spent up to now is       63.9 secs

     total energy              =   -7635.56791072 Ry
     estimated scf accuracy    <     101.84857176 Ry

     total magnetization       =   131.88 Bohr mag/cell
     absolute magnetization    =   183.62 Bohr mag/cell

     iteration #  4     ecut=    50.00 Ry     beta= 0.10
     Davidson diagonalization with overlap
     ethr =  9.32E-03,  avg # of iterations =  1.5

     negative rho (up, down):  2.471E-01 5.302E-07
 
     Adding external electric field

     Computed dipole along edir(3) : 
        Dipole               -2.0216 Ry au,         -5.1385 Debye
        Dipole field         -0.0012 Ry au, 
 
        Potential amp.        0.1365 Ry
        Total length         55.1515 bohr
 
 
     Adding external electric field

     Computed dipole along edir(3) : 
        Dipole               -2.0216 Ry au,         -5.1385 Debye
        Dipole field         -0.0012 Ry au, 
 
        Potential amp.        0.1365 Ry
        Total length         55.1515 bohr
 

     total cpu time spent up to now is       76.0 secs

     total energy              =   -7665.96760790 Ry
     estimated scf accuracy    <      80.11111057 Ry

     total magnetization       =   114.80 Bohr mag/cell
     absolute magnetization    =   168.29 Bohr mag/cell

     iteration #  5     ecut=    50.00 Ry     beta= 0.10
     Davidson diagonalization with overlap
     ethr =  7.33E-03,  avg # of iterations =  1.0

     negative rho (up, down):  1.302E-02 2.606E-08
 
     Adding external electric field

     Computed dipole along edir(3) : 
        Dipole               -1.5011 Ry au,         -3.8155 Debye
        Dipole field         -0.0009 Ry au, 
 
        Potential amp.        0.1014 Ry
        Total length         55.1515 bohr
 
 
     Adding external electric field

     Computed dipole along edir(3) : 
        Dipole               -1.5011 Ry au,         -3.8155 Debye
        Dipole field         -0.0009 Ry au, 
 
        Potential amp.        0.1014 Ry
        Total length         55.1515 bohr
 

     total cpu time spent up to now is       87.6 secs

     total energy              =   -7726.63878257 Ry
     estimated scf accuracy    <      64.34533364 Ry

     total magnetization       =    97.05 Bohr mag/cell
     absolute magnetization    =   151.42 Bohr mag/cell

     iteration #  6     ecut=    50.00 Ry     beta= 0.10
     Davidson diagonalization with overlap
     ethr =  5.89E-03,  avg # of iterations =  1.0

     negative rho (up, down):  1.166E-04 2.186E-04
 
     Adding external electric field

     Computed dipole along edir(3) : 
        Dipole               -1.0501 Ry au,         -2.6691 Debye
        Dipole field         -0.0006 Ry au, 
 
        Potential amp.        0.0709 Ry
        Total length         55.1515 bohr
 
 
     Adding external electric field

     Computed dipole along edir(3) : 
        Dipole               -1.0501 Ry au,         -2.6691 Debye
        Dipole field         -0.0006 Ry au, 
 
        Potential amp.        0.0709 Ry
        Total length         55.1515 bohr
 

     total cpu time spent up to now is       98.8 secs

     total energy              =   -7736.23494754 Ry
     estimated scf accuracy    <      11.89820351 Ry

     total magnetization       =    91.00 Bohr mag/cell
     absolute magnetization    =   121.67 Bohr mag/cell

     iteration #  7     ecut=    50.00 Ry     beta= 0.10
     Davidson diagonalization with overlap
     ethr =  1.09E-03,  avg # of iterations =  6.0

     negative rho (up, down):  1.104E-04 2.126E-04
 
     Adding external electric field

     Computed dipole along edir(3) : 
        Dipole               -1.0478 Ry au,         -2.6632 Debye
        Dipole field         -0.0006 Ry au, 
 
        Potential amp.        0.0707 Ry
        Total length         55.1515 bohr
 
 
     Adding external electric field

     Computed dipole along edir(3) : 
        Dipole               -1.0478 Ry au,         -2.6632 Debye
        Dipole field         -0.0006 Ry au, 
 
        Potential amp.        0.0707 Ry
        Total length         55.1515 bohr
 

     total cpu time spent up to now is      119.5 secs

     total energy              =   -7738.38871331 Ry
     estimated scf accuracy    <      26.00080137 Ry

     total magnetization       =    70.12 Bohr mag/cell
     absolute magnetization    =    87.40 Bohr mag/cell

     iteration #  8     ecut=    50.00 Ry     beta= 0.10
     Davidson diagonalization with overlap
     ethr =  1.09E-03,  avg # of iterations =  1.0

     negative rho (up, down):  9.534E-05 1.947E-04
 
     Adding external electric field

     Computed dipole along edir(3) : 
        Dipole               -1.0337 Ry au,         -2.6274 Debye
        Dipole field         -0.0006 Ry au, 
 
        Potential amp.        0.0698 Ry
        Total length         55.1515 bohr
 
 
     Adding external electric field

     Computed dipole along edir(3) : 
        Dipole               -1.0337 Ry au,         -2.6274 Debye
        Dipole field         -0.0006 Ry au, 
 
        Potential amp.        0.0698 Ry
        Total length         55.1515 bohr
 

     total cpu time spent up to now is      130.7 secs

     total energy              =   -7738.35034050 Ry
     estimated scf accuracy    <      25.03003388 Ry

     total magnetization       =    70.41 Bohr mag/cell
     absolute magnetization    =    87.23 Bohr mag/cell

     iteration #  9     ecut=    50.00 Ry     beta= 0.10
     Davidson diagonalization with overlap
     ethr =  1.09E-03,  avg # of iterations =  1.0

     negative rho (up, down):  1.315E-04 3.842E-04
 
     Adding external electric field

     Computed dipole along edir(3) : 
        Dipole               -0.9236 Ry au,         -2.3474 Debye
        Dipole field         -0.0006 Ry au, 
 
        Potential amp.        0.0624 Ry
        Total length         55.1515 bohr
 
 
     Adding external electric field

     Computed dipole along edir(3) : 
        Dipole               -0.9236 Ry au,         -2.3474 Debye
        Dipole field         -0.0006 Ry au, 
 
        Potential amp.        0.0624 Ry
        Total length         55.1515 bohr
 

     total cpu time spent up to now is      142.0 secs

     total energy              =   -7737.85953271 Ry
     estimated scf accuracy    <      22.65538349 Ry

     total magnetization       =    70.93 Bohr mag/cell
     absolute magnetization    =    87.18 Bohr mag/cell

     iteration # 10     ecut=    50.00 Ry     beta= 0.10
     Davidson diagonalization with overlap
     ethr =  1.09E-03,  avg # of iterations =  1.0

     negative rho (up, down):  3.391E-04 9.398E-04
 
     Adding external electric field

     Computed dipole along edir(3) : 
        Dipole               -0.8898 Ry au,         -2.2617 Debye
        Dipole field         -0.0005 Ry au, 
 
        Potential amp.        0.0601 Ry
        Total length         55.1515 bohr
 
 
     Adding external electric field

     Computed dipole along edir(3) : 
        Dipole               -0.8898 Ry au,         -2.2617 Debye
        Dipole field         -0.0005 Ry au, 
 
        Potential amp.        0.0601 Ry
        Total length         55.1515 bohr
 

     total cpu time spent up to now is      152.5 secs

     total energy              =   -7737.91636394 Ry
     estimated scf accuracy    <       8.45006711 Ry

     total magnetization       =    77.40 Bohr mag/cell
     absolute magnetization    =    90.00 Bohr mag/cell

     iteration # 11     ecut=    50.00 Ry     beta= 0.10
     Davidson diagonalization with overlap
     ethr =  7.73E-04,  avg # of iterations =  1.5

     negative rho (up, down):  6.187E-04 1.535E-03
 
     Adding external electric field

     Computed dipole along edir(3) : 
        Dipole               -0.9010 Ry au,         -2.2902 Debye
        Dipole field         -0.0006 Ry au, 
 
        Potential amp.        0.0608 Ry
        Total length         55.1515 bohr
 
 
     Adding external electric field

     Computed dipole along edir(3) : 
        Dipole               -0.9010 Ry au,         -2.2902 Debye
        Dipole field         -0.0006 Ry au, 
 
        Potential amp.        0.0608 Ry
        Total length         55.1515 bohr
 

     total cpu time spent up to now is      163.8 secs

     total energy              =   -7737.94601457 Ry
     estimated scf accuracy    <       4.28158386 Ry

     total magnetization       =    81.26 Bohr mag/cell
     absolute magnetization    =    92.10 Bohr mag/cell

     iteration # 12     ecut=    50.00 Ry     beta= 0.10
     Davidson diagonalization with overlap
     ethr =  3.92E-04,  avg # of iterations =  1.5

     negative rho (up, down):  2.210E-04 8.660E-04
 
     Adding external electric field

     Computed dipole along edir(3) : 
        Dipole               -0.9096 Ry au,         -2.3120 Debye
        Dipole field         -0.0006 Ry au, 
 
        Potential amp.        0.0614 Ry
        Total length         55.1515 bohr
 
 
     Adding external electric field

     Computed dipole along edir(3) : 
        Dipole               -0.9096 Ry au,         -2.3120 Debye
        Dipole field         -0.0006 Ry au, 
 
        Potential amp.        0.0614 Ry
        Total length         55.1515 bohr
 

     total cpu time spent up to now is      175.0 secs

     total energy              =   -7737.93131777 Ry
     estimated scf accuracy    <       2.94895900 Ry

     total magnetization       =    83.48 Bohr mag/cell
     absolute magnetization    =    93.43 Bohr mag/cell

     iteration # 13     ecut=    50.00 Ry     beta= 0.10
     Davidson diagonalization with overlap
     ethr =  2.70E-04,  avg # of iterations =  1.5

     negative rho (up, down):  7.506E-04 2.243E-03
 
     Adding external electric field

     Computed dipole along edir(3) : 
        Dipole               -0.9734 Ry au,         -2.4743 Debye
        Dipole field         -0.0006 Ry au, 
 
        Potential amp.        0.0657 Ry
        Total length         55.1515 bohr
 
 
     Adding external electric field

     Computed dipole along edir(3) : 
        Dipole               -0.9734 Ry au,         -2.4743 Debye
        Dipole field         -0.0006 Ry au, 
 
        Potential amp.        0.0657 Ry
        Total length         55.1515 bohr
 

     total cpu time spent up to now is      186.3 secs

     total energy              =   -7737.91498649 Ry
     estimated scf accuracy    <       5.95230005 Ry

     total magnetization       =    78.65 Bohr mag/cell
     absolute magnetization    =    89.22 Bohr mag/cell

     iteration # 14     ecut=    50.00 Ry     beta= 0.10
     Davidson diagonalization with overlap
     ethr =  2.70E-04,  avg # of iterations =  1.5

     negative rho (up, down):  2.075E-03 4.000E-03
 
     Adding external electric field

     Computed dipole along edir(3) : 
        Dipole               -0.9685 Ry au,         -2.4617 Debye
        Dipole field         -0.0006 Ry au, 
 
        Potential amp.        0.0654 Ry
        Total length         55.1515 bohr
 
 
     Adding external electric field

     Computed dipole along edir(3) : 
        Dipole               -0.9685 Ry au,         -2.4617 Debye
        Dipole field         -0.0006 Ry au, 
 
        Potential amp.        0.0654 Ry
        Total length         55.1515 bohr
 

     total cpu time spent up to now is      197.4 secs

     total energy              =   -7738.01447959 Ry
     estimated scf accuracy    <       3.54555992 Ry

     total magnetization       =    82.09 Bohr mag/cell
     absolute magnetization    =    91.01 Bohr mag/cell

     iteration # 15     ecut=    50.00 Ry     beta= 0.10
     Davidson diagonalization with overlap
     ethr =  2.70E-04,  avg # of iterations =  2.0

     negative rho (up, down):  1.275E-03 2.901E-03
 
     Adding external electric field

     Computed dipole along edir(3) : 
        Dipole               -0.8963 Ry au,         -2.2782 Debye
        Dipole field         -0.0005 Ry au, 
 
        Potential amp.        0.0605 Ry
        Total length         55.1515 bohr
 
 
     Adding external electric field

     Computed dipole along edir(3) : 
        Dipole               -0.8963 Ry au,         -2.2782 Debye
        Dipole field         -0.0005 Ry au, 
 
        Potential amp.        0.0605 Ry
        Total length         55.1515 bohr
 

     total cpu time spent up to now is      209.2 secs

     total energy              =   -7738.10046628 Ry
     estimated scf accuracy    <       0.80784437 Ry

     total magnetization       =    87.17 Bohr mag/cell
     absolute magnetization    =    94.02 Bohr mag/cell

     iteration # 16     ecut=    50.00 Ry     beta= 0.10
     Davidson diagonalization with overlap
     ethr =  7.39E-05,  avg # of iterations = 12.0

     negative rho (up, down):  1.325E-04 7.057E-04
 
     Adding external electric field

     Computed dipole along edir(3) : 
        Dipole               -0.7442 Ry au,         -1.8915 Debye
        Dipole field         -0.0005 Ry au, 
 
        Potential amp.        0.0502 Ry
        Total length         55.1515 bohr
 
 
     Adding external electric field

     Computed dipole along edir(3) : 
        Dipole               -0.7442 Ry au,         -1.8915 Debye
        Dipole field         -0.0005 Ry au, 
 
        Potential amp.        0.0502 Ry
        Total length         55.1515 bohr
 

     total cpu time spent up to now is      231.0 secs

     total energy              =   -7738.19560328 Ry
     estimated scf accuracy    <       0.54144027 Ry

     total magnetization       =    87.89 Bohr mag/cell
     absolute magnetization    =    93.82 Bohr mag/cell

     iteration # 17     ecut=    50.00 Ry     beta= 0.10
     Davidson diagonalization with overlap
     ethr =  4.95E-05,  avg # of iterations =  2.0

     negative rho (up, down):  1.492E-04 5.892E-04
 
     Adding external electric field

     Computed dipole along edir(3) : 
        Dipole               -0.6900 Ry au,         -1.7538 Debye
        Dipole field         -0.0004 Ry au, 
 
        Potential amp.        0.0466 Ry
        Total length         55.1515 bohr
 
 
     Adding external electric field

     Computed dipole along edir(3) : 
        Dipole               -0.6900 Ry au,         -1.7538 Debye
        Dipole field         -0.0004 Ry au, 
 
        Potential amp.        0.0466 Ry
        Total length         55.1515 bohr
 

     total cpu time spent up to now is      243.0 secs

     total energy              =   -7738.23586812 Ry
     estimated scf accuracy    <       0.62583802 Ry

     total magnetization       =    87.44 Bohr mag/cell
     absolute magnetization    =    91.85 Bohr mag/cell

     iteration # 18     ecut=    50.00 Ry     beta= 0.10
     Davidson diagonalization with overlap
     ethr =  4.95E-05,  avg # of iterations =  1.5

     negative rho (up, down):  9.812E-07 2.221E-05
 
     Adding external electric field

     Computed dipole along edir(3) : 
        Dipole               -0.4747 Ry au,         -1.2065 Debye
        Dipole field         -0.0003 Ry au, 
 
        Potential amp.        0.0320 Ry
        Total length         55.1515 bohr
 
 
     Adding external electric field

     Computed dipole along edir(3) : 
        Dipole               -0.4747 Ry au,         -1.2065 Debye
        Dipole field         -0.0003 Ry au, 
 
        Potential amp.        0.0320 Ry
        Total length         55.1515 bohr
 

     total cpu time spent up to now is      254.3 secs

     total energy              =   -7738.29118072 Ry
     estimated scf accuracy    <       0.44007187 Ry

     total magnetization       =    88.91 Bohr mag/cell
     absolute magnetization    =    92.72 Bohr mag/cell

     iteration # 19     ecut=    50.00 Ry     beta= 0.10
     Davidson diagonalization with overlap
     ethr =  4.03E-05,  avg # of iterations =  2.0

     negative rho (up, down):  2.467E-06 1.166E-05
 
     Adding external electric field

     Computed dipole along edir(3) : 
        Dipole               -0.2542 Ry au,         -0.6461 Debye
        Dipole field         -0.0002 Ry au, 
 
        Potential amp.        0.0172 Ry
        Total length         55.1515 bohr
 
 
     Adding external electric field

     Computed dipole along edir(3) : 
        Dipole               -0.2542 Ry au,         -0.6461 Debye
        Dipole field         -0.0002 Ry au, 
 
        Potential amp.        0.0172 Ry
        Total length         55.1515 bohr
 

     total cpu time spent up to now is      266.5 secs

     total energy              =   -7738.30550683 Ry
     estimated scf accuracy    <       0.41091944 Ry

     total magnetization       =    88.86 Bohr mag/cell
     absolute magnetization    =    91.45 Bohr mag/cell

     iteration # 20     ecut=    50.00 Ry     beta= 0.10
     Davidson diagonalization with overlap
     ethr =  3.76E-05,  avg # of iterations =  2.0

     negative rho (up, down):  1.186E-06 1.900E-06
 
     Adding external electric field

     Computed dipole along edir(3) : 
        Dipole               -0.2617 Ry au,         -0.6651 Debye
        Dipole field         -0.0002 Ry au, 
 
        Potential amp.        0.0177 Ry
        Total length         55.1515 bohr
 
 
     Adding external electric field

     Computed dipole along edir(3) : 
        Dipole               -0.2617 Ry au,         -0.6651 Debye
        Dipole field         -0.0002 Ry au, 
 
        Potential amp.        0.0177 Ry
        Total length         55.1515 bohr
 

     total cpu time spent up to now is      278.6 secs

     total energy              =   -7738.30941183 Ry
     estimated scf accuracy    <       0.32211919 Ry

     total magnetization       =    89.20 Bohr mag/cell
     absolute magnetization    =    90.82 Bohr mag/cell

     iteration # 21     ecut=    50.00 Ry     beta= 0.10
     Davidson diagonalization with overlap
     ethr =  2.95E-05,  avg # of iterations =  2.0

     negative rho (up, down):  3.112E-06 3.967E-06
 
     Adding external electric field

     Computed dipole along edir(3) : 
        Dipole               -0.2350 Ry au,         -0.5974 Debye
        Dipole field         -0.0001 Ry au, 
 
        Potential amp.        0.0159 Ry
        Total length         55.1515 bohr
 
 
     Adding external electric field

     Computed dipole along edir(3) : 
        Dipole               -0.2350 Ry au,         -0.5974 Debye
        Dipole field         -0.0001 Ry au, 
 
        Potential amp.        0.0159 Ry
        Total length         55.1515 bohr
 

     total cpu time spent up to now is      290.4 secs

     total energy              =   -7738.31092429 Ry
     estimated scf accuracy    <       0.24983925 Ry

     total magnetization       =    89.19 Bohr mag/cell
     absolute magnetization    =    90.98 Bohr mag/cell

     iteration # 22     ecut=    50.00 Ry     beta= 0.10
     Davidson diagonalization with overlap
     ethr =  2.29E-05,  avg # of iterations =  1.5

     negative rho (up, down):  1.254E-05 1.232E-05
 
     Adding external electric field

     Computed dipole along edir(3) : 
        Dipole               -0.1298 Ry au,         -0.3300 Debye
        Dipole field         -0.0001 Ry au, 
 
        Potential amp.        0.0088 Ry
        Total length         55.1515 bohr
 
 
     Adding external electric field

     Computed dipole along edir(3) : 
        Dipole               -0.1298 Ry au,         -0.3300 Debye
        Dipole field         -0.0001 Ry au, 
 
        Potential amp.        0.0088 Ry
        Total length         55.1515 bohr
 

     total cpu time spent up to now is      301.6 secs

     total energy              =   -7738.31111006 Ry
     estimated scf accuracy    <       0.22732640 Ry

     total magnetization       =    89.10 Bohr mag/cell
     absolute magnetization    =    90.89 Bohr mag/cell

     iteration # 23     ecut=    50.00 Ry     beta= 0.10
     Davidson diagonalization with overlap
     c_bands:  2 eigenvalues not converged
     ethr =  2.08E-05,  avg # of iterations = 21.0

     negative rho (up, down):  6.446E-05 4.106E-05
 
     Adding external electric field

     Computed dipole along edir(3) : 
        Dipole                0.0325 Ry au,          0.0825 Debye
        Dipole field          0.0000 Ry au, 
 
        Potential amp.       -0.0022 Ry
        Total length         55.1515 bohr
 
 
     Adding external electric field

     Computed dipole along edir(3) : 
        Dipole                0.0325 Ry au,          0.0825 Debye
        Dipole field          0.0000 Ry au, 
 
        Potential amp.       -0.0022 Ry
        Total length         55.1515 bohr
 

     total cpu time spent up to now is      327.1 secs

     total energy              =   -7738.30541445 Ry
     estimated scf accuracy    <       0.17827140 Ry

     total magnetization       =    89.03 Bohr mag/cell
     absolute magnetization    =    90.59 Bohr mag/cell

     iteration # 24     ecut=    50.00 Ry     beta= 0.10
     Davidson diagonalization with overlap
     ethr =  1.63E-05,  avg # of iterations =  3.0

     negative rho (up, down):  6.940E-05 6.068E-05
 
     Adding external electric field

     Computed dipole along edir(3) : 
        Dipole                0.0272 Ry au,          0.0690 Debye
        Dipole field          0.0000 Ry au, 
 
        Potential amp.       -0.0018 Ry
        Total length         55.1515 bohr
 
 
     Adding external electric field

     Computed dipole along edir(3) : 
        Dipole                0.0272 Ry au,          0.0690 Debye
        Dipole field          0.0000 Ry au, 
 
        Potential amp.       -0.0018 Ry
        Total length         55.1515 bohr
 

     total cpu time spent up to now is      339.7 secs

     total energy              =   -7738.30756970 Ry
     estimated scf accuracy    <       0.21443649 Ry

     total magnetization       =    88.51 Bohr mag/cell
     absolute magnetization    =    89.90 Bohr mag/cell

     iteration # 25     ecut=    50.00 Ry     beta= 0.10
     Davidson diagonalization with overlap
     ethr =  1.63E-05,  avg # of iterations =  2.0

     negative rho (up, down):  1.186E-04 1.125E-04
 
     Adding external electric field

     Computed dipole along edir(3) : 
        Dipole                0.0488 Ry au,          0.1240 Debye
        Dipole field          0.0000 Ry au, 
 
        Potential amp.       -0.0033 Ry
        Total length         55.1515 bohr
 
 
     Adding external electric field

     Computed dipole along edir(3) : 
        Dipole                0.0488 Ry au,          0.1240 Debye
        Dipole field          0.0000 Ry au, 
 
        Potential amp.       -0.0033 Ry
        Total length         55.1515 bohr
 

     total cpu time spent up to now is      352.0 secs

     total energy              =   -7738.30727361 Ry
     estimated scf accuracy    <       0.38914062 Ry

     total magnetization       =    88.22 Bohr mag/cell
     absolute magnetization    =    89.74 Bohr mag/cell

     iteration # 26     ecut=    50.00 Ry     beta= 0.10
     Davidson diagonalization with overlap
     ethr =  1.63E-05,  avg # of iterations =  2.0

     negative rho (up, down):  2.730E-06 8.929E-06
 
     Adding external electric field

     Computed dipole along edir(3) : 
        Dipole               -0.0371 Ry au,         -0.0943 Debye
        Dipole field         -0.0000 Ry au, 
 
        Potential amp.        0.0025 Ry
        Total length         55.1515 bohr
 
 
     Adding external electric field

     Computed dipole along edir(3) : 
        Dipole               -0.0371 Ry au,         -0.0943 Debye
        Dipole field         -0.0000 Ry au, 
 
        Potential amp.        0.0025 Ry
        Total length         55.1515 bohr
 

     total cpu time spent up to now is      364.3 secs

     total energy              =   -7738.30034217 Ry
     estimated scf accuracy    <       0.14517274 Ry

     total magnetization       =    88.14 Bohr mag/cell
     absolute magnetization    =    89.67 Bohr mag/cell

     iteration # 27     ecut=    50.00 Ry     beta= 0.10
     Davidson diagonalization with overlap
     ethr =  1.33E-05,  avg # of iterations = 13.0

     negative rho (up, down):  5.469E-05 1.095E-04
 
     Adding external electric field

     Computed dipole along edir(3) : 
        Dipole               -0.0760 Ry au,         -0.1933 Debye
        Dipole field         -0.0000 Ry au, 
 
        Potential amp.        0.0051 Ry
        Total length         55.1515 bohr
 
 
     Adding external electric field

     Computed dipole along edir(3) : 
        Dipole               -0.0760 Ry au,         -0.1933 Debye
        Dipole field         -0.0000 Ry au, 
 
        Potential amp.        0.0051 Ry
        Total length         55.1515 bohr
 

     total cpu time spent up to now is      388.2 secs

     total energy              =   -7738.30483554 Ry
     estimated scf accuracy    <       0.30050405 Ry

     total magnetization       =    88.76 Bohr mag/cell
     absolute magnetization    =    90.14 Bohr mag/cell

     iteration # 28     ecut=    50.00 Ry     beta= 0.10
     Davidson diagonalization with overlap
     ethr =  1.33E-05,  avg # of iterations =  2.0

     negative rho (up, down):  3.498E-05 5.791E-05
 
     Adding external electric field

     Computed dipole along edir(3) : 
        Dipole               -0.1021 Ry au,         -0.2594 Debye
        Dipole field         -0.0001 Ry au, 
 
        Potential amp.        0.0069 Ry
        Total length         55.1515 bohr
 
 
     Adding external electric field

     Computed dipole along edir(3) : 
        Dipole               -0.1021 Ry au,         -0.2594 Debye
        Dipole field         -0.0001 Ry au, 
 
        Potential amp.        0.0069 Ry
        Total length         55.1515 bohr
 

     total cpu time spent up to now is      400.6 secs

     total energy              =   -7738.30590893 Ry
     estimated scf accuracy    <       0.22789416 Ry

     total magnetization       =    88.58 Bohr mag/cell
     absolute magnetization    =    90.13 Bohr mag/cell

     iteration # 29     ecut=    50.00 Ry     beta= 0.10
     Davidson diagonalization with overlap
     ethr =  1.33E-05,  avg # of iterations =  2.0

     negative rho (up, down):  6.061E-05 7.237E-05
 
     Adding external electric field

     Computed dipole along edir(3) : 
        Dipole               -0.0564 Ry au,         -0.1434 Debye
        Dipole field         -0.0000 Ry au, 
 
        Potential amp.        0.0038 Ry
        Total length         55.1515 bohr
 
 
     Adding external electric field

     Computed dipole along edir(3) : 
        Dipole               -0.0564 Ry au,         -0.1434 Debye
        Dipole field         -0.0000 Ry au, 
 
        Potential amp.        0.0038 Ry
        Total length         55.1515 bohr
 

     total cpu time spent up to now is      413.1 secs

     total energy              =   -7738.30179377 Ry
     estimated scf accuracy    <       0.21195690 Ry

     total magnetization       =    88.72 Bohr mag/cell
     absolute magnetization    =    90.37 Bohr mag/cell

     iteration # 30     ecut=    50.00 Ry     beta= 0.10
     Davidson diagonalization with overlap
     ethr =  1.33E-05,  avg # of iterations =  2.0

     negative rho (up, down):  1.037E-04 1.220E-04
 
     Adding external electric field

     Computed dipole along edir(3) : 
        Dipole                0.0119 Ry au,          0.0304 Debye
        Dipole field          0.0000 Ry au, 
 
        Potential amp.       -0.0008 Ry
        Total length         55.1515 bohr
 
 
     Adding external electric field

     Computed dipole along edir(3) : 
        Dipole                0.0119 Ry au,          0.0304 Debye
        Dipole field          0.0000 Ry au, 
 
        Potential amp.       -0.0008 Ry
        Total length         55.1515 bohr
 

     total cpu time spent up to now is      425.8 secs

     total energy              =   -7738.30407772 Ry
     estimated scf accuracy    <       0.25301339 Ry

     total magnetization       =    88.49 Bohr mag/cell
     absolute magnetization    =    90.26 Bohr mag/cell

     iteration # 31     ecut=    50.00 Ry     beta= 0.10
     Davidson diagonalization with overlap
     ethr =  1.33E-05,  avg # of iterations =  1.5

     negative rho (up, down):  1.057E-04 1.238E-04
 
     Adding external electric field

     Computed dipole along edir(3) : 
        Dipole               -0.0544 Ry au,         -0.1383 Debye
        Dipole field         -0.0000 Ry au, 
 
        Potential amp.        0.0037 Ry
        Total length         55.1515 bohr
 
 
     Adding external electric field

     Computed dipole along edir(3) : 
        Dipole               -0.0544 Ry au,         -0.1383 Debye
        Dipole field         -0.0000 Ry au, 
 
        Potential amp.        0.0037 Ry
        Total length         55.1515 bohr
 

     total cpu time spent up to now is      437.4 secs

     total energy              =   -7738.29805214 Ry
     estimated scf accuracy    <       0.17890534 Ry

     total magnetization       =    88.41 Bohr mag/cell
     absolute magnetization    =    90.16 Bohr mag/cell

     iteration # 32     ecut=    50.00 Ry     beta= 0.10
     Davidson diagonalization with overlap
     ethr =  1.33E-05,  avg # of iterations =  1.5

     negative rho (up, down):  8.765E-05 9.917E-05
 
     Adding external electric field

     Computed dipole along edir(3) : 
        Dipole               -0.1079 Ry au,         -0.2741 Debye
        Dipole field         -0.0001 Ry au, 
 
        Potential amp.        0.0073 Ry
        Total length         55.1515 bohr
 
 
     Adding external electric field

     Computed dipole along edir(3) : 
        Dipole               -0.1079 Ry au,         -0.2741 Debye
        Dipole field         -0.0001 Ry au, 
 
        Potential amp.        0.0073 Ry
        Total length         55.1515 bohr
 

     total cpu time spent up to now is      449.3 secs

     total energy              =   -7738.30227108 Ry
     estimated scf accuracy    <       0.17739888 Ry

     total magnetization       =    88.30 Bohr mag/cell
     absolute magnetization    =    90.29 Bohr mag/cell

     iteration # 33     ecut=    50.00 Ry     beta= 0.10
     Davidson diagonalization with overlap
     ethr =  1.33E-05,  avg # of iterations =  1.0

     negative rho (up, down):  2.196E-05 1.903E-05
 
     Adding external electric field

     Computed dipole along edir(3) : 
        Dipole               -0.1825 Ry au,         -0.4638 Debye
        Dipole field         -0.0001 Ry au, 
 
        Potential amp.        0.0123 Ry
        Total length         55.1515 bohr
 
 
     Adding external electric field

     Computed dipole along edir(3) : 
        Dipole               -0.1825 Ry au,         -0.4638 Debye
        Dipole field         -0.0001 Ry au, 
 
        Potential amp.        0.0123 Ry
        Total length         55.1515 bohr
 

     total cpu time spent up to now is      460.3 secs

     total energy              =   -7738.30643328 Ry
     estimated scf accuracy    <       0.22538233 Ry

     total magnetization       =    88.13 Bohr mag/cell
     absolute magnetization    =    90.06 Bohr mag/cell

     iteration # 34     ecut=    50.00 Ry     beta= 0.10
     Davidson diagonalization with overlap
     ethr =  1.33E-05,  avg # of iterations =  1.5

     negative rho (up, down):  4.607E-05 5.125E-05
 
     Adding external electric field

     Computed dipole along edir(3) : 
        Dipole               -0.0016 Ry au,         -0.0041 Debye
        Dipole field         -0.0000 Ry au, 
 
        Potential amp.        0.0001 Ry
        Total length         55.1515 bohr
 
 
     Adding external electric field

     Computed dipole along edir(3) : 
        Dipole               -0.0016 Ry au,         -0.0041 Debye
        Dipole field         -0.0000 Ry au, 
 
        Potential amp.        0.0001 Ry
        Total length         55.1515 bohr
 

     total cpu time spent up to now is      471.9 secs

     total energy              =   -7738.30654188 Ry
     estimated scf accuracy    <       0.23531823 Ry

     total magnetization       =    88.42 Bohr mag/cell
     absolute magnetization    =    90.13 Bohr mag/cell

     iteration # 35     ecut=    50.00 Ry     beta= 0.10
     Davidson diagonalization with overlap
     ethr =  1.33E-05,  avg # of iterations =  2.0

     negative rho (up, down):  3.899E-04 4.096E-04
 
     Adding external electric field

     Computed dipole along edir(3) : 
        Dipole                0.1283 Ry au,          0.3261 Debye
        Dipole field          0.0001 Ry au, 
 
        Potential amp.       -0.0087 Ry
        Total length         55.1515 bohr
 
 
     Adding external electric field

     Computed dipole along edir(3) : 
        Dipole                0.1283 Ry au,          0.3261 Debye
        Dipole field          0.0001 Ry au, 
 
        Potential amp.       -0.0087 Ry
        Total length         55.1515 bohr
 

     total cpu time spent up to now is      484.3 secs

     total energy              =   -7738.30549851 Ry
     estimated scf accuracy    <       0.23252229 Ry

     total magnetization       =    88.69 Bohr mag/cell
     absolute magnetization    =    90.26 Bohr mag/cell

     iteration # 36     ecut=    50.00 Ry     beta= 0.10
     Davidson diagonalization with overlap
     ethr =  1.33E-05,  avg # of iterations =  1.5

     negative rho (up, down):  1.177E-03 1.364E-03
 
     Adding external electric field

     Computed dipole along edir(3) : 
        Dipole                0.2343 Ry au,          0.5956 Debye
        Dipole field          0.0001 Ry au, 
 
        Potential amp.       -0.0158 Ry
        Total length         55.1515 bohr
 
 
     Adding external electric field

     Computed dipole along edir(3) : 
        Dipole                0.2343 Ry au,          0.5956 Debye
        Dipole field          0.0001 Ry au, 
 
        Potential amp.       -0.0158 Ry
        Total length         55.1515 bohr
 

     total cpu time spent up to now is      495.9 secs

     total energy              =   -7738.30551978 Ry
     estimated scf accuracy    <       0.19860866 Ry

     total magnetization       =    88.29 Bohr mag/cell
     absolute magnetization    =    89.89 Bohr mag/cell

     iteration # 37     ecut=    50.00 Ry     beta= 0.10
     Davidson diagonalization with overlap
     ethr =  1.33E-05,  avg # of iterations =  2.0

     negative rho (up, down):  6.672E-03 8.060E-03
 
     Adding external electric field

     Computed dipole along edir(3) : 
        Dipole                0.4245 Ry au,          1.0791 Debye
        Dipole field          0.0003 Ry au, 
 
        Potential amp.       -0.0287 Ry
        Total length         55.1515 bohr
 
 
     Adding external electric field

     Computed dipole along edir(3) : 
        Dipole                0.4245 Ry au,          1.0791 Debye
        Dipole field          0.0003 Ry au, 
 
        Potential amp.       -0.0287 Ry
        Total length         55.1515 bohr
 

     total cpu time spent up to now is      508.5 secs

     total energy              =   -7738.30278742 Ry
     estimated scf accuracy    <       0.15710349 Ry

     total magnetization       =    88.49 Bohr mag/cell
     absolute magnetization    =    90.02 Bohr mag/cell

     iteration # 38     ecut=    50.00 Ry     beta= 0.10
     Davidson diagonalization with overlap
     ethr =  1.33E-05,  avg # of iterations =  2.0

     negative rho (up, down):  7.172E-03 8.743E-03
 
     Adding external electric field

     Computed dipole along edir(3) : 
        Dipole                0.4356 Ry au,          1.1072 Debye
        Dipole field          0.0003 Ry au, 
 
        Potential amp.       -0.0294 Ry
        Total length         55.1515 bohr
 
 
     Adding external electric field

     Computed dipole along edir(3) : 
        Dipole                0.4356 Ry au,          1.1072 Debye
        Dipole field          0.0003 Ry au, 
 
        Potential amp.       -0.0294 Ry
        Total length         55.1515 bohr
 

     total cpu time spent up to now is      521.1 secs

     total energy              =   -7738.30287858 Ry
     estimated scf accuracy    <       0.06838881 Ry

     total magnetization       =    88.30 Bohr mag/cell
     absolute magnetization    =    89.88 Bohr mag/cell

     iteration # 39     ecut=    50.00 Ry     beta= 0.10
     Davidson diagonalization with overlap
     ethr =  6.26E-06,  avg # of iterations =  2.0

     negative rho (up, down):  1.050E-02 1.264E-02
 
     Adding external electric field

     Computed dipole along edir(3) : 
        Dipole                0.4997 Ry au,          1.2702 Debye
        Dipole field          0.0003 Ry au, 
 
        Potential amp.       -0.0337 Ry
        Total length         55.1515 bohr
 
 
     Adding external electric field

     Computed dipole along edir(3) : 
        Dipole                0.4997 Ry au,          1.2702 Debye
        Dipole field          0.0003 Ry au, 
 
        Potential amp.       -0.0337 Ry
        Total length         55.1515 bohr
 

     total cpu time spent up to now is      533.8 secs

     total energy              =   -7738.30168472 Ry
     estimated scf accuracy    <       0.06225488 Ry

     total magnetization       =    88.35 Bohr mag/cell
     absolute magnetization    =    89.94 Bohr mag/cell

     iteration # 40     ecut=    50.00 Ry     beta= 0.10
     Davidson diagonalization with overlap
     ethr =  5.70E-06,  avg # of iterations = 17.5

     negative rho (up, down):  7.303E-03 7.967E-03
 
     Adding external electric field

     Computed dipole along edir(3) : 
        Dipole                0.5693 Ry au,          1.4469 Debye
        Dipole field          0.0003 Ry au, 
 
        Potential amp.       -0.0384 Ry
        Total length         55.1515 bohr
 
 
     Adding external electric field

     Computed dipole along edir(3) : 
        Dipole                0.5693 Ry au,          1.4469 Debye
        Dipole field          0.0003 Ry au, 
 
        Potential amp.       -0.0384 Ry
        Total length         55.1515 bohr
 

     total cpu time spent up to now is      559.5 secs

     total energy              =   -7738.30058971 Ry
     estimated scf accuracy    <       0.03971976 Ry

     total magnetization       =    88.24 Bohr mag/cell
     absolute magnetization    =    89.87 Bohr mag/cell

     iteration # 41     ecut=    50.00 Ry     beta= 0.10
     Davidson diagonalization with overlap
     ethr =  3.63E-06,  avg # of iterations = 23.0

     negative rho (up, down):  1.542E-02 1.734E-02
 
     Adding external electric field

     Computed dipole along edir(3) : 
        Dipole                0.7325 Ry au,          1.8618 Debye
        Dipole field          0.0004 Ry au, 
 
        Potential amp.       -0.0495 Ry
        Total length         55.1515 bohr
 
 
     Adding external electric field

     Computed dipole along edir(3) : 
        Dipole                0.7325 Ry au,          1.8618 Debye
        Dipole field          0.0004 Ry au, 
 
        Potential amp.       -0.0495 Ry
        Total length         55.1515 bohr
 

     total cpu time spent up to now is      591.9 secs

     total energy              =   -7738.30447075 Ry
     estimated scf accuracy    <       0.14702237 Ry

     total magnetization       =    88.56 Bohr mag/cell
     absolute magnetization    =    90.06 Bohr mag/cell

     iteration # 42     ecut=    50.00 Ry     beta= 0.10
     Davidson diagonalization with overlap
     ethr =  3.63E-06,  avg # of iterations =  3.5

     negative rho (up, down):  1.916E-02 2.184E-02
 
     Adding external electric field

     Computed dipole along edir(3) : 
        Dipole                0.7986 Ry au,          2.0297 Debye
        Dipole field          0.0005 Ry au, 
 
        Potential amp.       -0.0539 Ry
        Total length         55.1515 bohr
 
 
     Adding external electric field

     Computed dipole along edir(3) : 
        Dipole                0.7986 Ry au,          2.0297 Debye
        Dipole field          0.0005 Ry au, 
 
        Potential amp.       -0.0539 Ry
        Total length         55.1515 bohr
 

     total cpu time spent up to now is      605.7 secs

     total energy              =   -7738.30447189 Ry
     estimated scf accuracy    <       0.10478473 Ry

     total magnetization       =    88.59 Bohr mag/cell
     absolute magnetization    =    89.96 Bohr mag/cell

     iteration # 43     ecut=    50.00 Ry     beta= 0.10
     Davidson diagonalization with overlap
     ethr =  3.63E-06,  avg # of iterations = 11.0

     negative rho (up, down):  1.016E-02 1.137E-02
 
     Adding external electric field

     Computed dipole along edir(3) : 
        Dipole                0.5373 Ry au,          1.3657 Debye
        Dipole field          0.0003 Ry au, 
 
        Potential amp.       -0.0363 Ry
        Total length         55.1515 bohr
 
 
     Adding external electric field

     Computed dipole along edir(3) : 
        Dipole                0.5373 Ry au,          1.3657 Debye
        Dipole field          0.0003 Ry au, 
 
        Potential amp.       -0.0363 Ry
        Total length         55.1515 bohr
 

     total cpu time spent up to now is      622.9 secs

     total energy              =   -7738.30226372 Ry
     estimated scf accuracy    <       0.11894473 Ry

     total magnetization       =    88.57 Bohr mag/cell
     absolute magnetization    =    90.04 Bohr mag/cell

     iteration # 44     ecut=    50.00 Ry     beta= 0.10
     Davidson diagonalization with overlap
     ethr =  3.63E-06,  avg # of iterations =  3.0

     negative rho (up, down):  1.001E-02 1.109E-02
 
     Adding external electric field

     Computed dipole along edir(3) : 
        Dipole                0.4932 Ry au,          1.2535 Debye
        Dipole field          0.0003 Ry au, 
 
        Potential amp.       -0.0333 Ry
        Total length         55.1515 bohr
 
 
     Adding external electric field

     Computed dipole along edir(3) : 
        Dipole                0.4932 Ry au,          1.2535 Debye
        Dipole field          0.0003 Ry au, 
 
        Potential amp.       -0.0333 Ry
        Total length         55.1515 bohr
 

     total cpu time spent up to now is      635.8 secs

     total energy              =   -7738.30245022 Ry
     estimated scf accuracy    <       0.04099859 Ry

     total magnetization       =    88.58 Bohr mag/cell
     absolute magnetization    =    90.02 Bohr mag/cell

     iteration # 45     ecut=    50.00 Ry     beta= 0.10
     Davidson diagonalization with overlap
     ethr =  3.63E-06,  avg # of iterations =  2.0

     negative rho (up, down):  7.833E-03 8.603E-03
 
     Adding external electric field

     Computed dipole along edir(3) : 
        Dipole                0.4508 Ry au,          1.1457 Debye
        Dipole field          0.0003 Ry au, 
 
        Potential amp.       -0.0304 Ry
        Total length         55.1515 bohr
 
 
     Adding external electric field

     Computed dipole along edir(3) : 
        Dipole                0.4508 Ry au,          1.1457 Debye
        Dipole field          0.0003 Ry au, 
 
        Potential amp.       -0.0304 Ry
        Total length         55.1515 bohr
 

     total cpu time spent up to now is      648.3 secs

     total energy              =   -7738.30244958 Ry
     estimated scf accuracy    <       0.02190262 Ry

     total magnetization       =    88.49 Bohr mag/cell
     absolute magnetization    =    89.97 Bohr mag/cell

     iteration # 46     ecut=    50.00 Ry     beta= 0.10
     Davidson diagonalization with overlap
     c_bands:  3 eigenvalues not converged
     ethr =  2.00E-06,  avg # of iterations = 16.0

     negative rho (up, down):  1.167E-03 1.444E-03
 
     Adding external electric field

     Computed dipole along edir(3) : 
        Dipole                0.3280 Ry au,          0.8336 Debye
        Dipole field          0.0002 Ry au, 
 
        Potential amp.       -0.0221 Ry
        Total length         55.1515 bohr
 
 
     Adding external electric field

     Computed dipole along edir(3) : 
        Dipole                0.3280 Ry au,          0.8336 Debye
        Dipole field          0.0002 Ry au, 
 
        Potential amp.       -0.0221 Ry
        Total length         55.1515 bohr
 

     total cpu time spent up to now is      668.4 secs

     total energy              =   -7738.30139915 Ry
     estimated scf accuracy    <       0.01574870 Ry

     total magnetization       =    88.52 Bohr mag/cell
     absolute magnetization    =    89.97 Bohr mag/cell

     iteration # 47     ecut=    50.00 Ry     beta= 0.10
     Davidson diagonalization with overlap
     c_bands:  1 eigenvalues not converged
     c_bands:  4 eigenvalues not converged
     ethr =  1.44E-06,  avg # of iterations = 20.0

     negative rho (up, down):  2.529E-04 3.965E-04
 
     Adding external electric field

     Computed dipole along edir(3) : 
        Dipole                0.2997 Ry au,          0.7618 Debye
        Dipole field          0.0002 Ry au, 
 
        Potential amp.       -0.0202 Ry
        Total length         55.1515 bohr
 
 
     Adding external electric field

     Computed dipole along edir(3) : 
        Dipole                0.2997 Ry au,          0.7618 Debye
        Dipole field          0.0002 Ry au, 
 
        Potential amp.       -0.0202 Ry
        Total length         55.1515 bohr
 

     total cpu time spent up to now is      690.3 secs

     total energy              =   -7738.30132432 Ry
     estimated scf accuracy    <       0.00801418 Ry

     total magnetization       =    88.40 Bohr mag/cell
     absolute magnetization    =    89.88 Bohr mag/cell

     iteration # 48     ecut=    50.00 Ry     beta= 0.10
     Davidson diagonalization with overlap
     c_bands:  1 eigenvalues not converged
     ethr =  7.33E-07,  avg # of iterations = 11.0

     negative rho (up, down):  2.591E-05 5.433E-05
 
     Adding external electric field

     Computed dipole along edir(3) : 
        Dipole                0.2664 Ry au,          0.6771 Debye
        Dipole field          0.0002 Ry au, 
 
        Potential amp.       -0.0180 Ry
        Total length         55.1515 bohr
 
 
     Adding external electric field

     Computed dipole along edir(3) : 
        Dipole                0.2664 Ry au,          0.6771 Debye
        Dipole field          0.0002 Ry au, 
 
        Potential amp.       -0.0180 Ry
        Total length         55.1515 bohr
 

     total cpu time spent up to now is      707.6 secs

     total energy              =   -7738.30136501 Ry
     estimated scf accuracy    <       0.00784555 Ry

     total magnetization       =    88.34 Bohr mag/cell
     absolute magnetization    =    89.82 Bohr mag/cell

     iteration # 49     ecut=    50.00 Ry     beta= 0.10
     Davidson diagonalization with overlap
     ethr =  7.18E-07,  avg # of iterations =  2.0

     negative rho (up, down):  4.564E-06 1.063E-05
 
     Adding external electric field

     Computed dipole along edir(3) : 
        Dipole                0.2848 Ry au,          0.7238 Debye
        Dipole field          0.0002 Ry au, 
 
        Potential amp.       -0.0192 Ry
        Total length         55.1515 bohr
 
 
     Adding external electric field

     Computed dipole along edir(3) : 
        Dipole                0.2848 Ry au,          0.7238 Debye
        Dipole field          0.0002 Ry au, 
 
        Potential amp.       -0.0192 Ry
        Total length         55.1515 bohr
 

     total cpu time spent up to now is      720.2 secs

     total energy              =   -7738.30162448 Ry
     estimated scf accuracy    <       0.00489958 Ry

     total magnetization       =    88.26 Bohr mag/cell
     absolute magnetization    =    89.72 Bohr mag/cell

     iteration # 50     ecut=    50.00 Ry     beta= 0.10
     Davidson diagonalization with overlap
     ethr =  4.48E-07,  avg # of iterations =  2.0

     negative rho (up, down):  4.639E-06 9.539E-06
 
     Adding external electric field

     Computed dipole along edir(3) : 
        Dipole                0.2812 Ry au,          0.7147 Debye
        Dipole field          0.0002 Ry au, 
 
        Potential amp.       -0.0190 Ry
        Total length         55.1515 bohr
 
 
     Adding external electric field

     Computed dipole along edir(3) : 
        Dipole                0.2812 Ry au,          0.7147 Debye
        Dipole field          0.0002 Ry au, 
 
        Potential amp.       -0.0190 Ry
        Total length         55.1515 bohr
 

     total cpu time spent up to now is      733.1 secs

     total energy              =   -7738.30179117 Ry
     estimated scf accuracy    <       0.00813521 Ry

     total magnetization       =    88.37 Bohr mag/cell
     absolute magnetization    =    89.75 Bohr mag/cell

     iteration # 51     ecut=    50.00 Ry     beta= 0.10
     Davidson diagonalization with overlap
     ethr =  4.48E-07,  avg # of iterations =  2.0

     negative rho (up, down):  3.625E-06 3.151E-06
 
     Adding external electric field

     Computed dipole along edir(3) : 
        Dipole                0.3310 Ry au,          0.8414 Debye
        Dipole field          0.0002 Ry au, 
 
        Potential amp.       -0.0224 Ry
        Total length         55.1515 bohr
 
 
     Adding external electric field

     Computed dipole along edir(3) : 
        Dipole                0.3310 Ry au,          0.8414 Debye
        Dipole field          0.0002 Ry au, 
 
        Potential amp.       -0.0224 Ry
        Total length         55.1515 bohr
 

     total cpu time spent up to now is      745.6 secs

     total energy              =   -7738.30189118 Ry
     estimated scf accuracy    <       0.00319217 Ry

     total magnetization       =    88.29 Bohr mag/cell
     absolute magnetization    =    89.68 Bohr mag/cell

     iteration # 52     ecut=    50.00 Ry     beta= 0.10
     Davidson diagonalization with overlap
     ethr =  2.92E-07,  avg # of iterations =  2.0

     negative rho (up, down):  8.286E-06 4.067E-06
 
     Adding external electric field

     Computed dipole along edir(3) : 
        Dipole                0.3361 Ry au,          0.8542 Debye
        Dipole field          0.0002 Ry au, 
 
        Potential amp.       -0.0227 Ry
        Total length         55.1515 bohr
 
 
     Adding external electric field

     Computed dipole along edir(3) : 
        Dipole                0.3361 Ry au,          0.8542 Debye
        Dipole field          0.0002 Ry au, 
 
        Potential amp.       -0.0227 Ry
        Total length         55.1515 bohr
 

     total cpu time spent up to now is      758.0 secs

     total energy              =   -7738.30182344 Ry
     estimated scf accuracy    <       0.00202533 Ry

     total magnetization       =    88.28 Bohr mag/cell
     absolute magnetization    =    89.65 Bohr mag/cell

     iteration # 53     ecut=    50.00 Ry     beta= 0.10
     Davidson diagonalization with overlap
     ethr =  1.85E-07,  avg # of iterations =  2.0

     negative rho (up, down):  1.746E-05 9.034E-06
 
     Adding external electric field

     Computed dipole along edir(3) : 
        Dipole                0.3338 Ry au,          0.8485 Debye
        Dipole field          0.0002 Ry au, 
 
        Potential amp.       -0.0225 Ry
        Total length         55.1515 bohr
 
 
     Adding external electric field

     Computed dipole along edir(3) : 
        Dipole                0.3338 Ry au,          0.8485 Debye
        Dipole field          0.0002 Ry au, 
 
        Potential amp.       -0.0225 Ry
        Total length         55.1515 bohr
 

     total cpu time spent up to now is      770.8 secs

     total energy              =   -7738.30175619 Ry
     estimated scf accuracy    <       0.00169997 Ry

     total magnetization       =    88.29 Bohr mag/cell
     absolute magnetization    =    89.65 Bohr mag/cell

     iteration # 54     ecut=    50.00 Ry     beta= 0.10
     Davidson diagonalization with overlap
     ethr =  1.56E-07,  avg # of iterations =  2.0

     negative rho (up, down):  3.357E-05 1.864E-05
 
     Adding external electric field

     Computed dipole along edir(3) : 
        Dipole                0.3493 Ry au,          0.8879 Debye
        Dipole field          0.0002 Ry au, 
 
        Potential amp.       -0.0236 Ry
        Total length         55.1515 bohr
 
 
     Adding external electric field

     Computed dipole along edir(3) : 
        Dipole                0.3493 Ry au,          0.8879 Debye
        Dipole field          0.0002 Ry au, 
 
        Potential amp.       -0.0236 Ry
        Total length         55.1515 bohr
 

     total cpu time spent up to now is      783.4 secs

     total energy              =   -7738.30174679 Ry
     estimated scf accuracy    <       0.00175834 Ry

     total magnetization       =    88.32 Bohr mag/cell
     absolute magnetization    =    89.66 Bohr mag/cell

     iteration # 55     ecut=    50.00 Ry     beta= 0.10
     Davidson diagonalization with overlap
     ethr =  1.56E-07,  avg # of iterations =  6.5

     negative rho (up, down):  1.274E-04 5.621E-05
 
     Adding external electric field

     Computed dipole along edir(3) : 
        Dipole                0.4296 Ry au,          1.0919 Debye
        Dipole field          0.0003 Ry au, 
 
        Potential amp.       -0.0290 Ry
        Total length         55.1515 bohr
 
 
     Adding external electric field

     Computed dipole along edir(3) : 
        Dipole                0.4296 Ry au,          1.0919 Debye
        Dipole field          0.0003 Ry au, 
 
        Potential amp.       -0.0290 Ry
        Total length         55.1515 bohr
 

     total cpu time spent up to now is      798.1 secs

     total energy              =   -7738.30184567 Ry
     estimated scf accuracy    <       0.00113329 Ry

     total magnetization       =    88.30 Bohr mag/cell
     absolute magnetization    =    89.63 Bohr mag/cell

     iteration # 56     ecut=    50.00 Ry     beta= 0.10
     Davidson diagonalization with overlap
     ethr =  1.04E-07,  avg # of iterations =  2.0

     negative rho (up, down):  2.397E-04 1.381E-04
 
     Adding external electric field

     Computed dipole along edir(3) : 
        Dipole                0.4490 Ry au,          1.1412 Debye
        Dipole field          0.0003 Ry au, 
 
        Potential amp.       -0.0303 Ry
        Total length         55.1515 bohr
 
 
     Adding external electric field

     Computed dipole along edir(3) : 
        Dipole                0.4490 Ry au,          1.1412 Debye
        Dipole field          0.0003 Ry au, 
 
        Potential amp.       -0.0303 Ry
        Total length         55.1515 bohr
 

     total cpu time spent up to now is      810.7 secs

     total energy              =   -7738.30197716 Ry
     estimated scf accuracy    <       0.00109950 Ry

     total magnetization       =    88.35 Bohr mag/cell
     absolute magnetization    =    89.67 Bohr mag/cell

     iteration # 57     ecut=    50.00 Ry     beta= 0.10
     Davidson diagonalization with overlap
     ethr =  1.01E-07,  avg # of iterations =  2.0

     negative rho (up, down):  4.651E-04 3.392E-04
 
     Adding external electric field

     Computed dipole along edir(3) : 
        Dipole                0.4712 Ry au,          1.1977 Debye
        Dipole field          0.0003 Ry au, 
 
        Potential amp.       -0.0318 Ry
        Total length         55.1515 bohr
 
 
     Adding external electric field

     Computed dipole along edir(3) : 
        Dipole                0.4712 Ry au,          1.1977 Debye
        Dipole field          0.0003 Ry au, 
 
        Potential amp.       -0.0318 Ry
        Total length         55.1515 bohr
 

     total cpu time spent up to now is      823.0 secs

     total energy              =   -7738.30205825 Ry
     estimated scf accuracy    <       0.00036572 Ry

     total magnetization       =    88.31 Bohr mag/cell
     absolute magnetization    =    89.63 Bohr mag/cell

     iteration # 58     ecut=    50.00 Ry     beta= 0.10
     Davidson diagonalization with overlap
     ethr =  3.35E-08,  avg # of iterations =  2.0

     negative rho (up, down):  6.385E-04 4.969E-04
 
     Adding external electric field

     Computed dipole along edir(3) : 
[...]
    -5.9162  -5.8983  -5.8838  -5.8756  -5.8624  -5.8423  -5.8340  -5.8047
    -5.7775  -5.7707  -5.7317  -5.7209  -5.7048  -5.6760  -5.6673  -5.6486
    -5.6298  -5.5989  -5.5517  -5.5500  -5.5252  -5.4956  -5.4798  -5.4696
    -5.4653  -5.4333  -5.4273  -5.3994  -5.3821  -5.3662  -5.3522  -5.3240
    -5.2067  -5.1955  -5.1808  -5.1743  -5.1596  -5.1343  -5.0710  -5.0248
    -5.0091  -4.9899  -4.9464  -4.9193  -4.9076  -4.8896  -4.8561  -4.8131
    -4.7915  -4.7365  -4.7258  -4.7100  -4.6712  -4.6532  -4.6226  -4.5463
    -4.5429  -4.4728  -4.4586  -4.4001  -4.3932  -4.3750  -4.3352  -4.3272
    -4.3106  -4.2483  -4.1893  -4.1790  -4.1429  -4.1162  -4.0980  -4.0715
    -4.0632  -4.0388  -4.0369  -3.9649  -3.9193  -3.8986  -3.8877  -3.8476
    -3.8289  -3.8075  -3.7670  -3.7566  -3.7496  -3.7181  -3.6967  -3.6578
    -3.6325  -3.5851  -3.5829  -3.5775  -3.5567  -3.5369  -3.5343  -3.5150
    -3.4994  -3.4770  -3.4558  -3.4495  -3.4409  -3.4271  -3.4023  -3.3885
    -3.3606  -3.3564  -3.3410  -3.3113  -3.3051  -3.2663  -3.2516  -3.2055
    -3.1996  -3.1889  -3.1833  -3.1638  -3.1546  -3.1020  -3.0774  -3.0536
    -3.0311  -3.0132  -3.0081  -2.9981  -2.9949  -2.9832  -2.9660  -2.9282
    -2.9105  -2.8975  -2.8739  -2.8331  -2.8278  -2.8186  -2.7791  -2.7637
    -2.7408  -2.7282  -2.7125  -2.6990  -2.6954  -2.6754  -2.6616  -2.6523
    -2.6351  -2.6291  -2.6213  -2.5998  -2.5901  -2.5798  -2.5724  -2.5583
    -2.5414  -2.5283  -2.5129  -2.4924  -2.4746  -2.4682  -2.4452  -2.4355
    -2.4069  -2.3987  -2.3738  -2.3489  -2.3121  -2.2981  -2.2767  -2.2554
    -2.2449  -2.2296  -2.2081  -2.1676  -2.1552  -2.1352  -2.1239  -2.0993
    -2.0960  -2.0742  -2.0653  -2.0529  -2.0394  -2.0164  -1.9984  -1.9520
    -1.9379  -1.9091  -1.9047  -1.8969  -1.8852  -1.8754  -1.8431  -1.8194
    -1.8088  -1.7938  -1.7760  -1.7692  -1.7573  -1.7476  -1.7304  -1.7112
    -1.6887  -1.6607  -1.6422  -1.6053  -1.5971  -1.5798  -1.5580  -1.5411
    -1.5289  -1.4953  -1.4748  -1.4575  -1.4493  -1.4407  -1.4146  -1.3900
    -1.3835  -1.3727  -1.3512  -1.3421  -1.3175  -1.3020  -1.2468  -1.2412
    -1.2233  -1.2124  -1.1934  -1.1548  -1.1471  -1.0823  -1.0403  -1.0193
    -0.9792  -0.8749  -0.8551  -0.8171  -0.7484  -0.6837  -0.6652  -0.4488
    -0.2847  -0.2383  -0.2095  -0.1062   0.2167   0.2496   0.2715   0.2804
     0.2850   0.3019   0.3346   0.3442   0.3692   0.3820   0.3944   0.3999
     0.4062   0.4191   0.4283   0.4349   0.4426   0.4545   0.4616   0.4708
     0.4774   0.4880   0.4883   0.4965   0.5018   0.5125   0.5144   0.5251
     0.5413   0.5442   0.5536   0.5598   0.5650   0.5698   0.5734   0.5988
     0.6059   0.6083   0.6156   0.6195   0.6335   0.6463   0.6477   0.6504
     0.6657   0.6693   0.6728   0.6828   0.6848   0.7052   0.7096   0.7130
     0.7218   0.7274   0.7301   0.7396   0.7573   0.7690   0.7813   0.7848
     0.7926   0.7970   0.8061   0.8293   0.8341   0.8441   0.8479   0.8507
     0.8620   0.8655   0.8839   0.8993   0.9017   0.9071   0.9189   0.9231
     0.9312   0.9599   0.9698   0.9846   0.9850   0.9873   0.9910   1.0165
     1.0547   1.1303   1.1325   1.2311   1.2532   1.7023   1.7807   1.7887
     1.7940   1.8094   1.8203   1.8370   1.8471   1.8593   1.9428   1.9592
     1.9714   1.9919   2.0167   2.0408   2.0523   2.0810   2.0956   2.1465
     2.1556   2.1717   2.1828   2.2094   2.2226   2.2380   2.2528   2.2684
     2.2794   2.3031   2.3211   2.3375   2.3472   2.3616   2.3913   2.3990
     2.4113   2.4134   2.4614   2.4616   2.4912   2.5091   2.5170   2.5223
     2.5327   2.5393   2.5590   2.5697   2.5879   2.6205   2.6271   2.6455
     2.6669   2.6719   2.6843   2.7424   2.8101   2.8269   2.8834   2.8943
     2.9013   2.9417   3.5173   3.5528   3.6021   3.6334   3.7628   3.7913
     3.8772   3.8904   3.9016   3.9506   3.9634   4.0179   4.1008   4.1088
     4.1180   4.1410   4.1661   4.1712   4.1931   4.2073   4.6769   4.7953
     4.8475   4.8823   4.9506   4.9652   4.9990   5.0537   5.0617   5.1357
     5.1368   5.1949   5.4387   6.3014   6.3922   6.5288   6.6408   6.7348
     6.8158   6.8668   6.9203   6.9643   7.0021   7.0815   7.1503   7.2172
     7.2947   7.3589   7.4078   7.4204   7.4680   7.5054   7.6485   7.6886
     7.7268   7.7632   7.7745   7.8187   7.8632   7.9088   7.9280   7.9683
     8.0256   8.0609   8.0894   8.1174   8.1740   8.1910   8.2126   8.2440
     8.2783   8.3158   8.3708   8.3858   8.4249   8.4357   8.4452   8.4710
     8.4855   8.5121   8.5369   8.5541   8.5900   8.5988   8.6194   8.6723
     8.6951   8.7081   8.7253   8.7476   8.7704   8.8135   8.8398   8.8943

     the Fermi energy is     1.6936 ev

!    total energy              =   -7738.30214848 Ry
     estimated scf accuracy    <       0.00000098 Ry
     smearing contrib. (-TS)   =      -0.02507531 Ry
     internal energy E=F+TS    =   -7738.27707317 Ry

     The total energy is F=E-TS. E is the sum of the following terms:
     one-electron contribution =  -95040.87318704 Ry
     hartree contribution      =   48137.94679146 Ry
     xc contribution           =   -2218.74042349 Ry
     ewald contribution        =   41385.19838826 Ry
     Dispersion Correction     =      -1.80882173 Ry
     electric field correction =       0.00017937 Ry

     total magnetization       =    88.32 Bohr mag/cell
     absolute magnetization    =    89.69 Bohr mag/cell

     convergence has been achieved in  68 iterations

     negative rho (up, down):  1.048E-03 5.888E-04

     Forces acting on atoms (cartesian axes, Ry/au):

     atom    1 type  1   force =     0.02505905   -0.03077400    0.01857840
     atom    2 type  2   force =    -0.01380074   -0.00148978   -0.00996755
     atom    3 type  1   force =    -0.02309942   -0.01849288    0.02001195
     atom    4 type  1   force =     0.00568230    0.00405414   -0.00641452
     atom    5 type  1   force =    -0.00188727    0.00114600   -0.00509336
     atom    6 type  1   force =     0.00203438    0.00766852   -0.00889109
     atom    7 type  3   force =    -0.00772500    0.00116914   -0.01044423
     atom    8 type  3   force =    -0.03499801    0.05415594   -0.08329962
     atom    9 type  3   force =     0.03414203    0.03816553   -0.06429279
     atom   10 type  3   force =    -0.00305074   -0.00248602   -0.01161058
     atom   11 type  4   force =     0.00675820    0.00564483    0.01391463
     atom   12 type  4   force =    -0.00023813   -0.00294594    0.01479845
     atom   13 type  4   force =     0.00193325    0.00167863    0.01735433
     atom   14 type  4   force =    -0.00051228   -0.00126201    0.01277442
     atom   15 type  4   force =    -0.00065760    0.00458639   -0.00200825
     atom   16 type  4   force =    -0.00044740    0.00269196    0.04019645
     atom   17 type  4   force =     0.00173341    0.00815203    0.03770658
     atom   18 type  4   force =     0.00796230   -0.00444299   -0.00053835
     atom   19 type  4   force =     0.00046189    0.01191581    0.00426383
     atom   20 type  4   force =    -0.00965677   -0.02675465   -0.00366949
     atom   21 type  4   force =    -0.01109945   -0.00044000    0.00064648
     atom   22 type  4   force =    -0.03206878    0.00311732    0.00788373
     atom   23 type  4   force =     0.03207487    0.00058346    0.01410434
     atom   24 type  4   force =     0.00701157   -0.03697732    0.00380266
     atom   25 type  4   force =    -0.00311511    0.00168189    0.00392277
     atom   26 type  4   force =     0.01780114   -0.00686258    0.00077442
     atom   27 type  1   force =    -0.00527072   -0.00878274    0.00269394
     atom   28 type  2   force =    -0.01338725   -0.00014680    0.00537126
     atom   29 type  1   force =     0.00302121   -0.00509137   -0.00123051
     atom   30 type  1   force =     0.00251875    0.00495690   -0.00105557
     atom   31 type  1   force =     0.00174313   -0.00465781    0.00039646
     atom   32 type  1   force =    -0.00078753    0.00119778   -0.00165959
     atom   33 type  3   force =    -0.00624003   -0.00191691   -0.00265625
     atom   34 type  3   force =    -0.00801419    0.00261868   -0.00028855
     atom   35 type  3   force =     0.00447823   -0.00068827    0.00276990
     atom   36 type  3   force =     0.00094183   -0.00221051   -0.00386382
     atom   37 type  4   force =     0.00866144    0.00542187    0.00773655
     atom   38 type  4   force =     0.00380290   -0.00088382   -0.01924897
     atom   39 type  4   force =    -0.00156140    0.00361753   -0.00989839
     atom   40 type  4   force =    -0.00141829   -0.00248517    0.00912437
     atom   41 type  4   force =    -0.00140308    0.00343987   -0.00680103
     atom   42 type  4   force =    -0.00425479   -0.00458042    0.01802631
     atom   43 type  4   force =     0.00768003    0.00337960    0.00771810
     atom   44 type  4   force =     0.00987759   -0.00557247   -0.00577241
     atom   45 type  4   force =     0.00284272    0.00468716    0.00056242
     atom   46 type  4   force =     0.00231451   -0.00008092   -0.00560385
     atom   47 type  4   force =    -0.01286285   -0.00023458   -0.00367048
     atom   48 type  4   force =    -0.01464076    0.00126524    0.00339856
     atom   49 type  4   force =     0.01350883    0.00252197    0.00441482
     atom   50 type  4   force =    -0.00271693   -0.00490350   -0.00047568
     atom   51 type  4   force =    -0.00527504    0.00153734    0.00053010
     atom   52 type  4   force =     0.01532567   -0.00408004   -0.00445399
     atom   53 type  1   force =    -0.00001853   -0.00030733    0.00008786
     atom   54 type  2   force =    -0.00012243   -0.00035122   -0.00046579
     atom   55 type  1   force =    -0.00003871   -0.00019990   -0.00005218
     atom   56 type  1   force =    -0.00016177   -0.00006654   -0.00028993
     atom   57 type  1   force =    -0.00060767    0.00059138    0.00020498
     atom   58 type  1   force =     0.00057710    0.00065589   -0.00025962
     atom   59 type  3   force =     0.00030798    0.00034872   -0.00040084
     atom   60 type  3   force =     0.00009034   -0.00007378    0.00022522
     atom   61 type  3   force =     0.00020955   -0.00022065    0.00001407
     atom   62 type  3   force =    -0.00052493   -0.00046599    0.00053339
     atom   63 type  4   force =     0.00038735    0.00017993   -0.00006364
     atom   64 type  4   force =     0.00023649   -0.00008190    0.00044727
     atom   65 type  4   force =    -0.00026113   -0.00028482    0.00026951
     atom   66 type  4   force =     0.00007039    0.00009774    0.00048734
     atom   67 type  4   force =    -0.00008719   -0.00027843   -0.00044440
     atom   68 type  4   force =     0.00066274    0.00021295    0.00015372
     atom   69 type  4   force =    -0.00047720   -0.00032181    0.00022168
     atom   70 type  4   force =     0.00078669    0.00053399   -0.00031434
     atom   71 type  4   force =    -0.00022426   -0.00031351   -0.00019989
     atom   72 type  4   force =    -0.00042405   -0.00021958   -0.00024266
     atom   73 type  4   force =     0.00026545    0.00030188    0.00010851
     atom   74 type  4   force =    -0.00003768   -0.00034204   -0.00050040
     atom   75 type  4   force =    -0.00020502   -0.00020872   -0.00023512
     atom   76 type  4   force =     0.00003779   -0.00001043   -0.00029672
     atom   77 type  4   force =     0.00026153   -0.00024474    0.00010339
     atom   78 type  4   force =     0.00003960    0.00006048   -0.00020166
     atom   79 type  1   force =     0.02505858   -0.03075700    0.01859970
     atom   80 type  2   force =    -0.01374406   -0.00155910   -0.01000307
     atom   81 type  1   force =    -0.02310977   -0.01850947    0.01999814
     atom   82 type  1   force =     0.00574445    0.00406217   -0.00640438
     atom   83 type  1   force =    -0.00188687    0.00119477   -0.00511184
     atom   84 type  1   force =     0.00207593    0.00763983   -0.00887653
     atom   85 type  3   force =    -0.00773698    0.00117431   -0.01044916
     atom   86 type  3   force =    -0.03499407    0.05414908   -0.08331062
     atom   87 type  3   force =     0.03414660    0.03816616   -0.06429490
     atom   88 type  3   force =    -0.00306290   -0.00247401   -0.01161334
     atom   89 type  4   force =     0.00687683    0.00566071    0.01393371
     atom   90 type  4   force =    -0.00015634   -0.00283603    0.01484187
     atom   91 type  4   force =     0.00202798    0.00167706    0.01732633
     atom   92 type  4   force =    -0.00034029   -0.00126678    0.01276801
     atom   93 type  4   force =    -0.00064373    0.00480385   -0.00189582
     atom   94 type  4   force =    -0.00050814    0.00265106    0.03998154
     atom   95 type  4   force =     0.00186799    0.00815600    0.03770726
     atom   96 type  4   force =     0.00776406   -0.00447575   -0.00052452
     atom   97 type  4   force =     0.00053945    0.01194026    0.00414793
     atom   98 type  4   force =    -0.00955268   -0.02658693   -0.00363605
     atom   99 type  4   force =    -0.01110260   -0.00040674    0.00084481
     atom  100 type  4   force =    -0.03210357    0.00300881    0.00776177
     atom  101 type  4   force =     0.03210479    0.00058732    0.01410878
     atom  102 type  4   force =     0.00684158   -0.03697516    0.00380678
     atom  103 type  4   force =    -0.00302191    0.00162146    0.00389337
     atom  104 type  4   force =     0.01795074   -0.00685930    0.00078222
     atom  105 type  1   force =    -0.00528882   -0.00875112    0.00279287
     atom  106 type  2   force =    -0.01419120   -0.00072496    0.00582271
     atom  107 type  1   force =     0.00301866   -0.00500358   -0.00115666
     atom  108 type  1   force =     0.00384838    0.00355828    0.00197078
     atom  109 type  1   force =     0.00134906   -0.00470121    0.00029229
     atom  110 type  1   force =    -0.00080162    0.00115802   -0.00162398
     atom  111 type  3   force =    -0.00636167   -0.00074932   -0.00037168
     atom  112 type  3   force =    -0.00798244    0.00258468   -0.00024001
     atom  113 type  3   force =     0.00436941   -0.00059126    0.00291253
     atom  114 type  3   force =     0.00094114   -0.00175913   -0.00496614
     atom  115 type  4   force =     0.00833345    0.00487988    0.00727220
     atom  116 type  4   force =     0.00382604   -0.00090895   -0.01925675
     atom  117 type  4   force =    -0.00138027    0.00366738   -0.00992505
     atom  118 type  4   force =    -0.00172933   -0.00243249    0.00915136
     atom  119 type  4   force =    -0.00028731    0.00318828   -0.00612948
     atom  120 type  4   force =    -0.00423052   -0.00462121    0.01805723
     atom  121 type  4   force =     0.00772882    0.00338043    0.00774761
     atom  122 type  4   force =     0.01018729   -0.00488753   -0.00765932
     atom  123 type  4   force =     0.00274891    0.00432014    0.00050565
     atom  124 type  4   force =     0.00224288   -0.00012853   -0.00561124
     atom  125 type  4   force =    -0.01275911   -0.00010063   -0.00355704
     atom  126 type  4   force =    -0.01466433    0.00126203    0.00333708
     atom  127 type  4   force =     0.01354532    0.00245736    0.00456004
     atom  128 type  4   force =    -0.00284254   -0.00491334   -0.00048075
     atom  129 type  4   force =    -0.00504610    0.00149272   -0.00007311
     atom  130 type  4   force =     0.01590641   -0.00427447   -0.00431331
     atom  131 type  1   force =    -0.00019304   -0.00011131   -0.00003453
     atom  132 type  2   force =     0.00021867   -0.00030838   -0.00039894
     atom  133 type  1   force =    -0.00064729    0.00009606    0.00010094
     atom  134 type  1   force =     0.00230553   -0.00165665    0.00212410
     atom  135 type  1   force =    -0.00010172    0.00075040   -0.00042860
     atom  136 type  1   force =     0.00053065    0.00067087    0.00012297
     atom  137 type  3   force =     0.00030725    0.00040349   -0.00039438
     atom  138 type  3   force =    -0.00028608    0.00033464    0.00028729
     atom  139 type  3   force =     0.00018018   -0.00034615    0.00026093
     atom  140 type  3   force =    -0.00032415   -0.00020343   -0.00021855
     atom  141 type  4   force =     0.00024603   -0.00015175    0.00049346
     atom  142 type  4   force =    -0.00032888    0.00036041    0.00033499
     atom  143 type  4   force =    -0.00035749   -0.00029039    0.00035692
     atom  144 type  4   force =    -0.00026192   -0.00028052    0.00007671
     atom  145 type  4   force =     0.00013304   -0.00032750   -0.00064554
     atom  146 type  4   force =     0.00068796   -0.00040895    0.00007652
     atom  147 type  4   force =     0.00005671    0.00004559    0.00039263
     atom  148 type  4   force =     0.00029510   -0.00065439   -0.00070046
     atom  149 type  4   force =    -0.00059498    0.00011174    0.00034563
     atom  150 type  4   force =    -0.00041884   -0.00036313   -0.00021769
     atom  151 type  4   force =    -0.00041664    0.00029655   -0.00017764
     atom  152 type  4   force =     0.00022524   -0.00033883   -0.00044805
     atom  153 type  4   force =    -0.00062831   -0.00033456    0.00003781
     atom  154 type  4   force =     0.00050093    0.00011372   -0.00007028
     atom  155 type  4   force =     0.00062771    0.00031904    0.00018810
     atom  156 type  4   force =     0.00000582    0.00031341   -0.00037952
     atom  157 type  4   force =    -0.01383642   -0.00719861   -0.00643976
     atom  158 type  5   force =     0.01063525    0.00716699    0.00245807

     Total force =     0.263441     Total SCF correction =     0.003551
 
     init_run     :      7.48s CPU      8.08s WALL (       1 calls)
     electrons    :    903.31s CPU    946.49s WALL (       1 calls)
     forces       :      4.02s CPU      4.33s WALL (       1 calls)
     force_london :      0.10s CPU      0.10s WALL (       1 calls)

     Called by init_run:
     wfcinit      :      4.38s CPU      4.54s WALL (       1 calls)
     potinit      :      0.53s CPU      0.75s WALL (       1 calls)
     hinit0       :      1.34s CPU      1.42s WALL (       1 calls)

     Called by electrons:
     c_bands      :    717.89s CPU    743.00s WALL (      68 calls)
     sum_band     :    115.96s CPU    125.62s WALL (      68 calls)
     v_of_rho     :     15.18s CPU     16.37s WALL (      69 calls)
     newd         :     36.82s CPU     43.95s WALL (      69 calls)
     mix_rho      :     16.83s CPU     16.90s WALL (      68 calls)
     energy_londo :      0.09s CPU      0.09s WALL (       1 calls)

     Called by c_bands:
     init_us_2    :      1.72s CPU      1.76s WALL (     276 calls)
     init_us_2:cp :      1.72s CPU      1.76s WALL (     276 calls)
     regterg      :    704.09s CPU    729.06s WALL (     142 calls)

     Called by *egterg:
     rdiaghg      :    202.80s CPU    216.19s WALL (     672 calls)
     h_psi        :    262.61s CPU    268.01s WALL (     674 calls)
     s_psi        :     44.20s CPU     44.24s WALL (     674 calls)
     g_psi        :      0.32s CPU      0.32s WALL (     530 calls)

     Called by h_psi:
     h_psi:calbec :     70.73s CPU     74.94s WALL (     674 calls)
     vloc_psi     :    146.25s CPU    146.88s WALL (     674 calls)
     add_vuspsi   :     45.10s CPU     45.63s WALL (     674 calls)

     General routines
     calbec       :    103.36s CPU    109.63s WALL (     818 calls)
     fft          :     20.59s CPU     22.42s WALL (    1255 calls)
     ffts         :     10.24s CPU     10.27s WALL (    8447 calls)
     fftw         :    167.11s CPU    167.83s WALL (  238422 calls)
     interpolate  :      1.26s CPU      1.56s WALL (     138 calls)
 
     Parallel routines
 
     PWSCF        :  15m17.02s CPU  16m 1.43s WALL

 
   This run was terminated on:  21:18: 6  17Nov2025            

=------------------------------------------------------------------------------=
   JOB DONE.
=------------------------------------------------------------------------------=
