
     Program PWSCF v.7.2 starts on 17Nov2025 at 22:12:13 

     This program is part of the open-source Quantum ESPRESSO suite
     for quantum simulation of materials; please cite
         "P. Giannozzi et al., J. Phys.:Condens. Matter 21 395502 (2009);
         "P. Giannozzi et al., J. Phys.:Condens. Matter 29 465901 (2017);
         "P. Giannozzi et al., J. Chem. Phys. 152 154105 (2020);
          URL http://www.quantum-espresso.org", 
     in publications or presentations arising from this work. More details at
     http://www.quantum-espresso.org/quote

     Parallel version (MPI), running on    64 processors

     MPI processes distributed on     4 nodes
     470927 MiB available memory on the printing compute node when the environment starts
 
     Reading input from PWINPUT_atm157_zp

     Current dimensions of program PWSCF are:
     Max number of different atomic species (ntypx) = 10
     Max number of k-points (npk) =  40000
     Max angular momentum in pseudopotentials (lmaxx) =  4
     Presently no symmetry can be used with electric field

     file Ni.pbe-n-rrkjus_psl.1.0.0.UPF: wavefunction(s)  3D renormalized
     file Mn.pbe-spn-rrkjus_psl.0.3.1.UPF: wavefunction(s)  3D renormalized
     file O.pbe-rrkjus.UPF: wavefunction(s)  2S renormalized
     file H.pbe-rrkjus.UPF: wavefunction(s)  1S renormalized

     gamma-point specific algorithms are used
 
     R & G space division:  proc/nbgrp/npool/nimage =      64
     Subspace diagonalization in iterative solution of the eigenvalue problem:
     one sub-group per band group will be used
     custom distributed-memory algorithm (size of sub-group:  7*  7 procs)

 
     Parallelization info
     --------------------
     sticks:   dense  smooth     PW     G-vecs:    dense   smooth      PW
     Min         207      82     20                60552    15302    1896
     Max         210      84     22                60574    15336    1950
     Sum       13325    5345   1333              3876045   980655  122653
 
     Using Slab Decomposition
 


     bravais-lattice index     =            0
     lattice parameter (alat)  =      17.4067  a.u.
     unit-cell volume          =   20529.8182 (a.u.)^3
     number of atoms/cell      =          158
     number of atomic types    =            5
     number of electrons       =      1093.00
     number of Kohn-Sham states=          656
     kinetic-energy cutoff     =      50.0000  Ry
     charge density cutoff     =     500.0000  Ry
     scf convergence threshold =      1.0E-06
     mixing beta               =       0.1000
     number of iterations used =            8  local-TF  mixing
     Exchange-correlation=  SLA  PW   PBE  PBE
                           (   1   4   3   4   0   0   0)

     celldm(1)=  17.406729  celldm(2)=   0.000000  celldm(3)=   0.000000
     celldm(4)=   0.000000  celldm(5)=   0.000000  celldm(6)=   0.000000

     crystal axes: (cart. coord. in units of alat)
               a(1) = (   1.000000   0.000000   0.000000 )  
               a(2) = (  -0.001404   1.105696   0.000000 )  
               a(3) = (   0.000000   0.000000   3.520448 )  

     reciprocal axes: (cart. coord. in units 2 pi/alat)
               b(1) = (  1.000000  0.001270  0.000000 )  
               b(2) = (  0.000000  0.904408  0.000000 )  
               b(3) = (  0.000000  0.000000  0.284055 )  


     PseudoPot. # 1 for Ni read from file:
     ~/PSEUDO/Ni.pbe-n-rrkjus_psl.1.0.0.UPF
     MD5 check sum: Not computed, couldn't open file
     Pseudo is Ultrasoft + core correction, Zval = 10.0
     Generated using "atomic" code by A. Dal Corso  v.5.1.2
     Using radial grid of 1195 points,  6 beta functions with: 
                l(1) =   0
                l(2) =   0
                l(3) =   1
                l(4) =   1
                l(5) =   2
                l(6) =   2
     Q(r) pseudized with 0 coefficients 


     PseudoPot. # 2 for Mn read from file:
     ~/PSEUDO/Mn.pbe-spn-rrkjus_psl.0.3.1.UPF
     MD5 check sum: Not computed, couldn't open file
     Pseudo is Ultrasoft + core correction, Zval = 15.0
     Generated using &quot;atomic&quot; code by A. Dal Corso  v.6.2.2
     Using radial grid of 1187 points,  6 beta functions with: 
                l(1) =   0
                l(2) =   0
                l(3) =   1
                l(4) =   1
                l(5) =   2
                l(6) =   2
     Q(r) pseudized with 0 coefficients 


     PseudoPot. # 3 for P  read from file:
     ~/PSEUDO/P.pbe-n-rrkjus_psl.1.0.0.UPF
     MD5 check sum: Not computed, couldn't open file
     Pseudo is Ultrasoft + core correction, Zval =  5.0
     Generated using "atomic" code by A. Dal Corso  v.5.1
     Using radial grid of 1147 points,  6 beta functions with: 
                l(1) =   0
                l(2) =   0
                l(3) =   1
                l(4) =   1
                l(5) =   2
                l(6) =   2
     Q(r) pseudized with 0 coefficients 


     PseudoPot. # 4 for O  read from file:
     ~/PSEUDO/O.pbe-rrkjus.UPF
     MD5 check sum: Not computed, couldn't open file
     Pseudo is Ultrasoft, Zval =  6.0
     Generated by new atomic code, or converted to UPF format
     Using radial grid of 1269 points,  4 beta functions with: 
                l(1) =   0
                l(2) =   0
                l(3) =   1
                l(4) =   1
     Q(r) pseudized with 0 coefficients 


     PseudoPot. # 5 for H  read from file:
     ~/PSEUDO/H.pbe-rrkjus.UPF
     MD5 check sum: Not computed, couldn't open file
     Pseudo is Ultrasoft, Zval =  1.0
     Generated by new atomic code, or converted to UPF format
     Using radial grid of 1061 points,  2 beta functions with: 
                l(1) =   0
                l(2) =   0
     Q(r) pseudized with 0 coefficients 


     atomic species   valence    mass     pseudopotential
     Ni               10.00    58.69300     Ni( 1.00)
     Mn               15.00    54.93800     Mn( 1.00)
     P                 5.00    30.97300     P ( 1.00)
     O                 6.00    15.99900     O ( 1.00)
     H                 1.00     1.00790     H ( 1.00)

     Starting magnetic structure 
     atomic species   magnetization
     Ni              1.000
     Mn              1.000
     P               1.000
     O               1.000
     H               0.000

     No symmetry found



   Cartesian axes

     site n.     atom                  positions (alat units)
         1        Ni     tau(   1) = (   0.2421002   0.8609138   0.1302181  )
         2        Mn     tau(   2) = (   0.4924481   0.7886602   0.4655392  )
         3        Ni     tau(   3) = (   0.0052341   0.3031820   0.1284544  )
         4        Ni     tau(   4) = (   0.2570603   0.2374878   0.4617901  )
         5        Ni     tau(   5) = (   0.4976584   1.1048203   0.2964410  )
         6        Ni     tau(   6) = (   0.2495781   0.5440308   0.2953805  )
         7        P      tau(   7) = (   0.2083492   0.9982113   0.4588145  )
         8        P      tau(   8) = (   0.4584476   0.6559264   0.1347090  )
         9        P      tau(   9) = (   0.2889394   0.1031966   0.1319347  )
        10        P      tau(  10) = (   0.0400379   0.4338094   0.4586283  )
        11        O      tau(  11) = (   0.1314218   0.9248062   0.3189972  )
        12        O      tau(  12) = (   0.3797244   0.7272031   0.2742874  )
        13        O      tau(  13) = (   0.3662315   0.1762062   0.2720888  )
        14        O      tau(  14) = (   0.1171240   0.3646150   0.3169340  )
        15        O      tau(  15) = (   0.1510364   0.9068326   0.5881934  )
        16        O      tau(  16) = (   0.3981989   0.7453439   0.0053495  )
        17        O      tau(  17) = (   0.3490561   0.1888693   0.0010856  )
        18        O      tau(  18) = (   0.0982395   0.3475583   0.5894443  )
        19        O      tau(  19) = (   0.0992163   0.5918099   0.4542505  )
        20        O      tau(  20) = (   0.3467441   1.0504690   0.1405000  )
        21        O      tau(  21) = (   0.3739183   0.4303319   0.4477971  )
        22        O      tau(  22) = (   0.1230967   0.1088895   0.1422960  )
        23        O      tau(  23) = (   0.1242901   0.6635968   0.1442928  )
        24        O      tau(  24) = (   0.4011802   0.4971632   0.1376281  )
        25        O      tau(  25) = (   0.1484006   0.0497464   0.4550965  )
        26        O      tau(  26) = (   0.3736100   0.9942556   0.4492158  )
        27        Ni     tau(  27) = (   0.2413539   0.8509941   0.7820408  )
        28        Mn     tau(  28) = (   0.4917018   0.7787406   1.1173619  )
        29        Ni     tau(  29) = (   0.0044877   0.2932623   0.7802771  )
        30        Ni     tau(  30) = (   0.2563139   0.2275682   1.1136128  )
        31        Ni     tau(  31) = (   0.4969120   1.0949007   0.9482637  )
        32        Ni     tau(  32) = (   0.2488318   0.5341111   0.9472032  )
        33        P      tau(  33) = (   0.2076029   0.9882917   1.1106372  )
        34        P      tau(  34) = (   0.4577012   0.6460068   0.7865316  )
        35        P      tau(  35) = (   0.2881931   0.0932770   0.7837574  )
        36        P      tau(  36) = (   0.0392916   0.4238898   1.1104509  )
        37        O      tau(  37) = (   0.1306755   0.9148866   0.9708199  )
        38        O      tau(  38) = (   0.3789780   0.7172835   0.9261101  )
        39        O      tau(  39) = (   0.3654852   0.1662865   0.9239115  )
        40        O      tau(  40) = (   0.1163776   0.3546954   0.9687567  )
        41        O      tau(  41) = (   0.1502901   0.8969129   1.2400160  )
        42        O      tau(  42) = (   0.3974525   0.7354243   0.6571722  )
        43        O      tau(  43) = (   0.3483097   0.1789497   0.6529083  )
        44        O      tau(  44) = (   0.0974932   0.3376387   1.2412670  )
        45        O      tau(  45) = (   0.0984699   0.5818903   1.1060732  )
        46        O      tau(  46) = (   0.3459978   1.0405493   0.7923226  )
        47        O      tau(  47) = (   0.3731719   0.4204123   1.0996198  )
        48        O      tau(  48) = (   0.1223503   0.0989699   0.7941187  )
        49        O      tau(  49) = (   0.1235438   0.6536772   0.7961155  )
        50        O      tau(  50) = (   0.4004339   0.4872435   0.7894508  )
        51        O      tau(  51) = (   0.1476543   0.0398268   1.1069192  )
        52        O      tau(  52) = (   0.3728637   0.9843360   1.1010385  )
        53        Ni     tau(  53) = (   0.2408392   0.8320559   1.4307548  )
        54        Mn     tau(  54) = (   0.4954146   0.7586327   1.7610775  )
        55        Ni     tau(  55) = (   0.0038240   0.2752655   1.4301830  )
        56        Ni     tau(  56) = (   0.2490297   0.2126224   1.7413163  )
        57        Ni     tau(  57) = (   0.5009698   1.0727426   1.5934065  )
        58        Ni     tau(  58) = (   0.2431858   0.5187785   1.5959132  )
        59        P      tau(  59) = (   0.2122300   0.9646931   1.7577827  )
        60        P      tau(  60) = (   0.4560273   0.6255665   1.4349308  )
        61        P      tau(  61) = (   0.2895010   0.0747953   1.4294223  )
        62        P      tau(  62) = (   0.0342753   0.4049908   1.7624825  )
        63        O      tau(  63) = (   0.1360342   0.9011422   1.6115162  )
        64        O      tau(  64) = (   0.3787980   0.6986865   1.5736904  )
        65        O      tau(  65) = (   0.3677510   0.1474149   1.5681507  )
        66        O      tau(  66) = (   0.1091522   0.3445019   1.6130708  )
        67        O      tau(  67) = (   0.1535140   0.8654492   1.8774963  )
        68        O      tau(  68) = (   0.3948076   0.7176264   1.3082772  )
        69        O      tau(  69) = (   0.3502162   0.1643066   1.3009305  )
        70        O      tau(  70) = (   0.0993202   0.3091187   1.8805971  )
        71        O      tau(  71) = (   0.0903777   0.5660296   1.7630811  )
        72        O      tau(  72) = (   0.3492636   1.0227954   1.4341724  )
        73        O      tau(  73) = (   0.3646020   0.4001049   1.7428273  )
        74        O      tau(  74) = (   0.1232632   0.0821777   1.4436547  )
        75        O      tau(  75) = (   0.1218485   0.6357099   1.4465986  )
        76        O      tau(  76) = (   0.3950879   0.4683338   1.4358038  )
        77        O      tau(  77) = (   0.1575600   0.0186245   1.7589158  )
        78        O      tau(  78) = (   0.3794955   0.9564473   1.7469906  )
        79        Ni     tau(  79) = (   0.7421002   0.8609138   0.1302181  )
        80        Mn     tau(  80) = (   0.9924481   0.7886602   0.4655392  )
        81        Ni     tau(  81) = (   0.5052341   0.3031820   0.1284544  )
        82        Ni     tau(  82) = (   0.7570603   0.2374878   0.4617901  )
        83        Ni     tau(  83) = (   0.9976584   1.1048203   0.2964410  )
        84        Ni     tau(  84) = (   0.7495781   0.5440308   0.2953805  )
        85        P      tau(  85) = (   0.7083492   0.9982113   0.4588145  )
        86        P      tau(  86) = (   0.9584476   0.6559264   0.1347090  )
        87        P      tau(  87) = (   0.7889394   0.1031966   0.1319347  )
        88        P      tau(  88) = (   0.5400379   0.4338094   0.4586283  )
        89        O      tau(  89) = (   0.6314218   0.9248062   0.3189972  )
        90        O      tau(  90) = (   0.8797244   0.7272031   0.2742874  )
        91        O      tau(  91) = (   0.8662315   0.1762062   0.2720888  )
        92        O      tau(  92) = (   0.6171240   0.3646150   0.3169340  )
        93        O      tau(  93) = (   0.6510364   0.9068326   0.5881934  )
        94        O      tau(  94) = (   0.8981989   0.7453439   0.0053495  )
        95        O      tau(  95) = (   0.8490561   0.1888693   0.0010856  )
        96        O      tau(  96) = (   0.5982395   0.3475583   0.5894443  )
        97        O      tau(  97) = (   0.5992163   0.5918099   0.4542505  )
        98        O      tau(  98) = (   0.8467441   1.0504690   0.1405000  )
        99        O      tau(  99) = (   0.8739183   0.4303319   0.4477971  )
       100        O      tau( 100) = (   0.6230967   0.1088895   0.1422960  )
       101        O      tau( 101) = (   0.6242901   0.6635968   0.1442928  )
       102        O      tau( 102) = (   0.9011802   0.4971632   0.1376281  )
       103        O      tau( 103) = (   0.6484006   0.0497464   0.4550965  )
       104        O      tau( 104) = (   0.8736100   0.9942556   0.4492158  )
       105        Ni     tau( 105) = (   0.7413539   0.8509941   0.7820408  )
       106        Mn     tau( 106) = (   0.9917018   0.7787406   1.1173619  )
       107        Ni     tau( 107) = (   0.5044877   0.2932623   0.7802771  )
       108        Ni     tau( 108) = (   0.7563139   0.2275682   1.1136128  )
       109        Ni     tau( 109) = (   0.9969120   1.0949007   0.9482637  )
       110        Ni     tau( 110) = (   0.7488318   0.5341111   0.9472032  )
       111        P      tau( 111) = (   0.7076029   0.9882917   1.1106372  )
       112        P      tau( 112) = (   0.9577012   0.6460068   0.7865316  )
       113        P      tau( 113) = (   0.7881931   0.0932770   0.7837574  )
       114        P      tau( 114) = (   0.5392916   0.4238898   1.1104509  )
       115        O      tau( 115) = (   0.6306755   0.9148866   0.9708199  )
       116        O      tau( 116) = (   0.8789780   0.7172835   0.9261101  )
       117        O      tau( 117) = (   0.8654852   0.1662865   0.9239115  )
       118        O      tau( 118) = (   0.6163776   0.3546954   0.9687567  )
       119        O      tau( 119) = (   0.6502901   0.8969129   1.2400160  )
       120        O      tau( 120) = (   0.8974525   0.7354243   0.6571722  )
       121        O      tau( 121) = (   0.8483097   0.1789497   0.6529083  )
       122        O      tau( 122) = (   0.5974932   0.3376387   1.2412670  )
       123        O      tau( 123) = (   0.5984699   0.5818903   1.1060732  )
       124        O      tau( 124) = (   0.8459978   1.0405493   0.7923226  )
       125        O      tau( 125) = (   0.8731719   0.4204123   1.0996198  )
       126        O      tau( 126) = (   0.6223503   0.0989699   0.7941187  )
       127        O      tau( 127) = (   0.6235438   0.6536772   0.7961155  )
       128        O      tau( 128) = (   0.9004339   0.4872435   0.7894508  )
       129        O      tau( 129) = (   0.6476543   0.0398268   1.1069192  )
       130        O      tau( 130) = (   0.8728637   0.9843360   1.1010385  )
       131        Ni     tau( 131) = (   0.7412940   0.8317433   1.4310133  )
       132        Mn     tau( 132) = (   0.9942976   0.7631104   1.7617718  )
       133        Ni     tau( 133) = (   0.5047574   0.2752797   1.4288709  )
       134        Ni     tau( 134) = (   0.7578350   0.2028549   1.7762646  )
       135        Ni     tau( 135) = (   0.9991757   1.0753039   1.5972728  )
       136        Ni     tau( 136) = (   0.7442600   0.5152897   1.5986856  )
       137        P      tau( 137) = (   0.7103622   0.9612778   1.7571285  )
       138        P      tau( 138) = (   0.9553703   0.6259627   1.4358934  )
       139        P      tau( 139) = (   0.7893263   0.0766982   1.4325513  )
       140        P      tau( 140) = (   0.5325678   0.3983667   1.7561030  )
       141        O      tau( 141) = (   0.6347348   0.8960507   1.6104236  )
       142        O      tau( 142) = (   0.8786872   0.6982692   1.5748233  )
       143        O      tau( 143) = (   0.8656120   0.1503721   1.5709854  )
       144        O      tau( 144) = (   0.6103215   0.3431354   1.6091064  )
       145        O      tau( 145) = (   0.6551320   0.8592875   1.8763947  )
       146        O      tau( 146) = (   0.8944353   0.7174045   1.3087138  )
       147        O      tau( 147) = (   0.8496681   0.1651992   1.3026615  )
       148        O      tau( 148) = (   0.5874463   0.2980729   1.8752625  )
       149        O      tau( 149) = (   0.5882302   0.5598447   1.7638488  )
       150        O      tau( 150) = (   0.8489894   1.0242576   1.4369886  )
       151        O      tau( 151) = (   0.8668845   0.4032412   1.7522286  )
       152        O      tau( 152) = (   0.6225444   0.0814235   1.4420664  )
       153        O      tau( 153) = (   0.6223363   0.6337860   1.4464754  )
       154        O      tau( 154) = (   0.8959961   0.4681766   1.4379317  )
       155        O      tau( 155) = (   0.6491461   0.0122190   1.7550753  )
       156        O      tau( 156) = (   0.8775761   0.9554460   1.7441695  )
       157        O      tau( 157) = (   0.8703181   0.1184006   1.9167416  )
       158        H      tau( 158) = (   0.9557521   0.1787018   1.9403932  )

     -------------------------------------------------
     Parameters for Dispersion (Grimme-D2) Correction:
     -------------------------------------------------
       atom      VdW radius       C_6     

        Ni         2.952        374.666
        Mn         2.952        374.666
        P          3.222        271.980
        O          2.536         24.284
        H          1.892          4.857

     number of k points=     1  Gaussian smearing, width (Ry)=  0.0100
                       cart. coord. in units 2pi/alat
        k(    1) = (   0.0000000   0.0000000   0.0000000), wk =   1.0000000

     Dense  grid:  1938023 G-vectors     FFT dimensions: ( 125, 144, 450)

     Smooth grid:   490328 G-vectors     FFT dimensions: (  80,  90, 288)

     Estimated max dynamical RAM per process >     326.29 MB

     Estimated total dynamical RAM >      20.39 GB

     Check: negative core charge=   -0.000001
     Generating pointlists ...
     new r_m :   0.0820 (alat units)  1.4274 (a.u.) for type    1
     new r_m :   0.0904 (alat units)  1.5743 (a.u.) for type    2
     new r_m :   0.0681 (alat units)  1.1857 (a.u.) for type    3
     new r_m :   0.0442 (alat units)  0.7698 (a.u.) for type    4
     new r_m :   0.0442 (alat units)  0.7698 (a.u.) for type    5

     Initial potential from superposition of free atoms

     starting charge    1092.8893, renormalised to    1093.0000

     negative rho (up, down):  1.375E-03 4.556E-04
 
     Adding external electric field

     Computed dipole along edir(3) : 
        Dipole                1.6484 Ry au,          4.1897 Debye
        Dipole field          0.0010 Ry au, 
 
        Potential amp.       -0.1113 Ry
        Total length         55.1515 bohr
 
 
     Adding external electric field

     Computed dipole along edir(3) : 
        Dipole                1.6484 Ry au,          4.1897 Debye
        Dipole field          0.0010 Ry au, 
 
        Potential amp.       -0.1113 Ry
        Total length         55.1515 bohr
 
     Starting wfcs are  815 randomized atomic wfcs

     total cpu time spent up to now is       12.5 secs

     Self-consistent Calculation

     iteration #  1     ecut=    50.00 Ry     beta= 0.10
     Davidson diagonalization with overlap
     ethr =  1.00E-02,  avg # of iterations =  6.0

     negative rho (up, down):  3.901E-01 1.914E-06
 
     Adding external electric field

     Computed dipole along edir(3) : 
        Dipole               -3.4783 Ry au,         -8.8411 Debye
        Dipole field         -0.0021 Ry au, 
 
        Potential amp.        0.2348 Ry
        Total length         55.1515 bohr
 
 
     Adding external electric field

     Computed dipole along edir(3) : 
        Dipole               -3.4783 Ry au,         -8.8411 Debye
        Dipole field         -0.0021 Ry au, 
 
        Potential amp.        0.2348 Ry
        Total length         55.1515 bohr
 

     total cpu time spent up to now is       44.0 secs

     total energy              =   -7518.57672261 Ry
     estimated scf accuracy    <     751.29904376 Ry

     total magnetization       =   219.00 Bohr mag/cell
     absolute magnetization    =   307.79 Bohr mag/cell

     iteration #  2     ecut=    50.00 Ry     beta= 0.10
     Davidson diagonalization with overlap
     ethr =  1.00E-02,  avg # of iterations =  2.0

     negative rho (up, down):  3.633E-01 1.712E-06
 
     Adding external electric field

     Computed dipole along edir(3) : 
        Dipole               -2.4704 Ry au,         -6.2792 Debye
        Dipole field         -0.0015 Ry au, 
 
        Potential amp.        0.1668 Ry
        Total length         55.1515 bohr
 
 
     Adding external electric field

     Computed dipole along edir(3) : 
        Dipole               -2.4704 Ry au,         -6.2792 Debye
        Dipole field         -0.0015 Ry au, 
 
        Potential amp.        0.1668 Ry
        Total length         55.1515 bohr
 

     total cpu time spent up to now is       62.1 secs

     total energy              =   -7602.04509062 Ry
     estimated scf accuracy    <     179.80273304 Ry

     total magnetization       =   155.92 Bohr mag/cell
     absolute magnetization    =   205.33 Bohr mag/cell

     iteration #  3     ecut=    50.00 Ry     beta= 0.10
     Davidson diagonalization with overlap
     ethr =  1.00E-02,  avg # of iterations =  1.5

     negative rho (up, down):  3.184E-01 1.641E-06
 
     Adding external electric field

     Computed dipole along edir(3) : 
        Dipole               -2.0495 Ry au,         -5.2093 Debye
        Dipole field         -0.0013 Ry au, 
 
        Potential amp.        0.1384 Ry
        Total length         55.1515 bohr
 
 
     Adding external electric field

     Computed dipole along edir(3) : 
        Dipole               -2.0495 Ry au,         -5.2093 Debye
        Dipole field         -0.0013 Ry au, 
 
        Potential amp.        0.1384 Ry
        Total length         55.1515 bohr
 

     total cpu time spent up to now is       76.8 secs

     total energy              =   -7634.43784428 Ry
     estimated scf accuracy    <     102.17739847 Ry

     total magnetization       =   132.76 Bohr mag/cell
     absolute magnetization    =   184.34 Bohr mag/cell

     iteration #  4     ecut=    50.00 Ry     beta= 0.10
     Davidson diagonalization with overlap
     ethr =  9.35E-03,  avg # of iterations =  1.0

     negative rho (up, down):  2.473E-01 5.053E-07
 
     Adding external electric field

     Computed dipole along edir(3) : 
        Dipole               -2.0170 Ry au,         -5.1267 Debye
        Dipole field         -0.0012 Ry au, 
 
        Potential amp.        0.1362 Ry
        Total length         55.1515 bohr
 
 
     Adding external electric field

     Computed dipole along edir(3) : 
        Dipole               -2.0170 Ry au,         -5.1267 Debye
        Dipole field         -0.0012 Ry au, 
 
        Potential amp.        0.1362 Ry
        Total length         55.1515 bohr
 

     total cpu time spent up to now is       90.4 secs

     total energy              =   -7665.40907027 Ry
     estimated scf accuracy    <      80.39947510 Ry

     total magnetization       =   115.98 Bohr mag/cell
     absolute magnetization    =   169.24 Bohr mag/cell

     iteration #  5     ecut=    50.00 Ry     beta= 0.10
     Davidson diagonalization with overlap
     ethr =  7.36E-03,  avg # of iterations =  1.0

     negative rho (up, down):  1.718E-02 3.652E-08
 
     Adding external electric field

     Computed dipole along edir(3) : 
        Dipole               -1.4948 Ry au,         -3.7994 Debye
        Dipole field         -0.0009 Ry au, 
 
        Potential amp.        0.1009 Ry
        Total length         55.1515 bohr
 
 
     Adding external electric field

     Computed dipole along edir(3) : 
        Dipole               -1.4948 Ry au,         -3.7994 Debye
        Dipole field         -0.0009 Ry au, 
 
        Potential amp.        0.1009 Ry
        Total length         55.1515 bohr
 

     total cpu time spent up to now is      103.7 secs

     total energy              =   -7725.97543491 Ry
     estimated scf accuracy    <      64.53798315 Ry

     total magnetization       =    97.08 Bohr mag/cell
     absolute magnetization    =   151.96 Bohr mag/cell

     iteration #  6     ecut=    50.00 Ry     beta= 0.10
     Davidson diagonalization with overlap
     ethr =  5.90E-03,  avg # of iterations =  1.0

     negative rho (up, down):  3.488E-04 4.403E-04
 
     Adding external electric field

     Computed dipole along edir(3) : 
        Dipole               -1.0451 Ry au,         -2.6563 Debye
        Dipole field         -0.0006 Ry au, 
 
        Potential amp.        0.0706 Ry
        Total length         55.1515 bohr
 
 
     Adding external electric field

     Computed dipole along edir(3) : 
        Dipole               -1.0451 Ry au,         -2.6563 Debye
        Dipole field         -0.0006 Ry au, 
 
        Potential amp.        0.0706 Ry
        Total length         55.1515 bohr
 

     total cpu time spent up to now is      118.0 secs

     total energy              =   -7736.11940036 Ry
     estimated scf accuracy    <      12.26957960 Ry

     total magnetization       =    91.00 Bohr mag/cell
     absolute magnetization    =   122.55 Bohr mag/cell

     iteration #  7     ecut=    50.00 Ry     beta= 0.10
     Davidson diagonalization with overlap
     ethr =  1.12E-03,  avg # of iterations =  6.0

     negative rho (up, down):  3.318E-04 4.309E-04
 
     Adding external electric field

     Computed dipole along edir(3) : 
        Dipole               -1.0314 Ry au,         -2.6215 Debye
        Dipole field         -0.0006 Ry au, 
 
        Potential amp.        0.0696 Ry
        Total length         55.1515 bohr
 
 
     Adding external electric field

     Computed dipole along edir(3) : 
        Dipole               -1.0314 Ry au,         -2.6215 Debye
        Dipole field         -0.0006 Ry au, 
 
        Potential amp.        0.0696 Ry
        Total length         55.1515 bohr
 

     total cpu time spent up to now is      142.5 secs

     total energy              =   -7738.37848413 Ry
     estimated scf accuracy    <      25.72586675 Ry

     total magnetization       =    70.34 Bohr mag/cell
     absolute magnetization    =    87.57 Bohr mag/cell

     iteration #  8     ecut=    50.00 Ry     beta= 0.10
     Davidson diagonalization with overlap
     ethr =  1.12E-03,  avg # of iterations =  1.0

     negative rho (up, down):  2.784E-04 3.821E-04
 
     Adding external electric field

     Computed dipole along edir(3) : 
        Dipole               -0.9956 Ry au,         -2.5305 Debye
        Dipole field         -0.0006 Ry au, 
 
        Potential amp.        0.0672 Ry
        Total length         55.1515 bohr
 
 
     Adding external electric field

     Computed dipole along edir(3) : 
        Dipole               -0.9956 Ry au,         -2.5305 Debye
        Dipole field         -0.0006 Ry au, 
 
        Potential amp.        0.0672 Ry
        Total length         55.1515 bohr
 

     total cpu time spent up to now is      155.8 secs

     total energy              =   -7738.31946995 Ry
     estimated scf accuracy    <      24.65355088 Ry

     total magnetization       =    70.61 Bohr mag/cell
     absolute magnetization    =    87.45 Bohr mag/cell

     iteration #  9     ecut=    50.00 Ry     beta= 0.10
     Davidson diagonalization with overlap
     ethr =  1.12E-03,  avg # of iterations =  1.0

     negative rho (up, down):  8.331E-05 3.534E-04
 
     Adding external electric field

     Computed dipole along edir(3) : 
        Dipole               -0.7701 Ry au,         -1.9573 Debye
        Dipole field         -0.0005 Ry au, 
 
        Potential amp.        0.0520 Ry
        Total length         55.1515 bohr
 
 
     Adding external electric field

     Computed dipole along edir(3) : 
        Dipole               -0.7701 Ry au,         -1.9573 Debye
        Dipole field         -0.0005 Ry au, 
 
        Potential amp.        0.0520 Ry
        Total length         55.1515 bohr
 

     total cpu time spent up to now is      169.4 secs

     total energy              =   -7737.61015125 Ry
     estimated scf accuracy    <      22.31762736 Ry

     total magnetization       =    70.98 Bohr mag/cell
     absolute magnetization    =    87.25 Bohr mag/cell

     iteration # 10     ecut=    50.00 Ry     beta= 0.10
     Davidson diagonalization with overlap
     ethr =  1.12E-03,  avg # of iterations =  1.0

     negative rho (up, down):  9.899E-05 4.215E-04
 
     Adding external electric field

     Computed dipole along edir(3) : 
        Dipole               -0.7017 Ry au,         -1.7835 Debye
        Dipole field         -0.0004 Ry au, 
 
        Potential amp.        0.0474 Ry
        Total length         55.1515 bohr
 
 
     Adding external electric field

     Computed dipole along edir(3) : 
        Dipole               -0.7017 Ry au,         -1.7835 Debye
        Dipole field         -0.0004 Ry au, 
 
        Potential amp.        0.0474 Ry
        Total length         55.1515 bohr
 

     total cpu time spent up to now is      182.2 secs

     total energy              =   -7737.87968091 Ry
     estimated scf accuracy    <       5.23952013 Ry

     total magnetization       =    80.77 Bohr mag/cell
     absolute magnetization    =    92.42 Bohr mag/cell

     iteration # 11     ecut=    50.00 Ry     beta= 0.10
     Davidson diagonalization with overlap
     ethr =  4.79E-04,  avg # of iterations =  2.0

     negative rho (up, down):  9.210E-05 4.536E-04
 
     Adding external electric field

     Computed dipole along edir(3) : 
        Dipole               -0.7040 Ry au,         -1.7894 Debye
        Dipole field         -0.0004 Ry au, 
 
        Potential amp.        0.0475 Ry
        Total length         55.1515 bohr
 
 
     Adding external electric field

     Computed dipole along edir(3) : 
        Dipole               -0.7040 Ry au,         -1.7894 Debye
        Dipole field         -0.0004 Ry au, 
 
        Potential amp.        0.0475 Ry
        Total length         55.1515 bohr
 

     total cpu time spent up to now is      196.5 secs

     total energy              =   -7737.93720018 Ry
     estimated scf accuracy    <       2.30751825 Ry

     total magnetization       =    86.10 Bohr mag/cell
     absolute magnetization    =    96.00 Bohr mag/cell

     iteration # 12     ecut=    50.00 Ry     beta= 0.10
     Davidson diagonalization with overlap
     ethr =  2.11E-04,  avg # of iterations =  1.5

     negative rho (up, down):  7.871E-05 5.626E-04
 
     Adding external electric field

     Computed dipole along edir(3) : 
        Dipole               -0.7437 Ry au,         -1.8904 Debye
        Dipole field         -0.0005 Ry au, 
 
        Potential amp.        0.0502 Ry
        Total length         55.1515 bohr
 
 
     Adding external electric field

     Computed dipole along edir(3) : 
        Dipole               -0.7437 Ry au,         -1.8904 Debye
        Dipole field         -0.0005 Ry au, 
 
        Potential amp.        0.0502 Ry
        Total length         55.1515 bohr
 

     total cpu time spent up to now is      209.7 secs

     total energy              =   -7737.93519834 Ry
     estimated scf accuracy    <       1.94570015 Ry

     total magnetization       =    85.77 Bohr mag/cell
     absolute magnetization    =    95.25 Bohr mag/cell

     iteration # 13     ecut=    50.00 Ry     beta= 0.10
     Davidson diagonalization with overlap
     ethr =  1.78E-04,  avg # of iterations =  7.0

     negative rho (up, down):  1.153E-04 6.633E-04
 
     Adding external electric field

     Computed dipole along edir(3) : 
        Dipole               -0.6985 Ry au,         -1.7755 Debye
        Dipole field         -0.0004 Ry au, 
 
        Potential amp.        0.0472 Ry
        Total length         55.1515 bohr
 
 
     Adding external electric field

     Computed dipole along edir(3) : 
        Dipole               -0.6985 Ry au,         -1.7755 Debye
        Dipole field         -0.0004 Ry au, 
 
        Potential amp.        0.0472 Ry
        Total length         55.1515 bohr
 

     total cpu time spent up to now is      226.3 secs

     total energy              =   -7737.99188503 Ry
     estimated scf accuracy    <       4.36570578 Ry

     total magnetization       =    80.46 Bohr mag/cell
     absolute magnetization    =    89.92 Bohr mag/cell

     iteration # 14     ecut=    50.00 Ry     beta= 0.10
     Davidson diagonalization with overlap
     ethr =  1.78E-04,  avg # of iterations =  1.5

     negative rho (up, down):  1.166E-04 5.871E-04
 
     Adding external electric field

     Computed dipole along edir(3) : 
        Dipole               -0.6043 Ry au,         -1.5360 Debye
        Dipole field         -0.0004 Ry au, 
 
        Potential amp.        0.0408 Ry
        Total length         55.1515 bohr
 
 
     Adding external electric field

     Computed dipole along edir(3) : 
        Dipole               -0.6043 Ry au,         -1.5360 Debye
        Dipole field         -0.0004 Ry au, 
 
        Potential amp.        0.0408 Ry
        Total length         55.1515 bohr
 

     total cpu time spent up to now is      239.8 secs

     total energy              =   -7738.06476519 Ry
     estimated scf accuracy    <       1.31848199 Ry

     total magnetization       =    84.62 Bohr mag/cell
     absolute magnetization    =    92.37 Bohr mag/cell

     iteration # 15     ecut=    50.00 Ry     beta= 0.10
     Davidson diagonalization with overlap
     ethr =  1.21E-04,  avg # of iterations =  2.0

     negative rho (up, down):  1.184E-04 4.902E-04
 
     Adding external electric field

     Computed dipole along edir(3) : 
        Dipole               -0.5229 Ry au,         -1.3292 Debye
        Dipole field         -0.0003 Ry au, 
 
        Potential amp.        0.0353 Ry
        Total length         55.1515 bohr
 
 
     Adding external electric field

     Computed dipole along edir(3) : 
        Dipole               -0.5229 Ry au,         -1.3292 Debye
        Dipole field         -0.0003 Ry au, 
 
        Potential amp.        0.0353 Ry
        Total length         55.1515 bohr
 

     total cpu time spent up to now is      254.1 secs

     total energy              =   -7738.18401057 Ry
     estimated scf accuracy    <       0.62686985 Ry

     total magnetization       =    88.95 Bohr mag/cell
     absolute magnetization    =    95.08 Bohr mag/cell

     iteration # 16     ecut=    50.00 Ry     beta= 0.10
     Davidson diagonalization with overlap
     c_bands:  1 eigenvalues not converged
     ethr =  5.74E-05,  avg # of iterations = 11.0

     negative rho (up, down):  2.633E-04 4.143E-04
 
     Adding external electric field

     Computed dipole along edir(3) : 
        Dipole               -0.3368 Ry au,         -0.8561 Debye
        Dipole field         -0.0002 Ry au, 
 
        Potential amp.        0.0227 Ry
        Total length         55.1515 bohr
 
 
     Adding external electric field

     Computed dipole along edir(3) : 
        Dipole               -0.3368 Ry au,         -0.8561 Debye
        Dipole field         -0.0002 Ry au, 
 
        Potential amp.        0.0227 Ry
        Total length         55.1515 bohr
 

     total cpu time spent up to now is      276.9 secs

     total energy              =   -7738.28349917 Ry
     estimated scf accuracy    <       0.61330620 Ry

     total magnetization       =    89.56 Bohr mag/cell
     absolute magnetization    =    94.39 Bohr mag/cell

     iteration # 17     ecut=    50.00 Ry     beta= 0.10
     Davidson diagonalization with overlap
     ethr =  5.61E-05,  avg # of iterations =  1.5

     negative rho (up, down):  3.837E-04 4.012E-04
 
     Adding external electric field

     Computed dipole along edir(3) : 
        Dipole               -0.3156 Ry au,         -0.8023 Debye
        Dipole field         -0.0002 Ry au, 
 
        Potential amp.        0.0213 Ry
        Total length         55.1515 bohr
 
 
     Adding external electric field

     Computed dipole along edir(3) : 
        Dipole               -0.3156 Ry au,         -0.8023 Debye
        Dipole field         -0.0002 Ry au, 
 
        Potential amp.        0.0213 Ry
        Total length         55.1515 bohr
 

     total cpu time spent up to now is      289.6 secs

     total energy              =   -7738.30333157 Ry
     estimated scf accuracy    <       0.53476116 Ry

     total magnetization       =    89.52 Bohr mag/cell
     absolute magnetization    =    92.12 Bohr mag/cell

     iteration # 18     ecut=    50.00 Ry     beta= 0.10
     Davidson diagonalization with overlap
     ethr =  4.89E-05,  avg # of iterations =  1.5

     negative rho (up, down):  3.790E-04 4.018E-04
 
     Adding external electric field

     Computed dipole along edir(3) : 
        Dipole               -0.3173 Ry au,         -0.8064 Debye
        Dipole field         -0.0002 Ry au, 
 
        Potential amp.        0.0214 Ry
        Total length         55.1515 bohr
 
 
     Adding external electric field

     Computed dipole along edir(3) : 
        Dipole               -0.3173 Ry au,         -0.8064 Debye
        Dipole field         -0.0002 Ry au, 
 
        Potential amp.        0.0214 Ry
        Total length         55.1515 bohr
 

     total cpu time spent up to now is      302.6 secs

     total energy              =   -7738.30959004 Ry
     estimated scf accuracy    <       0.49517072 Ry

     total magnetization       =    88.89 Bohr mag/cell
     absolute magnetization    =    91.14 Bohr mag/cell

     iteration # 19     ecut=    50.00 Ry     beta= 0.10
     Davidson diagonalization with overlap
     ethr =  4.53E-05,  avg # of iterations =  1.0

     negative rho (up, down):  3.506E-04 5.055E-04
 
     Adding external electric field

     Computed dipole along edir(3) : 
        Dipole               -0.3110 Ry au,         -0.7904 Debye
        Dipole field         -0.0002 Ry au, 
 
        Potential amp.        0.0210 Ry
        Total length         55.1515 bohr
 
 
     Adding external electric field

     Computed dipole along edir(3) : 
        Dipole               -0.3110 Ry au,         -0.7904 Debye
        Dipole field         -0.0002 Ry au, 
 
        Potential amp.        0.0210 Ry
        Total length         55.1515 bohr
 

     total cpu time spent up to now is      315.0 secs

     total energy              =   -7738.31090749 Ry
     estimated scf accuracy    <       0.49599384 Ry

     total magnetization       =    88.89 Bohr mag/cell
     absolute magnetization    =    91.07 Bohr mag/cell

     iteration # 20     ecut=    50.00 Ry     beta= 0.10
     Davidson diagonalization with overlap
     ethr =  4.53E-05,  avg # of iterations =  1.5

     negative rho (up, down):  3.367E-04 5.686E-04
 
     Adding external electric field

     Computed dipole along edir(3) : 
        Dipole               -0.3059 Ry au,         -0.7774 Debye
        Dipole field         -0.0002 Ry au, 
 
        Potential amp.        0.0207 Ry
        Total length         55.1515 bohr
 
 
     Adding external electric field

     Computed dipole along edir(3) : 
        Dipole               -0.3059 Ry au,         -0.7774 Debye
        Dipole field         -0.0002 Ry au, 
 
        Potential amp.        0.0207 Ry
        Total length         55.1515 bohr
 

     total cpu time spent up to now is      327.8 secs

     total energy              =   -7738.31173226 Ry
     estimated scf accuracy    <       0.48635220 Ry

     total magnetization       =    88.98 Bohr mag/cell
     absolute magnetization    =    91.08 Bohr mag/cell

     iteration # 21     ecut=    50.00 Ry     beta= 0.10
     Davidson diagonalization with overlap
     ethr =  4.45E-05,  avg # of iterations =  1.0

     negative rho (up, down):  3.401E-04 6.144E-04
 
     Adding external electric field

     Computed dipole along edir(3) : 
        Dipole               -0.2795 Ry au,         -0.7105 Debye
        Dipole field         -0.0002 Ry au, 
 
        Potential amp.        0.0189 Ry
        Total length         55.1515 bohr
 
 
     Adding external electric field

     Computed dipole along edir(3) : 
        Dipole               -0.2795 Ry au,         -0.7105 Debye
        Dipole field         -0.0002 Ry au, 
 
        Potential amp.        0.0189 Ry
        Total length         55.1515 bohr
 

     total cpu time spent up to now is      340.6 secs

     total energy              =   -7738.31361820 Ry
     estimated scf accuracy    <       0.48825539 Ry

     total magnetization       =    89.00 Bohr mag/cell
     absolute magnetization    =    91.02 Bohr mag/cell

     iteration # 22     ecut=    50.00 Ry     beta= 0.10
     Davidson diagonalization with overlap
     ethr =  4.45E-05,  avg # of iterations =  1.5

     negative rho (up, down):  3.646E-04 6.675E-04
 
     Adding external electric field

     Computed dipole along edir(3) : 
        Dipole               -0.2639 Ry au,         -0.6707 Debye
        Dipole field         -0.0002 Ry au, 
 
        Potential amp.        0.0178 Ry
        Total length         55.1515 bohr
 
 
     Adding external electric field

     Computed dipole along edir(3) : 
        Dipole               -0.2639 Ry au,         -0.6707 Debye
        Dipole field         -0.0002 Ry au, 
 
        Potential amp.        0.0178 Ry
        Total length         55.1515 bohr
 

     total cpu time spent up to now is      353.9 secs

     total energy              =   -7738.31603277 Ry
     estimated scf accuracy    <       0.53998363 Ry

     total magnetization       =    89.10 Bohr mag/cell
     absolute magnetization    =    91.15 Bohr mag/cell

     iteration # 23     ecut=    50.00 Ry     beta= 0.10
     Davidson diagonalization with overlap
     ethr =  4.45E-05,  avg # of iterations =  1.5

     negative rho (up, down):  1.291E-04 1.893E-04
 
     Adding external electric field

     Computed dipole along edir(3) : 
        Dipole               -0.3025 Ry au,         -0.7689 Debye
        Dipole field         -0.0002 Ry au, 
 
        Potential amp.        0.0204 Ry
        Total length         55.1515 bohr
 
 
     Adding external electric field

     Computed dipole along edir(3) : 
        Dipole               -0.3025 Ry au,         -0.7689 Debye
        Dipole field         -0.0002 Ry au, 
 
        Potential amp.        0.0204 Ry
        Total length         55.1515 bohr
 

     total cpu time spent up to now is      367.2 secs

     total energy              =   -7738.30003609 Ry
     estimated scf accuracy    <       0.59742396 Ry

     total magnetization       =    89.09 Bohr mag/cell
     absolute magnetization    =    91.15 Bohr mag/cell

     iteration # 24     ecut=    50.00 Ry     beta= 0.10
     Davidson diagonalization with overlap
     ethr =  4.45E-05,  avg # of iterations =  1.5

     negative rho (up, down):  8.986E-05 5.732E-05
 
     Adding external electric field

     Computed dipole along edir(3) : 
        Dipole               -0.3010 Ry au,         -0.7651 Debye
        Dipole field         -0.0002 Ry au, 
 
        Potential amp.        0.0203 Ry
        Total length         55.1515 bohr
 
 
     Adding external electric field

     Computed dipole along edir(3) : 
        Dipole               -0.3010 Ry au,         -0.7651 Debye
        Dipole field         -0.0002 Ry au, 
 
        Potential amp.        0.0203 Ry
        Total length         55.1515 bohr
 

     total cpu time spent up to now is      380.5 secs

     total energy              =   -7738.30454178 Ry
     estimated scf accuracy    <       0.31982379 Ry

     total magnetization       =    88.17 Bohr mag/cell
     absolute magnetization    =    89.67 Bohr mag/cell

     iteration # 25     ecut=    50.00 Ry     beta= 0.10
     Davidson diagonalization with overlap
     ethr =  2.93E-05,  avg # of iterations =  1.5

     negative rho (up, down):  3.466E-05 4.164E-05
 
     Adding external electric field

     Computed dipole along edir(3) : 
        Dipole               -0.3263 Ry au,         -0.8295 Debye
        Dipole field         -0.0002 Ry au, 
 
        Potential amp.        0.0220 Ry
        Total length         55.1515 bohr
 
 
     Adding external electric field

     Computed dipole along edir(3) : 
        Dipole               -0.3263 Ry au,         -0.8295 Debye
        Dipole field         -0.0002 Ry au, 
 
        Potential amp.        0.0220 Ry
        Total length         55.1515 bohr
 

     total cpu time spent up to now is      393.9 secs

     total energy              =   -7738.30851741 Ry
     estimated scf accuracy    <       0.17136691 Ry

     total magnetization       =    88.29 Bohr mag/cell
     absolute magnetization    =    89.57 Bohr mag/cell

     iteration # 26     ecut=    50.00 Ry     beta= 0.10
     Davidson diagonalization with overlap
     c_bands:  4 eigenvalues not converged
     ethr =  1.57E-05,  avg # of iterations = 10.5

     negative rho (up, down):  9.689E-06 2.536E-05
 
     Adding external electric field

     Computed dipole along edir(3) : 
        Dipole               -0.3191 Ry au,         -0.8110 Debye
        Dipole field         -0.0002 Ry au, 
 
        Potential amp.        0.0215 Ry
        Total length         55.1515 bohr
 
 
     Adding external electric field

     Computed dipole along edir(3) : 
        Dipole               -0.3191 Ry au,         -0.8110 Debye
        Dipole field         -0.0002 Ry au, 
 
        Potential amp.        0.0215 Ry
        Total length         55.1515 bohr
 

     total cpu time spent up to now is      412.9 secs

     total energy              =   -7738.30683626 Ry
     estimated scf accuracy    <       0.09298443 Ry

     total magnetization       =    87.88 Bohr mag/cell
     absolute magnetization    =    89.25 Bohr mag/cell

     iteration # 27     ecut=    50.00 Ry     beta= 0.10
     Davidson diagonalization with overlap
     ethr =  8.51E-06,  avg # of iterations = 12.0

     negative rho (up, down):  2.068E-05 3.529E-05
 
     Adding external electric field

     Computed dipole along edir(3) : 
        Dipole               -0.3151 Ry au,         -0.8010 Debye
        Dipole field         -0.0002 Ry au, 
 
        Potential amp.        0.0213 Ry
        Total length         55.1515 bohr
 
 
     Adding external electric field

     Computed dipole along edir(3) : 
        Dipole               -0.3151 Ry au,         -0.8010 Debye
        Dipole field         -0.0002 Ry au, 
 
        Potential amp.        0.0213 Ry
        Total length         55.1515 bohr
 

     total cpu time spent up to now is      440.1 secs

     total energy              =   -7738.30976995 Ry
     estimated scf accuracy    <       0.16225897 Ry

     total magnetization       =    88.39 Bohr mag/cell
     absolute magnetization    =    89.95 Bohr mag/cell

     iteration # 28     ecut=    50.00 Ry     beta= 0.10
     Davidson diagonalization with overlap
     ethr =  8.51E-06,  avg # of iterations =  9.0

     negative rho (up, down):  7.299E-06 1.367E-05
 
     Adding external electric field

     Computed dipole along edir(3) : 
        Dipole               -0.2737 Ry au,         -0.6957 Debye
        Dipole field         -0.0002 Ry au, 
 
        Potential amp.        0.0185 Ry
        Total length         55.1515 bohr
 
 
     Adding external electric field

     Computed dipole along edir(3) : 
        Dipole               -0.2737 Ry au,         -0.6957 Debye
        Dipole field         -0.0002 Ry au, 
 
        Potential amp.        0.0185 Ry
        Total length         55.1515 bohr
 

     total cpu time spent up to now is      457.7 secs

     total energy              =   -7738.30741402 Ry
     estimated scf accuracy    <       0.19793003 Ry

     total magnetization       =    88.54 Bohr mag/cell
     absolute magnetization    =    90.06 Bohr mag/cell

     iteration # 29     ecut=    50.00 Ry     beta= 0.10
     Davidson diagonalization with overlap
     ethr =  8.51E-06,  avg # of iterations =  2.0

     negative rho (up, down):  6.116E-06 8.191E-06
 
     Adding external electric field

     Computed dipole along edir(3) : 
        Dipole               -0.2664 Ry au,         -0.6770 Debye
        Dipole field         -0.0002 Ry au, 
 
        Potential amp.        0.0180 Ry
        Total length         55.1515 bohr
 
 
     Adding external electric field

     Computed dipole along edir(3) : 
        Dipole               -0.2664 Ry au,         -0.6770 Debye
        Dipole field         -0.0002 Ry au, 
 
        Potential amp.        0.0180 Ry
        Total length         55.1515 bohr
 

     total cpu time spent up to now is      471.9 secs

     total energy              =   -7738.30771656 Ry
     estimated scf accuracy    <       0.19919146 Ry

     total magnetization       =    88.54 Bohr mag/cell
     absolute magnetization    =    90.09 Bohr mag/cell

     iteration # 30     ecut=    50.00 Ry     beta= 0.10
     Davidson diagonalization with overlap
     ethr =  8.51E-06,  avg # of iterations =  1.0

     negative rho (up, down):  1.426E-06 1.130E-06
 
     Adding external electric field

     Computed dipole along edir(3) : 
        Dipole               -0.2498 Ry au,         -0.6350 Debye
        Dipole field         -0.0002 Ry au, 
 
        Potential amp.        0.0169 Ry
        Total length         55.1515 bohr
 
 
     Adding external electric field

     Computed dipole along edir(3) : 
        Dipole               -0.2498 Ry au,         -0.6350 Debye
        Dipole field         -0.0002 Ry au, 
 
        Potential amp.        0.0169 Ry
        Total length         55.1515 bohr
 

     total cpu time spent up to now is      484.3 secs

     total energy              =   -7738.30358680 Ry
     estimated scf accuracy    <       0.21283069 Ry

     total magnetization       =    88.62 Bohr mag/cell
     absolute magnetization    =    90.24 Bohr mag/cell

     iteration # 31     ecut=    50.00 Ry     beta= 0.10
     Davidson diagonalization with overlap
     ethr =  8.51E-06,  avg # of iterations =  1.5

     negative rho (up, down):  1.788E-06 1.557E-06
 
     Adding external electric field

     Computed dipole along edir(3) : 
        Dipole               -0.2421 Ry au,         -0.6154 Debye
        Dipole field         -0.0001 Ry au, 
 
        Potential amp.        0.0163 Ry
        Total length         55.1515 bohr
 
 
     Adding external electric field

     Computed dipole along edir(3) : 
        Dipole               -0.2421 Ry au,         -0.6154 Debye
        Dipole field         -0.0001 Ry au, 
 
        Potential amp.        0.0163 Ry
        Total length         55.1515 bohr
 

     total cpu time spent up to now is      497.0 secs

     total energy              =   -7738.30454783 Ry
     estimated scf accuracy    <       0.23084539 Ry

     total magnetization       =    88.77 Bohr mag/cell
     absolute magnetization    =    90.61 Bohr mag/cell

     iteration # 32     ecut=    50.00 Ry     beta= 0.10
     Davidson diagonalization with overlap
     ethr =  8.51E-06,  avg # of iterations =  1.0

     negative rho (up, down):  1.883E-03 1.950E-03
 
     Adding external electric field

     Computed dipole along edir(3) : 
        Dipole               -0.0766 Ry au,         -0.1947 Debye
        Dipole field         -0.0000 Ry au, 
 
        Potential amp.        0.0052 Ry
        Total length         55.1515 bohr
 
 
     Adding external electric field

     Computed dipole along edir(3) : 
        Dipole               -0.0766 Ry au,         -0.1947 Debye
        Dipole field         -0.0000 Ry au, 
 
        Potential amp.        0.0052 Ry
        Total length         55.1515 bohr
 

     total cpu time spent up to now is      509.2 secs

     total energy              =   -7738.30385949 Ry
     estimated scf accuracy    <       0.22850225 Ry

     total magnetization       =    88.77 Bohr mag/cell
     absolute magnetization    =    90.61 Bohr mag/cell

     iteration # 33     ecut=    50.00 Ry     beta= 0.10
     Davidson diagonalization with overlap
     ethr =  8.51E-06,  avg # of iterations =  2.0

     negative rho (up, down):  1.971E-03 1.950E-03
 
     Adding external electric field

     Computed dipole along edir(3) : 
        Dipole               -0.0528 Ry au,         -0.1342 Debye
        Dipole field         -0.0000 Ry au, 
 
        Potential amp.        0.0036 Ry
        Total length         55.1515 bohr
 
 
     Adding external electric field

     Computed dipole along edir(3) : 
        Dipole               -0.0528 Ry au,         -0.1342 Debye
        Dipole field         -0.0000 Ry au, 
 
        Potential amp.        0.0036 Ry
        Total length         55.1515 bohr
 

     total cpu time spent up to now is      523.5 secs

     total energy              =   -7738.30631750 Ry
     estimated scf accuracy    <       0.12982793 Ry

     total magnetization       =    88.63 Bohr mag/cell
     absolute magnetization    =    90.17 Bohr mag/cell

     iteration # 34     ecut=    50.00 Ry     beta= 0.10
     Davidson diagonalization with overlap
     ethr =  8.51E-06,  avg # of iterations =  1.0

     negative rho (up, down):  3.045E-03 3.442E-03
 
     Adding external electric field

     Computed dipole along edir(3) : 
        Dipole               -0.0332 Ry au,         -0.0844 Debye
        Dipole field         -0.0000 Ry au, 
 
        Potential amp.        0.0022 Ry
        Total length         55.1515 bohr
 
 
     Adding external electric field

     Computed dipole along edir(3) : 
        Dipole               -0.0332 Ry au,         -0.0844 Debye
        Dipole field         -0.0000 Ry au, 
 
        Potential amp.        0.0022 Ry
        Total length         55.1515 bohr
 

     total cpu time spent up to now is      536.2 secs

     total energy              =   -7738.30331340 Ry
     estimated scf accuracy    <       0.15806054 Ry

     total magnetization       =    88.67 Bohr mag/cell
     absolute magnetization    =    90.16 Bohr mag/cell

     iteration # 35     ecut=    50.00 Ry     beta= 0.10
     Davidson diagonalization with overlap
     ethr =  8.51E-06,  avg # of iterations =  2.0

     negative rho (up, down):  1.649E-03 2.318E-03
 
     Adding external electric field

     Computed dipole along edir(3) : 
        Dipole                0.0156 Ry au,          0.0396 Debye
        Dipole field          0.0000 Ry au, 
 
        Potential amp.       -0.0011 Ry
        Total length         55.1515 bohr
 
 
     Adding external electric field

     Computed dipole along edir(3) : 
        Dipole                0.0156 Ry au,          0.0396 Debye
        Dipole field          0.0000 Ry au, 
 
        Potential amp.       -0.0011 Ry
        Total length         55.1515 bohr
 

     total cpu time spent up to now is      550.2 secs

     total energy              =   -7738.30095008 Ry
     estimated scf accuracy    <       0.04778505 Ry

     total magnetization       =    88.09 Bohr mag/cell
     absolute magnetization    =    89.60 Bohr mag/cell

     iteration # 36     ecut=    50.00 Ry     beta= 0.10
     Davidson diagonalization with overlap
     ethr =  4.37E-06,  avg # of iterations =  2.0

     negative rho (up, down):  1.969E-03 2.677E-03
 
     Adding external electric field

     Computed dipole along edir(3) : 
        Dipole                0.0288 Ry au,          0.0731 Debye
        Dipole field          0.0000 Ry au, 
 
        Potential amp.       -0.0019 Ry
        Total length         55.1515 bohr
 
 
     Adding external electric field

     Computed dipole along edir(3) : 
        Dipole                0.0288 Ry au,          0.0731 Debye
        Dipole field          0.0000 Ry au, 
 
        Potential amp.       -0.0019 Ry
        Total length         55.1515 bohr
 

     total cpu time spent up to now is      564.8 secs

     total energy              =   -7738.30153310 Ry
     estimated scf accuracy    <       0.06317564 Ry

     total magnetization       =    87.97 Bohr mag/cell
     absolute magnetization    =    89.43 Bohr mag/cell

     iteration # 37     ecut=    50.00 Ry     beta= 0.10
     Davidson diagonalization with overlap
     ethr =  4.37E-06,  avg # of iterations =  2.0

     negative rho (up, down):  2.405E-03 3.046E-03
 
     Adding external electric field

     Computed dipole along edir(3) : 
        Dipole                0.0018 Ry au,          0.0046 Debye
        Dipole field          0.0000 Ry au, 
 
        Potential amp.       -0.0001 Ry
        Total length         55.1515 bohr
 
 
     Adding external electric field

     Computed dipole along edir(3) : 
        Dipole                0.0018 Ry au,          0.0046 Debye
        Dipole field          0.0000 Ry au, 
 
        Potential amp.       -0.0001 Ry
        Total length         55.1515 bohr
 

     total cpu time spent up to now is      578.3 secs

     total energy              =   -7738.30230887 Ry
     estimated scf accuracy    <       0.03877688 Ry

     total magnetization       =    87.90 Bohr mag/cell
     absolute magnetization    =    89.41 Bohr mag/cell

     iteration # 38     ecut=    50.00 Ry     beta= 0.10
     Davidson diagonalization with overlap
     ethr =  3.55E-06,  avg # of iterations =  2.0

     negative rho (up, down):  1.741E-03 2.646E-03
 
     Adding external electric field

     Computed dipole along edir(3) : 
        Dipole                0.0415 Ry au,          0.1056 Debye
        Dipole field          0.0000 Ry au, 
 
        Potential amp.       -0.0028 Ry
        Total length         55.1515 bohr
 
 
     Adding external electric field

     Computed dipole along edir(3) : 
        Dipole                0.0415 Ry au,          0.1056 Debye
        Dipole field          0.0000 Ry au, 
 
        Potential amp.       -0.0028 Ry
        Total length         55.1515 bohr
 

     total cpu time spent up to now is      592.3 secs

     total energy              =   -7738.29949184 Ry
     estimated scf accuracy    <       0.03927602 Ry

     total magnetization       =    87.87 Bohr mag/cell
     absolute magnetization    =    89.44 Bohr mag/cell

     iteration # 39     ecut=    50.00 Ry     beta= 0.10
     Davidson diagonalization with overlap
     ethr =  3.55E-06,  avg # of iterations =  2.0

     negative rho (up, down):  1.695E-03 2.237E-03
 
     Adding external electric field

     Computed dipole along edir(3) : 
        Dipole               -0.0252 Ry au,         -0.0640 Debye
        Dipole field         -0.0000 Ry au, 
 
        Potential amp.        0.0017 Ry
        Total length         55.1515 bohr
 
 
     Adding external electric field

     Computed dipole along edir(3) : 
        Dipole               -0.0252 Ry au,         -0.0640 Debye
        Dipole field         -0.0000 Ry au, 
 
        Potential amp.        0.0017 Ry
        Total length         55.1515 bohr
 

     total cpu time spent up to now is      606.1 secs

     total energy              =   -7738.30278358 Ry
     estimated scf accuracy    <       0.04032192 Ry

     total magnetization       =    87.86 Bohr mag/cell
     absolute magnetization    =    89.42 Bohr mag/cell

     iteration # 40     ecut=    50.00 Ry     beta= 0.10
     Davidson diagonalization with overlap
     ethr =  3.55E-06,  avg # of iterations =  2.0

     negative rho (up, down):  1.816E-03 2.422E-03
 
     Adding external electric field

     Computed dipole along edir(3) : 
        Dipole               -0.0072 Ry au,         -0.0182 Debye
        Dipole field         -0.0000 Ry au, 
 
        Potential amp.        0.0005 Ry
        Total length         55.1515 bohr
 
 
     Adding external electric field

     Computed dipole along edir(3) : 
        Dipole               -0.0072 Ry au,         -0.0182 Debye
        Dipole field         -0.0000 Ry au, 
 
        Potential amp.        0.0005 Ry
        Total length         55.1515 bohr
 

     total cpu time spent up to now is      620.5 secs

     total energy              =   -7738.30261559 Ry
     estimated scf accuracy    <       0.03846226 Ry

     total magnetization       =    87.94 Bohr mag/cell
     absolute magnetization    =    89.39 Bohr mag/cell

     iteration # 41     ecut=    50.00 Ry     beta= 0.10
     Davidson diagonalization with overlap
     ethr =  3.52E-06,  avg # of iterations =  1.5

     negative rho (up, down):  1.395E-03 1.946E-03
 
     Adding external electric field

     Computed dipole along edir(3) : 
        Dipole               -0.0093 Ry au,         -0.0237 Debye
        Dipole field         -0.0000 Ry au, 
 
        Potential amp.        0.0006 Ry
        Total length         55.1515 bohr
 
 
     Adding external electric field

     Computed dipole along edir(3) : 
        Dipole               -0.0093 Ry au,         -0.0237 Debye
        Dipole field         -0.0000 Ry au, 
 
        Potential amp.        0.0006 Ry
        Total length         55.1515 bohr
 

     total cpu time spent up to now is      634.1 secs

     total energy              =   -7738.30245643 Ry
     estimated scf accuracy    <       0.04039220 Ry

     total magnetization       =    87.95 Bohr mag/cell
     absolute magnetization    =    89.41 Bohr mag/cell

     iteration # 42     ecut=    50.00 Ry     beta= 0.10
     Davidson diagonalization with overlap
     ethr =  3.52E-06,  avg # of iterations =  2.0

     negative rho (up, down):  4.019E-03 4.667E-03
 
     Adding external electric field

     Computed dipole along edir(3) : 
        Dipole               -0.0110 Ry au,         -0.0279 Debye
        Dipole field         -0.0000 Ry au, 
 
        Potential amp.        0.0007 Ry
        Total length         55.1515 bohr
 
 
     Adding external electric field

     Computed dipole along edir(3) : 
        Dipole               -0.0110 Ry au,         -0.0279 Debye
        Dipole field         -0.0000 Ry au, 
 
        Potential amp.        0.0007 Ry
        Total length         55.1515 bohr
 

     total cpu time spent up to now is      647.9 secs

     total energy              =   -7738.30410866 Ry
     estimated scf accuracy    <       0.03907245 Ry

     total magnetization       =    87.92 Bohr mag/cell
     absolute magnetization    =    89.38 Bohr mag/cell

     iteration # 43     ecut=    50.00 Ry     beta= 0.10
     Davidson diagonalization with overlap
     ethr =  3.52E-06,  avg # of iterations =  2.0

     negative rho (up, down):  2.786E-03 3.080E-03
 
     Adding external electric field

     Computed dipole along edir(3) : 
        Dipole               -0.1518 Ry au,         -0.3858 Debye
        Dipole field         -0.0001 Ry au, 
 
        Potential amp.        0.0102 Ry
        Total length         55.1515 bohr
 
 
     Adding external electric field

     Computed dipole along edir(3) : 
        Dipole               -0.1518 Ry au,         -0.3858 Debye
        Dipole field         -0.0001 Ry au, 
 
        Potential amp.        0.0102 Ry
        Total length         55.1515 bohr
 

     total cpu time spent up to now is      661.9 secs

     total energy              =   -7738.30464327 Ry
     estimated scf accuracy    <       0.04062189 Ry

     total magnetization       =    87.96 Bohr mag/cell
     absolute magnetization    =    89.40 Bohr mag/cell

     iteration # 44     ecut=    50.00 Ry     beta= 0.10
     Davidson diagonalization with overlap
     ethr =  3.52E-06,  avg # of iterations =  1.5

     negative rho (up, down):  4.134E-03 4.412E-03
 
     Adding external electric field

     Computed dipole along edir(3) : 
        Dipole               -0.0744 Ry au,         -0.1891 Debye
        Dipole field         -0.0000 Ry au, 
 
        Potential amp.        0.0050 Ry
        Total length         55.1515 bohr
 
 
     Adding external electric field

     Computed dipole along edir(3) : 
        Dipole               -0.0744 Ry au,         -0.1891 Debye
        Dipole field         -0.0000 Ry au, 
 
        Potential amp.        0.0050 Ry
        Total length         55.1515 bohr
 

     total cpu time spent up to now is      675.0 secs

     total energy              =   -7738.30532818 Ry
     estimated scf accuracy    <       0.03872859 Ry

     total magnetization       =    88.08 Bohr mag/cell
     absolute magnetization    =    89.60 Bohr mag/cell

     iteration # 45     ecut=    50.00 Ry     beta= 0.10
     Davidson diagonalization with overlap
     ethr =  3.52E-06,  avg # of iterations =  1.5

     negative rho (up, down):  1.859E-03 2.188E-03
 
     Adding external electric field

     Computed dipole along edir(3) : 
        Dipole               -0.0930 Ry au,         -0.2363 Debye
        Dipole field         -0.0001 Ry au, 
 
        Potential amp.        0.0063 Ry
        Total length         55.1515 bohr
 
 
     Adding external electric field

     Computed dipole along edir(3) : 
        Dipole               -0.0930 Ry au,         -0.2363 Debye
        Dipole field         -0.0001 Ry au, 
 
        Potential amp.        0.0063 Ry
        Total length         55.1515 bohr
 

     total cpu time spent up to now is      688.1 secs

     total energy              =   -7738.30454201 Ry
     estimated scf accuracy    <       0.04051775 Ry

     total magnetization       =    88.12 Bohr mag/cell
     absolute magnetization    =    89.54 Bohr mag/cell

     iteration # 46     ecut=    50.00 Ry     beta= 0.10
     Davidson diagonalization with overlap
     ethr =  3.52E-06,  avg # of iterations =  1.5

     negative rho (up, down):  4.059E-03 4.619E-03
 
     Adding external electric field

     Computed dipole along edir(3) : 
        Dipole               -0.0308 Ry au,         -0.0782 Debye
        Dipole field         -0.0000 Ry au, 
 
        Potential amp.        0.0021 Ry
        Total length         55.1515 bohr
 
 
     Adding external electric field

     Computed dipole along edir(3) : 
        Dipole               -0.0308 Ry au,         -0.0782 Debye
        Dipole field         -0.0000 Ry au, 
 
        Potential amp.        0.0021 Ry
        Total length         55.1515 bohr
 

     total cpu time spent up to now is      701.1 secs

     total energy              =   -7738.30359526 Ry
     estimated scf accuracy    <       0.05410608 Ry

     total magnetization       =    88.07 Bohr mag/cell
     absolute magnetization    =    89.52 Bohr mag/cell

     iteration # 47     ecut=    50.00 Ry     beta= 0.10
     Davidson diagonalization with overlap
     ethr =  3.52E-06,  avg # of iterations =  2.0

     negative rho (up, down):  3.716E-03 4.448E-03
 
     Adding external electric field

     Computed dipole along edir(3) : 
        Dipole               -0.0167 Ry au,         -0.0424 Debye
        Dipole field         -0.0000 Ry au, 
 
        Potential amp.        0.0011 Ry
        Total length         55.1515 bohr
 
 
     Adding external electric field

     Computed dipole along edir(3) : 
        Dipole               -0.0167 Ry au,         -0.0424 Debye
        Dipole field         -0.0000 Ry au, 
 
        Potential amp.        0.0011 Ry
        Total length         55.1515 bohr
 

     total cpu time spent up to now is      714.9 secs

     total energy              =   -7738.30273087 Ry
     estimated scf accuracy    <       0.04072514 Ry

     total magnetization       =    88.07 Bohr mag/cell
     absolute magnetization    =    89.57 Bohr mag/cell

     iteration # 48     ecut=    50.00 Ry     beta= 0.10
     Davidson diagonalization with overlap
     ethr =  3.52E-06,  avg # of iterations =  1.5

     negative rho (up, down):  4.184E-03 5.069E-03
 
     Adding external electric field

     Computed dipole along edir(3) : 
        Dipole                0.0363 Ry au,          0.0922 Debye
        Dipole field          0.0000 Ry au, 
 
        Potential amp.       -0.0024 Ry
        Total length         55.1515 bohr
 
 
     Adding external electric field

     Computed dipole along edir(3) : 
        Dipole                0.0363 Ry au,          0.0922 Debye
        Dipole field          0.0000 Ry au, 
 
        Potential amp.       -0.0024 Ry
        Total length         55.1515 bohr
 

     total cpu time spent up to now is      727.8 secs

     total energy              =   -7738.30142897 Ry
     estimated scf accuracy    <       0.03982609 Ry

     total magnetization       =    88.08 Bohr mag/cell
     absolute magnetization    =    89.55 Bohr mag/cell

     iteration # 49     ecut=    50.00 Ry     beta= 0.10
     Davidson diagonalization with overlap
     ethr =  3.52E-06,  avg # of iterations =  2.0

     negative rho (up, down):  4.686E-03 5.541E-03
 
     Adding external electric field

     Computed dipole along edir(3) : 
        Dipole                0.0164 Ry au,          0.0418 Debye
        Dipole field          0.0000 Ry au, 
 
        Potential amp.       -0.0011 Ry
        Total length         55.1515 bohr
 
 
     Adding external electric field

     Computed dipole along edir(3) : 
        Dipole                0.0164 Ry au,          0.0418 Debye
        Dipole field          0.0000 Ry au, 
 
        Potential amp.       -0.0011 Ry
        Total length         55.1515 bohr
 

     total cpu time spent up to now is      742.2 secs

     total energy              =   -7738.30222476 Ry
     estimated scf accuracy    <       0.04158439 Ry

     total magnetization       =    88.06 Bohr mag/cell
     absolute magnetization    =    89.59 Bohr mag/cell

     iteration # 50     ecut=    50.00 Ry     beta= 0.10
     Davidson diagonalization with overlap
     ethr =  3.52E-06,  avg # of iterations =  2.0

     negative rho (up, down):  4.252E-03 5.109E-03
 
     Adding external electric field

     Computed dipole along edir(3) : 
        Dipole                0.0395 Ry au,          0.1005 Debye
        Dipole field          0.0000 Ry au, 
 
        Potential amp.       -0.0027 Ry
        Total length         55.1515 bohr
 
 
     Adding external electric field

     Computed dipole along edir(3) : 
        Dipole                0.0395 Ry au,          0.1005 Debye
        Dipole field          0.0000 Ry au, 
 
        Potential amp.       -0.0027 Ry
        Total length         55.1515 bohr
 

     total cpu time spent up to now is      756.2 secs

     total energy              =   -7738.30172534 Ry
     estimated scf accuracy    <       0.04177508 Ry

     total magnetization       =    88.09 Bohr mag/cell
     absolute magnetization    =    89.63 Bohr mag/cell

     iteration # 51     ecut=    50.00 Ry     beta= 0.10
     Davidson diagonalization with overlap
     ethr =  3.52E-06,  avg # of iterations =  1.5

     negative rho (up, down):  7.168E-03 7.627E-03
 
     Adding external electric field

     Computed dipole along edir(3) : 
        Dipole                0.1643 Ry au,          0.4175 Debye
        Dipole field          0.0001 Ry au, 
 
        Potential amp.       -0.0111 Ry
        Total length         55.1515 bohr
 
 
     Adding external electric field

     Computed dipole along edir(3) : 
        Dipole                0.1643 Ry au,          0.4175 Debye
        Dipole field          0.0001 Ry au, 
 
        Potential amp.       -0.0111 Ry
        Total length         55.1515 bohr
 

     total cpu time spent up to now is      769.5 secs

     total energy              =   -7738.30189750 Ry
     estimated scf accuracy    <       0.04037212 Ry

     total magnetization       =    88.09 Bohr mag/cell
     absolute magnetization    =    89.58 Bohr mag/cell

     iteration # 52     ecut=    50.00 Ry     beta= 0.10
     Davidson diagonalization with overlap
     c_bands:  3 eigenvalues not converged
     c_bands:  3 eigenvalues not converged
     ethr =  3.52E-06,  avg # of iterations = 20.0

     negative rho (up, down):  1.220E-02 1.273E-02
 
     Adding external electric field

     Computed dipole along edir(3) : 
        Dipole                0.3714 Ry au,          0.9441 Debye
        Dipole field          0.0002 Ry au, 
 
        Potential amp.       -0.0251 Ry
        Total length         55.1515 bohr
 
 
     Adding external electric field

     Computed dipole along edir(3) : 
        Dipole                0.3714 Ry au,          0.9441 Debye
        Dipole field          0.0002 Ry au, 
 
        Potential amp.       -0.0251 Ry
        Total length         55.1515 bohr
 

     total cpu time spent up to now is      795.3 secs

     total energy              =   -7738.30212567 Ry
     estimated scf accuracy    <       0.02359617 Ry

     total magnetization       =    88.19 Bohr mag/cell
     absolute magnetization    =    89.61 Bohr mag/cell

     iteration # 53     ecut=    50.00 Ry     beta= 0.10
     Davidson diagonalization with overlap
     c_bands:  4 eigenvalues not converged
     c_bands:  2 eigenvalues not converged
     ethr =  2.16E-06,  avg # of iterations = 20.0

     negative rho (up, down):  1.014E-02 1.067E-02
 
     Adding external electric field

     Computed dipole along edir(3) : 
        Dipole                0.4213 Ry au,          1.0710 Debye
        Dipole field          0.0003 Ry au, 
 
        Potential amp.       -0.0284 Ry
        Total length         55.1515 bohr
 
 
     Adding external electric field

     Computed dipole along edir(3) : 
        Dipole                0.4213 Ry au,          1.0710 Debye
        Dipole field          0.0003 Ry au, 
 
        Potential amp.       -0.0284 Ry
        Total length         55.1515 bohr
 

     total cpu time spent up to now is      826.2 secs

     total energy              =   -7738.30219135 Ry
     estimated scf accuracy    <       0.01373327 Ry

     total magnetization       =    88.23 Bohr mag/cell
     absolute magnetization    =    89.63 Bohr mag/cell

     iteration # 54     ecut=    50.00 Ry     beta= 0.10
     Davidson diagonalization with overlap
     ethr =  1.26E-06,  avg # of iterations =  2.0

     negative rho (up, down):  2.459E-03 2.616E-03
 
     Adding external electric field

     Computed dipole along edir(3) : 
        Dipole                0.3611 Ry au,          0.9178 Debye
        Dipole field          0.0002 Ry au, 
 
        Potential amp.       -0.0244 Ry
        Total length         55.1515 bohr
 
 
     Adding external electric field

     Computed dipole along edir(3) : 
        Dipole                0.3611 Ry au,          0.9178 Debye
        Dipole field          0.0002 Ry au, 
 
        Potential amp.       -0.0244 Ry
        Total length         55.1515 bohr
 

     total cpu time spent up to now is      840.2 secs

     total energy              =   -7738.30120722 Ry
     estimated scf accuracy    <       0.00975106 Ry

     total magnetization       =    88.23 Bohr mag/cell
     absolute magnetization    =    89.62 Bohr mag/cell

     iteration # 55     ecut=    50.00 Ry     beta= 0.10
     Davidson diagonalization with overlap
     c_bands:  1 eigenvalues not converged
     c_bands:  1 eigenvalues not converged
     ethr =  8.92E-07,  avg # of iterations = 20.0

     negative rho (up, down):  2.535E-03 2.565E-03
 
     Adding external electric field

     Computed dipole along edir(3) : 
        Dipole                0.4697 Ry au,          1.1939 Debye
        Dipole field          0.0003 Ry au, 
 
        Potential amp.       -0.0317 Ry
        Total length         55.1515 bohr
 
 
     Adding external electric field

     Computed dipole along edir(3) : 
        Dipole                0.4697 Ry au,          1.1939 Debye
        Dipole field          0.0003 Ry au, 
 
        Potential amp.       -0.0317 Ry
        Total length         55.1515 bohr
 

     total cpu time spent up to now is      864.3 secs

     total energy              =   -7738.30178077 Ry
     estimated scf accuracy    <       0.00816155 Ry

     total magnetization       =    88.29 Bohr mag/cell
     absolute magnetization    =    89.77 Bohr mag/cell

     iteration # 56     ecut=    50.00 Ry     beta= 0.10
     Davidson diagonalization with overlap
     ethr =  7.47E-07,  avg # of iterations =  7.0

     negative rho (up, down):  4.396E-04 4.728E-04
 
     Adding external electric field

     Computed dipole along edir(3) : 
        Dipole                0.4773 Ry au,          1.2132 Debye
        Dipole field          0.0003 Ry au, 
 
        Potential amp.       -0.0322 Ry
        Total length         55.1515 bohr
 
 
     Adding external electric field

     Computed dipole along edir(3) : 
        Dipole                0.4773 Ry au,          1.2132 Debye
        Dipole field          0.0003 Ry au, 
 
        Potential amp.       -0.0322 Ry
        Total length         55.1515 bohr
 

     total cpu time spent up to now is      881.1 secs

     total energy              =   -7738.30167287 Ry
     estimated scf accuracy    <       0.00496936 Ry

     total magnetization       =    88.35 Bohr mag/cell
     absolute magnetization    =    89.80 Bohr mag/cell

     iteration # 57     ecut=    50.00 Ry     beta= 0.10
     Davidson diagonalization with overlap
     ethr =  4.55E-07,  avg # of iterations = 13.0

     negative rho (up, down):  6.762E-04 6.653E-04
 
     Adding external electric field

     Computed dipole along edir(3) : 
        Dipole                0.5136 Ry au,          1.3055 Debye
        Dipole field          0.0003 Ry au, 
 
        Potential amp.       -0.0347 Ry
        Total length         55.1515 bohr
 
 
     Adding external electric field

     Computed dipole along edir(3) : 
        Dipole                0.5136 Ry au,          1.3055 Debye
        Dipole field          0.0003 Ry au, 
 
        Potential amp.       -0.0347 Ry
        Total length         55.1515 bohr
 

     total cpu time spent up to now is      901.5 secs

     total energy              =   -7738.30188474 Ry
     estimated scf accuracy    <       0.00323045 Ry

     total magnetization       =    88.39 Bohr mag/cell
     absolute magnetization    =    89.86 Bohr mag/cell

     iteration # 58     ecut=    50.00 Ry     beta= 0.10
     Davidson diagonalization with overlap
     ethr =  2.96E-07,  avg # of iterations =  2.0

[...]
    -5.9179  -5.9003  -5.8856  -5.8776  -5.8644  -5.8438  -5.8358  -5.8063
    -5.7791  -5.7729  -5.7334  -5.7229  -5.7066  -5.6783  -5.6692  -5.6502
    -5.6321  -5.6008  -5.5538  -5.5519  -5.5276  -5.4971  -5.4815  -5.4712
    -5.4669  -5.4353  -5.4291  -5.4011  -5.3837  -5.3680  -5.3545  -5.3261
    -5.2089  -5.1976  -5.1827  -5.1760  -5.1613  -5.1364  -5.0726  -5.0268
    -5.0108  -4.9914  -4.9484  -4.9210  -4.9097  -4.8914  -4.8584  -4.8150
    -4.7930  -4.7381  -4.7275  -4.7117  -4.6733  -4.6539  -4.6244  -4.5479
    -4.5447  -4.4709  -4.4602  -4.4019  -4.3951  -4.3769  -4.3365  -4.3290
    -4.3123  -4.2438  -4.1901  -4.1806  -4.1447  -4.1178  -4.0996  -4.0730
    -4.0648  -4.0399  -4.0384  -3.9665  -3.9210  -3.9004  -3.8897  -3.8497
    -3.8309  -3.8082  -3.7686  -3.7581  -3.7521  -3.7193  -3.6985  -3.6598
    -3.6344  -3.5870  -3.5847  -3.5794  -3.5584  -3.5386  -3.5362  -3.5167
    -3.5013  -3.4787  -3.4574  -3.4516  -3.4427  -3.4291  -3.4047  -3.3902
    -3.3624  -3.3580  -3.3427  -3.3133  -3.3070  -3.2681  -3.2532  -3.2072
    -3.2017  -3.1909  -3.1849  -3.1662  -3.1567  -3.1039  -3.0798  -3.0558
    -3.0334  -3.0147  -3.0098  -2.9998  -2.9964  -2.9848  -2.9678  -2.9299
    -2.9121  -2.8992  -2.8761  -2.8348  -2.8293  -2.8205  -2.7812  -2.7654
    -2.7427  -2.7299  -2.7140  -2.7008  -2.6974  -2.6775  -2.6633  -2.6542
    -2.6364  -2.6307  -2.6225  -2.6017  -2.5916  -2.5815  -2.5741  -2.5600
    -2.5428  -2.5299  -2.5148  -2.4937  -2.4763  -2.4705  -2.4472  -2.4372
    -2.4086  -2.4008  -2.3760  -2.3509  -2.3143  -2.2998  -2.2793  -2.2575
    -2.2465  -2.2315  -2.2098  -2.1696  -2.1570  -2.1372  -2.1261  -2.1010
    -2.0976  -2.0761  -2.0672  -2.0551  -2.0411  -2.0178  -2.0001  -1.9538
    -1.9397  -1.9107  -1.9065  -1.8985  -1.8872  -1.8770  -1.8450  -1.8210
    -1.8108  -1.7955  -1.7777  -1.7709  -1.7595  -1.7499  -1.7323  -1.7137
    -1.6910  -1.6623  -1.6455  -1.6070  -1.5989  -1.5816  -1.5601  -1.5428
    -1.5308  -1.4975  -1.4768  -1.4592  -1.4513  -1.4423  -1.4161  -1.3922
    -1.3852  -1.3745  -1.3530  -1.3440  -1.3190  -1.3037  -1.2487  -1.2434
    -1.2251  -1.2146  -1.1956  -1.1563  -1.1486  -1.0838  -1.0421  -1.0204
    -0.9809  -0.8763  -0.8578  -0.8189  -0.7501  -0.6853  -0.6713  -0.4504
    -0.2863  -0.2399  -0.2104  -0.1077   0.2153   0.2481   0.2699   0.2784
     0.2832   0.2998   0.3332   0.3426   0.3676   0.3797   0.3923   0.3981
     0.4046   0.4171   0.4268   0.4329   0.4410   0.4530   0.4601   0.4685
     0.4752   0.4862   0.4863   0.4949   0.5001   0.5106   0.5121   0.5235
     0.5397   0.5422   0.5517   0.5580   0.5633   0.5683   0.5713   0.5971
     0.6040   0.6065   0.6137   0.6178   0.6317   0.6445   0.6459   0.6480
     0.6637   0.6672   0.6705   0.6812   0.6831   0.7033   0.7075   0.7111
     0.7200   0.7256   0.7279   0.7379   0.7547   0.7675   0.7798   0.7826
     0.7909   0.7947   0.8042   0.8275   0.8318   0.8424   0.8461   0.8486
     0.8605   0.8635   0.8818   0.8969   0.9000   0.9053   0.9170   0.9207
     0.9293   0.9584   0.9683   0.9816   0.9833   0.9857   0.9895   1.0150
     1.0522   1.1288   1.1310   1.2297   1.2518   1.7014   1.7791   1.7869
     1.7923   1.8079   1.8187   1.8354   1.8455   1.8577   1.9411   1.9574
     1.9697   1.9898   2.0148   2.0389   2.0505   2.0791   2.0929   2.1448
     2.1538   2.1698   2.1807   2.2075   2.2209   2.2360   2.2509   2.2666
     2.2777   2.3008   2.3195   2.3355   2.3451   2.3594   2.3891   2.3972
     2.4096   2.4118   2.4589   2.4598   2.4896   2.5076   2.5145   2.5205
     2.5304   2.5375   2.5574   2.5678   2.5862   2.6186   2.6251   2.6436
     2.6648   2.6702   2.6819   2.7407   2.8085   2.8253   2.8807   2.8927
     2.8988   2.9400   3.5160   3.5514   3.6009   3.6320   3.7615   3.7900
     3.8758   3.8890   3.9002   3.9491   3.9621   4.0164   4.0994   4.1074
     4.1166   4.1396   4.1646   4.1698   4.1916   4.2056   4.6753   4.7938
     4.8460   4.8810   4.9493   4.9630   4.9978   5.0521   5.0603   5.1341
     5.1357   5.1937   5.4369   6.2997   6.3905   6.5271   6.6389   6.7330
     6.8140   6.8654   6.9183   6.9622   7.0004   7.0800   7.1483   7.2155
     7.2930   7.3572   7.4059   7.4188   7.4694   7.5036   7.6475   7.6870
     7.7252   7.7612   7.7730   7.8170   7.8608   7.9067   7.9268   7.9665
     8.0234   8.0587   8.0876   8.1156   8.1711   8.1886   8.2107   8.2425
     8.2767   8.3140   8.3688   8.3841   8.4237   8.4339   8.4438   8.4691
     8.4834   8.5099   8.5353   8.5520   8.5882   8.5966   8.6172   8.6701
     8.6929   8.7061   8.7234   8.7463   8.7671   8.8093   8.8411   8.8882

     the Fermi energy is     1.6920 ev

!    total energy              =   -7738.30222489 Ry
     estimated scf accuracy    <       0.00000039 Ry
     smearing contrib. (-TS)   =      -0.02508343 Ry
     internal energy E=F+TS    =   -7738.27714146 Ry

     The total energy is F=E-TS. E is the sum of the following terms:
     one-electron contribution =  -95036.97078569 Ry
     hartree contribution      =   48135.94855301 Ry
     xc contribution           =   -2218.73685089 Ry
     ewald contribution        =   41383.29052466 Ry
     Dispersion Correction     =      -1.80875920 Ry
     electric field correction =       0.00017665 Ry

     total magnetization       =    88.32 Bohr mag/cell
     absolute magnetization    =    89.69 Bohr mag/cell

     convergence has been achieved in  79 iterations

     negative rho (up, down):  1.047E-03 5.887E-04

     Forces acting on atoms (cartesian axes, Ry/au):

     atom    1 type  1   force =     0.02503049   -0.03087894    0.01863882
     atom    2 type  2   force =    -0.01382037   -0.00162003   -0.00975084
     atom    3 type  1   force =    -0.02309845   -0.01838746    0.02004944
     atom    4 type  1   force =     0.00574047    0.00417989   -0.00620335
     atom    5 type  1   force =    -0.00188775    0.00110739   -0.00494775
     atom    6 type  1   force =     0.00207583    0.00771754   -0.00869692
     atom    7 type  3   force =    -0.00773593    0.00116434   -0.01044393
     atom    8 type  3   force =    -0.03500010    0.05415777   -0.08330893
     atom    9 type  3   force =     0.03414582    0.03817130   -0.06430435
     atom   10 type  3   force =    -0.00305350   -0.00247561   -0.01161254
     atom   11 type  4   force =     0.00673819    0.00561879    0.01392358
     atom   12 type  4   force =    -0.00024894   -0.00293296    0.01487557
     atom   13 type  4   force =     0.00194615    0.00171259    0.01742992
     atom   14 type  4   force =    -0.00049636   -0.00126626    0.01276061
     atom   15 type  4   force =    -0.00064421    0.00459408   -0.00204397
     atom   16 type  4   force =    -0.00045470    0.00269343    0.04018809
     atom   17 type  4   force =     0.00174365    0.00817661    0.03764564
     atom   18 type  4   force =     0.00795177   -0.00442224   -0.00054604
     atom   19 type  4   force =     0.00042713    0.01185859    0.00426859
     atom   20 type  4   force =    -0.00962669   -0.02682673   -0.00366919
     atom   21 type  4   force =    -0.01106667   -0.00042686    0.00066224
     atom   22 type  4   force =    -0.03214393    0.00311226    0.00787261
     atom   23 type  4   force =     0.03210182    0.00058409    0.01411688
     atom   24 type  4   force =     0.00700112   -0.03700747    0.00380737
     atom   25 type  4   force =    -0.00312701    0.00169396    0.00394429
     atom   26 type  4   force =     0.01780852   -0.00687773    0.00079648
     atom   27 type  1   force =    -0.00522843   -0.00884123    0.00261518
     atom   28 type  2   force =    -0.01337271   -0.00020390    0.00513554
     atom   29 type  1   force =     0.00301925   -0.00506889   -0.00120476
     atom   30 type  1   force =     0.00252612    0.00501184   -0.00125306
     atom   31 type  1   force =     0.00172460   -0.00457788    0.00024083
     atom   32 type  1   force =    -0.00076439    0.00115202   -0.00178331
     atom   33 type  3   force =    -0.00624097   -0.00191558   -0.00267042
     atom   34 type  3   force =    -0.00801063    0.00261138   -0.00029201
     atom   35 type  3   force =     0.00447781   -0.00068702    0.00276514
     atom   36 type  3   force =     0.00093833   -0.00219944   -0.00388661
     atom   37 type  4   force =     0.00866990    0.00542609    0.00770298
     atom   38 type  4   force =     0.00379648   -0.00089679   -0.01929705
     atom   39 type  4   force =    -0.00156627    0.00361073   -0.00992810
     atom   40 type  4   force =    -0.00142909   -0.00246518    0.00913599
     atom   41 type  4   force =    -0.00141608    0.00341967   -0.00677304
     atom   42 type  4   force =    -0.00423112   -0.00460406    0.01806618
     atom   43 type  4   force =     0.00766636    0.00336968    0.00775950
     atom   44 type  4   force =     0.00987534   -0.00558255   -0.00576383
     atom   45 type  4   force =     0.00282975    0.00464817    0.00054330
     atom   46 type  4   force =     0.00229381   -0.00004859   -0.00560397
     atom   47 type  4   force =    -0.01283118   -0.00023973   -0.00369536
     atom   48 type  4   force =    -0.01459825    0.00126704    0.00340135
     atom   49 type  4   force =     0.01344241    0.00252873    0.00440718
     atom   50 type  4   force =    -0.00268682   -0.00482861   -0.00046924
     atom   51 type  4   force =    -0.00527520    0.00153837    0.00051193
     atom   52 type  4   force =     0.01531389   -0.00407050   -0.00447734
     atom   53 type  1   force =    -0.00003828   -0.00035690    0.00001827
     atom   54 type  2   force =    -0.00013708   -0.00035534   -0.00034711
     atom   55 type  1   force =     0.00001706   -0.00006940   -0.00028238
     atom   56 type  1   force =     0.00000309   -0.00011094   -0.00030203
     atom   57 type  1   force =    -0.00063986    0.00053736    0.00021370
     atom   58 type  1   force =     0.00060492    0.00074240   -0.00035043
     atom   59 type  3   force =     0.00037290    0.00018113   -0.00034433
     atom   60 type  3   force =     0.00007523   -0.00005997    0.00022124
     atom   61 type  3   force =     0.00025102   -0.00022127    0.00000083
     atom   62 type  3   force =    -0.00057664   -0.00021457    0.00031207
     atom   63 type  4   force =     0.00036345    0.00018696   -0.00012438
     atom   64 type  4   force =     0.00020104   -0.00006000    0.00047730
     atom   65 type  4   force =    -0.00024441   -0.00025017    0.00032073
     atom   66 type  4   force =     0.00003808    0.00008083    0.00047387
     atom   67 type  4   force =    -0.00006672   -0.00024789   -0.00037451
     atom   68 type  4   force =     0.00063087    0.00022059    0.00011360
     atom   69 type  4   force =    -0.00046848   -0.00030288    0.00017798
     atom   70 type  4   force =     0.00035143   -0.00006693   -0.00002384
     atom   71 type  4   force =    -0.00017853   -0.00038834   -0.00013218
     atom   72 type  4   force =    -0.00040526   -0.00027289   -0.00026894
     atom   73 type  4   force =     0.00016403    0.00032389    0.00011215
     atom   74 type  4   force =    -0.00012884   -0.00034481   -0.00051147
     atom   75 type  4   force =    -0.00015809   -0.00021813   -0.00025442
     atom   76 type  4   force =     0.00001767   -0.00005259   -0.00032251
     atom   77 type  4   force =     0.00006646   -0.00009286    0.00019206
     atom   78 type  4   force =     0.00005623    0.00011012   -0.00019962
     atom   79 type  1   force =     0.02503134   -0.03090147    0.01867888
     atom   80 type  2   force =    -0.01373748   -0.00159967   -0.00976407
     atom   81 type  1   force =    -0.02308790   -0.01837307    0.02004999
     atom   82 type  1   force =     0.00570578    0.00418167   -0.00619813
     atom   83 type  1   force =    -0.00188514    0.00110574   -0.00495171
     atom   84 type  1   force =     0.00204232    0.00771256   -0.00869963
     atom   85 type  3   force =    -0.00772418    0.00117674   -0.01045200
     atom   86 type  3   force =    -0.03499418    0.05415591   -0.08331184
     atom   87 type  3   force =     0.03415138    0.03817186   -0.06430571
     atom   88 type  3   force =    -0.00306576   -0.00247713   -0.01161586
     atom   89 type  4   force =     0.00686163    0.00562642    0.01393097
     atom   90 type  4   force =    -0.00014983   -0.00284727    0.01487910
     atom   91 type  4   force =     0.00203588    0.00170547    0.01740220
     atom   92 type  4   force =    -0.00033291   -0.00126092    0.01276670
     atom   93 type  4   force =    -0.00063408    0.00479944   -0.00191804
     atom   94 type  4   force =    -0.00051632    0.00265179    0.03997295
     atom   95 type  4   force =     0.00187488    0.00817896    0.03764372
     atom   96 type  4   force =     0.00774357   -0.00444217   -0.00055084
     atom   97 type  4   force =     0.00052977    0.01193191    0.00415906
     atom   98 type  4   force =    -0.00951829   -0.02665922   -0.00363713
     atom   99 type  4   force =    -0.01109147   -0.00039224    0.00086074
     atom  100 type  4   force =    -0.03217170    0.00300882    0.00774882
     atom  101 type  4   force =     0.03212845    0.00058339    0.01412375
     atom  102 type  4   force =     0.00681707   -0.03701227    0.00381137
     atom  103 type  4   force =    -0.00303262    0.00163451    0.00391535
     atom  104 type  4   force =     0.01791038   -0.00688117    0.00079990
     atom  105 type  1   force =    -0.00527130   -0.00884896    0.00269957
     atom  106 type  2   force =    -0.01410771   -0.00078873    0.00564537
     atom  107 type  1   force =     0.00301696   -0.00495901   -0.00116742
     atom  108 type  1   force =     0.00382745    0.00362120    0.00174941
     atom  109 type  1   force =     0.00135142   -0.00464350    0.00016342
     atom  110 type  1   force =    -0.00082051    0.00112165   -0.00177620
     atom  111 type  3   force =    -0.00636397   -0.00075111   -0.00038949
     atom  112 type  3   force =    -0.00797900    0.00258289   -0.00025337
     atom  113 type  3   force =     0.00436717   -0.00059139    0.00290806
     atom  114 type  3   force =     0.00093382   -0.00175114   -0.00497925
     atom  115 type  4   force =     0.00834223    0.00488186    0.00723805
     atom  116 type  4   force =     0.00382736   -0.00092074   -0.01931018
     atom  117 type  4   force =    -0.00138354    0.00366143   -0.00995025
     atom  118 type  4   force =    -0.00173740   -0.00241583    0.00915889
     atom  119 type  4   force =    -0.00030177    0.00316572   -0.00608962
     atom  120 type  4   force =    -0.00419655   -0.00465445    0.01811345
     atom  121 type  4   force =     0.00771472    0.00337193    0.00778368
     atom  122 type  4   force =     0.01019212   -0.00489493   -0.00766422
     atom  123 type  4   force =     0.00274514    0.00428685    0.00048410
     atom  124 type  4   force =     0.00222754   -0.00009922   -0.00561134
     atom  125 type  4   force =    -0.01273963   -0.00010284   -0.00357852
     atom  126 type  4   force =    -0.01462102    0.00126716    0.00334072
     atom  127 type  4   force =     0.01348007    0.00246054    0.00455017
     atom  128 type  4   force =    -0.00281976   -0.00484683   -0.00047727
     atom  129 type  4   force =    -0.00504838    0.00149747   -0.00009147
     atom  130 type  4   force =     0.01589778   -0.00427017   -0.00433137
     atom  131 type  1   force =    -0.00021254   -0.00019256   -0.00010843
     atom  132 type  2   force =     0.00026125   -0.00031473   -0.00026972
     atom  133 type  1   force =    -0.00066462    0.00018202   -0.00008563
     atom  134 type  1   force =     0.00230296   -0.00221429    0.00252129
     atom  135 type  1   force =    -0.00003012    0.00063558   -0.00054180
     atom  136 type  1   force =     0.00047824    0.00075481    0.00003521
     atom  137 type  3   force =     0.00017760    0.00039509   -0.00027435
     atom  138 type  3   force =    -0.00029521    0.00036000    0.00027928
     atom  139 type  3   force =     0.00009449   -0.00041100    0.00015078
     atom  140 type  3   force =    -0.00032629   -0.00023317   -0.00014682
     atom  141 type  4   force =     0.00023974   -0.00018584    0.00042032
     atom  142 type  4   force =    -0.00036543    0.00037408    0.00035126
     atom  143 type  4   force =    -0.00034442   -0.00022365    0.00074206
     atom  144 type  4   force =    -0.00018592   -0.00029321    0.00001660
     atom  145 type  4   force =     0.00015242   -0.00033922   -0.00059811
     atom  146 type  4   force =     0.00066466   -0.00040530    0.00004126
     atom  147 type  4   force =     0.00008298    0.00005491    0.00040882
     atom  148 type  4   force =     0.00020547   -0.00058043   -0.00066139
     atom  149 type  4   force =    -0.00054964    0.00016445    0.00035273
     atom  150 type  4   force =    -0.00037216   -0.00039222   -0.00022954
     atom  151 type  4   force =    -0.00044908    0.00011710   -0.00009570
     atom  152 type  4   force =     0.00018873   -0.00033445   -0.00046801
     atom  153 type  4   force =    -0.00056485   -0.00033994    0.00001832
     atom  154 type  4   force =     0.00047957    0.00005847   -0.00009484
     atom  155 type  4   force =     0.00052454    0.00043227    0.00004387
     atom  156 type  4   force =     0.00014954    0.00052190   -0.00031798
     atom  157 type  4   force =    -0.00547520   -0.00077421   -0.00493823
     atom  158 type  5   force =     0.00300890    0.00155358    0.00051034

     Total force =     0.262724     Total SCF correction =     0.002808
 
     init_run     :      8.67s CPU      9.25s WALL (       1 calls)
     electrons    :   1158.67s CPU   1203.45s WALL (       1 calls)
     forces       :      4.70s CPU      4.97s WALL (       1 calls)
     force_london :      0.09s CPU      0.09s WALL (       1 calls)

     Called by init_run:
     wfcinit      :      5.14s CPU      5.31s WALL (       1 calls)
     potinit      :      0.63s CPU      0.80s WALL (       1 calls)
     hinit0       :      1.69s CPU      1.75s WALL (       1 calls)

     Called by electrons:
     c_bands      :    907.77s CPU    932.69s WALL (      79 calls)
     sum_band     :    154.45s CPU    165.20s WALL (      79 calls)
     v_of_rho     :     20.82s CPU     21.81s WALL (      80 calls)
     newd         :     51.32s CPU     59.40s WALL (      80 calls)
     mix_rho      :     23.22s CPU     23.30s WALL (      79 calls)
     energy_londo :      0.09s CPU      0.09s WALL (       1 calls)

     Called by c_bands:
     init_us_2    :      1.69s CPU      1.75s WALL (     320 calls)
     init_us_2:cp :      1.69s CPU      1.74s WALL (     320 calls)
     regterg      :    891.44s CPU    916.18s WALL (     159 calls)

     Called by *egterg:
     rdiaghg      :    245.67s CPU    258.92s WALL (     696 calls)
     h_psi        :    326.21s CPU    331.46s WALL (     698 calls)
     s_psi        :     44.54s CPU     44.56s WALL (     698 calls)
     g_psi        :      0.33s CPU      0.34s WALL (     537 calls)

     Called by h_psi:
     h_psi:calbec :     88.32s CPU     92.54s WALL (     698 calls)
     vloc_psi     :    190.36s CPU    190.94s WALL (     698 calls)
     add_vuspsi   :     47.02s CPU     47.45s WALL (     698 calls)

     General routines
     calbec       :    130.04s CPU    136.36s WALL (     864 calls)
     fft          :     42.21s CPU     43.63s WALL (    1453 calls)
     ffts         :     13.34s CPU     13.36s WALL (    9833 calls)
     fftw         :    222.22s CPU    222.84s WALL (  268008 calls)
     interpolate  :      1.56s CPU      1.79s WALL (     160 calls)
 
     Parallel routines
 
     PWSCF        :  19m35.16s CPU  20m21.11s WALL

 
   This run was terminated on:  22:32:34  17Nov2025            

=------------------------------------------------------------------------------=
   JOB DONE.
=------------------------------------------------------------------------------=
