
     Program PWSCF v.7.2 starts on 17Nov2025 at 22:32:38 

     This program is part of the open-source Quantum ESPRESSO suite
     for quantum simulation of materials; please cite
         "P. Giannozzi et al., J. Phys.:Condens. Matter 21 395502 (2009);
         "P. Giannozzi et al., J. Phys.:Condens. Matter 29 465901 (2017);
         "P. Giannozzi et al., J. Chem. Phys. 152 154105 (2020);
          URL http://www.quantum-espresso.org", 
     in publications or presentations arising from this work. More details at
     http://www.quantum-espresso.org/quote

     Parallel version (MPI), running on    64 processors

     MPI processes distributed on     4 nodes
     479346 MiB available memory on the printing compute node when the environment starts
 
     Reading input from PWINPUT_atm157_zm

     Current dimensions of program PWSCF are:
     Max number of different atomic species (ntypx) = 10
     Max number of k-points (npk) =  40000
     Max angular momentum in pseudopotentials (lmaxx) =  4
     Presently no symmetry can be used with electric field

     file Ni.pbe-n-rrkjus_psl.1.0.0.UPF: wavefunction(s)  3D renormalized
     file Mn.pbe-spn-rrkjus_psl.0.3.1.UPF: wavefunction(s)  3D renormalized
     file O.pbe-rrkjus.UPF: wavefunction(s)  2S renormalized
     file H.pbe-rrkjus.UPF: wavefunction(s)  1S renormalized

     gamma-point specific algorithms are used
 
     R & G space division:  proc/nbgrp/npool/nimage =      64
     Subspace diagonalization in iterative solution of the eigenvalue problem:
     one sub-group per band group will be used
     custom distributed-memory algorithm (size of sub-group:  7*  7 procs)

 
     Parallelization info
     --------------------
     sticks:   dense  smooth     PW     G-vecs:    dense   smooth      PW
     Min         207      82     20                60552    15302    1896
     Max         210      84     22                60574    15336    1950
     Sum       13325    5345   1333              3876045   980655  122653
 
     Using Slab Decomposition
 


     bravais-lattice index     =            0
     lattice parameter (alat)  =      17.4067  a.u.
     unit-cell volume          =   20529.8182 (a.u.)^3
     number of atoms/cell      =          158
     number of atomic types    =            5
     number of electrons       =      1093.00
     number of Kohn-Sham states=          656
     kinetic-energy cutoff     =      50.0000  Ry
     charge density cutoff     =     500.0000  Ry
     scf convergence threshold =      1.0E-06
     mixing beta               =       0.1000
     number of iterations used =            8  local-TF  mixing
     Exchange-correlation=  SLA  PW   PBE  PBE
                           (   1   4   3   4   0   0   0)

     celldm(1)=  17.406729  celldm(2)=   0.000000  celldm(3)=   0.000000
     celldm(4)=   0.000000  celldm(5)=   0.000000  celldm(6)=   0.000000

     crystal axes: (cart. coord. in units of alat)
               a(1) = (   1.000000   0.000000   0.000000 )  
               a(2) = (  -0.001404   1.105696   0.000000 )  
               a(3) = (   0.000000   0.000000   3.520448 )  

     reciprocal axes: (cart. coord. in units 2 pi/alat)
               b(1) = (  1.000000  0.001270  0.000000 )  
               b(2) = (  0.000000  0.904408  0.000000 )  
               b(3) = (  0.000000  0.000000  0.284055 )  


     PseudoPot. # 1 for Ni read from file:
     ~/PSEUDO/Ni.pbe-n-rrkjus_psl.1.0.0.UPF
     MD5 check sum: Not computed, couldn't open file
     Pseudo is Ultrasoft + core correction, Zval = 10.0
     Generated using "atomic" code by A. Dal Corso  v.5.1.2
     Using radial grid of 1195 points,  6 beta functions with: 
                l(1) =   0
                l(2) =   0
                l(3) =   1
                l(4) =   1
                l(5) =   2
                l(6) =   2
     Q(r) pseudized with 0 coefficients 


     PseudoPot. # 2 for Mn read from file:
     ~/PSEUDO/Mn.pbe-spn-rrkjus_psl.0.3.1.UPF
     MD5 check sum: Not computed, couldn't open file
     Pseudo is Ultrasoft + core correction, Zval = 15.0
     Generated using &quot;atomic&quot; code by A. Dal Corso  v.6.2.2
     Using radial grid of 1187 points,  6 beta functions with: 
                l(1) =   0
                l(2) =   0
                l(3) =   1
                l(4) =   1
                l(5) =   2
                l(6) =   2
     Q(r) pseudized with 0 coefficients 


     PseudoPot. # 3 for P  read from file:
     ~/PSEUDO/P.pbe-n-rrkjus_psl.1.0.0.UPF
     MD5 check sum: Not computed, couldn't open file
     Pseudo is Ultrasoft + core correction, Zval =  5.0
     Generated using "atomic" code by A. Dal Corso  v.5.1
     Using radial grid of 1147 points,  6 beta functions with: 
                l(1) =   0
                l(2) =   0
                l(3) =   1
                l(4) =   1
                l(5) =   2
                l(6) =   2
     Q(r) pseudized with 0 coefficients 


     PseudoPot. # 4 for O  read from file:
     ~/PSEUDO/O.pbe-rrkjus.UPF
     MD5 check sum: Not computed, couldn't open file
     Pseudo is Ultrasoft, Zval =  6.0
     Generated by new atomic code, or converted to UPF format
     Using radial grid of 1269 points,  4 beta functions with: 
                l(1) =   0
                l(2) =   0
                l(3) =   1
                l(4) =   1
     Q(r) pseudized with 0 coefficients 


     PseudoPot. # 5 for H  read from file:
     ~/PSEUDO/H.pbe-rrkjus.UPF
     MD5 check sum: Not computed, couldn't open file
     Pseudo is Ultrasoft, Zval =  1.0
     Generated by new atomic code, or converted to UPF format
     Using radial grid of 1061 points,  2 beta functions with: 
                l(1) =   0
                l(2) =   0
     Q(r) pseudized with 0 coefficients 


     atomic species   valence    mass     pseudopotential
     Ni               10.00    58.69300     Ni( 1.00)
     Mn               15.00    54.93800     Mn( 1.00)
     P                 5.00    30.97300     P ( 1.00)
     O                 6.00    15.99900     O ( 1.00)
     H                 1.00     1.00790     H ( 1.00)

     Starting magnetic structure 
     atomic species   magnetization
     Ni              1.000
     Mn              1.000
     P               1.000
     O               1.000
     H               0.000

     No symmetry found



   Cartesian axes

     site n.     atom                  positions (alat units)
         1        Ni     tau(   1) = (   0.2421002   0.8609138   0.1302181  )
         2        Mn     tau(   2) = (   0.4924481   0.7886602   0.4655392  )
         3        Ni     tau(   3) = (   0.0052341   0.3031820   0.1284544  )
         4        Ni     tau(   4) = (   0.2570603   0.2374878   0.4617901  )
         5        Ni     tau(   5) = (   0.4976584   1.1048203   0.2964410  )
         6        Ni     tau(   6) = (   0.2495781   0.5440308   0.2953805  )
         7        P      tau(   7) = (   0.2083492   0.9982113   0.4588145  )
         8        P      tau(   8) = (   0.4584476   0.6559264   0.1347090  )
         9        P      tau(   9) = (   0.2889394   0.1031966   0.1319347  )
        10        P      tau(  10) = (   0.0400379   0.4338094   0.4586283  )
        11        O      tau(  11) = (   0.1314218   0.9248062   0.3189972  )
        12        O      tau(  12) = (   0.3797244   0.7272031   0.2742874  )
        13        O      tau(  13) = (   0.3662315   0.1762062   0.2720888  )
        14        O      tau(  14) = (   0.1171240   0.3646150   0.3169340  )
        15        O      tau(  15) = (   0.1510364   0.9068326   0.5881934  )
        16        O      tau(  16) = (   0.3981989   0.7453439   0.0053495  )
        17        O      tau(  17) = (   0.3490561   0.1888693   0.0010856  )
        18        O      tau(  18) = (   0.0982395   0.3475583   0.5894443  )
        19        O      tau(  19) = (   0.0992163   0.5918099   0.4542505  )
        20        O      tau(  20) = (   0.3467441   1.0504690   0.1405000  )
        21        O      tau(  21) = (   0.3739183   0.4303319   0.4477971  )
        22        O      tau(  22) = (   0.1230967   0.1088895   0.1422960  )
        23        O      tau(  23) = (   0.1242901   0.6635968   0.1442928  )
        24        O      tau(  24) = (   0.4011802   0.4971632   0.1376281  )
        25        O      tau(  25) = (   0.1484006   0.0497464   0.4550965  )
        26        O      tau(  26) = (   0.3736100   0.9942556   0.4492158  )
        27        Ni     tau(  27) = (   0.2413539   0.8509941   0.7820408  )
        28        Mn     tau(  28) = (   0.4917018   0.7787406   1.1173619  )
        29        Ni     tau(  29) = (   0.0044877   0.2932623   0.7802771  )
        30        Ni     tau(  30) = (   0.2563139   0.2275682   1.1136128  )
        31        Ni     tau(  31) = (   0.4969120   1.0949007   0.9482637  )
        32        Ni     tau(  32) = (   0.2488318   0.5341111   0.9472032  )
        33        P      tau(  33) = (   0.2076029   0.9882917   1.1106372  )
        34        P      tau(  34) = (   0.4577012   0.6460068   0.7865316  )
        35        P      tau(  35) = (   0.2881931   0.0932770   0.7837574  )
        36        P      tau(  36) = (   0.0392916   0.4238898   1.1104509  )
        37        O      tau(  37) = (   0.1306755   0.9148866   0.9708199  )
        38        O      tau(  38) = (   0.3789780   0.7172835   0.9261101  )
        39        O      tau(  39) = (   0.3654852   0.1662865   0.9239115  )
        40        O      tau(  40) = (   0.1163776   0.3546954   0.9687567  )
        41        O      tau(  41) = (   0.1502901   0.8969129   1.2400160  )
        42        O      tau(  42) = (   0.3974525   0.7354243   0.6571722  )
        43        O      tau(  43) = (   0.3483097   0.1789497   0.6529083  )
        44        O      tau(  44) = (   0.0974932   0.3376387   1.2412670  )
        45        O      tau(  45) = (   0.0984699   0.5818903   1.1060732  )
        46        O      tau(  46) = (   0.3459978   1.0405493   0.7923226  )
        47        O      tau(  47) = (   0.3731719   0.4204123   1.0996198  )
        48        O      tau(  48) = (   0.1223503   0.0989699   0.7941187  )
        49        O      tau(  49) = (   0.1235438   0.6536772   0.7961155  )
        50        O      tau(  50) = (   0.4004339   0.4872435   0.7894508  )
        51        O      tau(  51) = (   0.1476543   0.0398268   1.1069192  )
        52        O      tau(  52) = (   0.3728637   0.9843360   1.1010385  )
        53        Ni     tau(  53) = (   0.2408392   0.8320559   1.4307548  )
        54        Mn     tau(  54) = (   0.4954146   0.7586327   1.7610775  )
        55        Ni     tau(  55) = (   0.0038240   0.2752655   1.4301830  )
        56        Ni     tau(  56) = (   0.2490297   0.2126224   1.7413163  )
        57        Ni     tau(  57) = (   0.5009698   1.0727426   1.5934065  )
        58        Ni     tau(  58) = (   0.2431858   0.5187785   1.5959132  )
        59        P      tau(  59) = (   0.2122300   0.9646931   1.7577827  )
        60        P      tau(  60) = (   0.4560273   0.6255665   1.4349308  )
        61        P      tau(  61) = (   0.2895010   0.0747953   1.4294223  )
        62        P      tau(  62) = (   0.0342753   0.4049908   1.7624825  )
        63        O      tau(  63) = (   0.1360342   0.9011422   1.6115162  )
        64        O      tau(  64) = (   0.3787980   0.6986865   1.5736904  )
        65        O      tau(  65) = (   0.3677510   0.1474149   1.5681507  )
        66        O      tau(  66) = (   0.1091522   0.3445019   1.6130708  )
        67        O      tau(  67) = (   0.1535140   0.8654492   1.8774963  )
        68        O      tau(  68) = (   0.3948076   0.7176264   1.3082772  )
        69        O      tau(  69) = (   0.3502162   0.1643066   1.3009305  )
        70        O      tau(  70) = (   0.0993202   0.3091187   1.8805971  )
        71        O      tau(  71) = (   0.0903777   0.5660296   1.7630811  )
        72        O      tau(  72) = (   0.3492636   1.0227954   1.4341724  )
        73        O      tau(  73) = (   0.3646020   0.4001049   1.7428273  )
        74        O      tau(  74) = (   0.1232632   0.0821777   1.4436547  )
        75        O      tau(  75) = (   0.1218485   0.6357099   1.4465986  )
        76        O      tau(  76) = (   0.3950879   0.4683338   1.4358038  )
        77        O      tau(  77) = (   0.1575600   0.0186245   1.7589158  )
        78        O      tau(  78) = (   0.3794955   0.9564473   1.7469906  )
        79        Ni     tau(  79) = (   0.7421002   0.8609138   0.1302181  )
        80        Mn     tau(  80) = (   0.9924481   0.7886602   0.4655392  )
        81        Ni     tau(  81) = (   0.5052341   0.3031820   0.1284544  )
        82        Ni     tau(  82) = (   0.7570603   0.2374878   0.4617901  )
        83        Ni     tau(  83) = (   0.9976584   1.1048203   0.2964410  )
        84        Ni     tau(  84) = (   0.7495781   0.5440308   0.2953805  )
        85        P      tau(  85) = (   0.7083492   0.9982113   0.4588145  )
        86        P      tau(  86) = (   0.9584476   0.6559264   0.1347090  )
        87        P      tau(  87) = (   0.7889394   0.1031966   0.1319347  )
        88        P      tau(  88) = (   0.5400379   0.4338094   0.4586283  )
        89        O      tau(  89) = (   0.6314218   0.9248062   0.3189972  )
        90        O      tau(  90) = (   0.8797244   0.7272031   0.2742874  )
        91        O      tau(  91) = (   0.8662315   0.1762062   0.2720888  )
        92        O      tau(  92) = (   0.6171240   0.3646150   0.3169340  )
        93        O      tau(  93) = (   0.6510364   0.9068326   0.5881934  )
        94        O      tau(  94) = (   0.8981989   0.7453439   0.0053495  )
        95        O      tau(  95) = (   0.8490561   0.1888693   0.0010856  )
        96        O      tau(  96) = (   0.5982395   0.3475583   0.5894443  )
        97        O      tau(  97) = (   0.5992163   0.5918099   0.4542505  )
        98        O      tau(  98) = (   0.8467441   1.0504690   0.1405000  )
        99        O      tau(  99) = (   0.8739183   0.4303319   0.4477971  )
       100        O      tau( 100) = (   0.6230967   0.1088895   0.1422960  )
       101        O      tau( 101) = (   0.6242901   0.6635968   0.1442928  )
       102        O      tau( 102) = (   0.9011802   0.4971632   0.1376281  )
       103        O      tau( 103) = (   0.6484006   0.0497464   0.4550965  )
       104        O      tau( 104) = (   0.8736100   0.9942556   0.4492158  )
       105        Ni     tau( 105) = (   0.7413539   0.8509941   0.7820408  )
       106        Mn     tau( 106) = (   0.9917018   0.7787406   1.1173619  )
       107        Ni     tau( 107) = (   0.5044877   0.2932623   0.7802771  )
       108        Ni     tau( 108) = (   0.7563139   0.2275682   1.1136128  )
       109        Ni     tau( 109) = (   0.9969120   1.0949007   0.9482637  )
       110        Ni     tau( 110) = (   0.7488318   0.5341111   0.9472032  )
       111        P      tau( 111) = (   0.7076029   0.9882917   1.1106372  )
       112        P      tau( 112) = (   0.9577012   0.6460068   0.7865316  )
       113        P      tau( 113) = (   0.7881931   0.0932770   0.7837574  )
       114        P      tau( 114) = (   0.5392916   0.4238898   1.1104509  )
       115        O      tau( 115) = (   0.6306755   0.9148866   0.9708199  )
       116        O      tau( 116) = (   0.8789780   0.7172835   0.9261101  )
       117        O      tau( 117) = (   0.8654852   0.1662865   0.9239115  )
       118        O      tau( 118) = (   0.6163776   0.3546954   0.9687567  )
       119        O      tau( 119) = (   0.6502901   0.8969129   1.2400160  )
       120        O      tau( 120) = (   0.8974525   0.7354243   0.6571722  )
       121        O      tau( 121) = (   0.8483097   0.1789497   0.6529083  )
       122        O      tau( 122) = (   0.5974932   0.3376387   1.2412670  )
       123        O      tau( 123) = (   0.5984699   0.5818903   1.1060732  )
       124        O      tau( 124) = (   0.8459978   1.0405493   0.7923226  )
       125        O      tau( 125) = (   0.8731719   0.4204123   1.0996198  )
       126        O      tau( 126) = (   0.6223503   0.0989699   0.7941187  )
       127        O      tau( 127) = (   0.6235438   0.6536772   0.7961155  )
       128        O      tau( 128) = (   0.9004339   0.4872435   0.7894508  )
       129        O      tau( 129) = (   0.6476543   0.0398268   1.1069192  )
       130        O      tau( 130) = (   0.8728637   0.9843360   1.1010385  )
       131        Ni     tau( 131) = (   0.7412940   0.8317433   1.4310133  )
       132        Mn     tau( 132) = (   0.9942976   0.7631104   1.7617718  )
       133        Ni     tau( 133) = (   0.5047574   0.2752797   1.4288709  )
       134        Ni     tau( 134) = (   0.7578350   0.2028549   1.7762646  )
       135        Ni     tau( 135) = (   0.9991757   1.0753039   1.5972728  )
       136        Ni     tau( 136) = (   0.7442600   0.5152897   1.5986856  )
       137        P      tau( 137) = (   0.7103622   0.9612778   1.7571285  )
       138        P      tau( 138) = (   0.9553703   0.6259627   1.4358934  )
       139        P      tau( 139) = (   0.7893263   0.0766982   1.4325513  )
       140        P      tau( 140) = (   0.5325678   0.3983667   1.7561030  )
       141        O      tau( 141) = (   0.6347348   0.8960507   1.6104236  )
       142        O      tau( 142) = (   0.8786872   0.6982692   1.5748233  )
       143        O      tau( 143) = (   0.8656120   0.1503721   1.5709854  )
       144        O      tau( 144) = (   0.6103215   0.3431354   1.6091064  )
       145        O      tau( 145) = (   0.6551320   0.8592875   1.8763947  )
       146        O      tau( 146) = (   0.8944353   0.7174045   1.3087138  )
       147        O      tau( 147) = (   0.8496681   0.1651992   1.3026615  )
       148        O      tau( 148) = (   0.5874463   0.2980729   1.8752625  )
       149        O      tau( 149) = (   0.5882302   0.5598447   1.7638488  )
       150        O      tau( 150) = (   0.8489894   1.0242576   1.4369886  )
       151        O      tau( 151) = (   0.8668845   0.4032412   1.7522286  )
       152        O      tau( 152) = (   0.6225444   0.0814235   1.4420664  )
       153        O      tau( 153) = (   0.6223363   0.6337860   1.4464754  )
       154        O      tau( 154) = (   0.8959961   0.4681766   1.4379317  )
       155        O      tau( 155) = (   0.6491461   0.0122190   1.7550753  )
       156        O      tau( 156) = (   0.8775761   0.9554460   1.7441695  )
       157        O      tau( 157) = (   0.8703181   0.1184006   1.9145703  )
       158        H      tau( 158) = (   0.9557521   0.1787018   1.9403932  )

     -------------------------------------------------
     Parameters for Dispersion (Grimme-D2) Correction:
     -------------------------------------------------
       atom      VdW radius       C_6     

        Ni         2.952        374.666
        Mn         2.952        374.666
        P          3.222        271.980
        O          2.536         24.284
        H          1.892          4.857

     number of k points=     1  Gaussian smearing, width (Ry)=  0.0100
                       cart. coord. in units 2pi/alat
        k(    1) = (   0.0000000   0.0000000   0.0000000), wk =   1.0000000

     Dense  grid:  1938023 G-vectors     FFT dimensions: ( 125, 144, 450)

     Smooth grid:   490328 G-vectors     FFT dimensions: (  80,  90, 288)

     Estimated max dynamical RAM per process >     326.29 MB

     Estimated total dynamical RAM >      20.39 GB

     Check: negative core charge=   -0.000001
     Generating pointlists ...
     new r_m :   0.0814 (alat units)  1.4164 (a.u.) for type    1
     new r_m :   0.0904 (alat units)  1.5743 (a.u.) for type    2
     new r_m :   0.0681 (alat units)  1.1857 (a.u.) for type    3
     new r_m :   0.0444 (alat units)  0.7734 (a.u.) for type    4
     new r_m :   0.0444 (alat units)  0.7734 (a.u.) for type    5

     Initial potential from superposition of free atoms

     starting charge    1092.8893, renormalised to    1093.0000

     negative rho (up, down):  1.375E-03 4.556E-04
 
     Adding external electric field

     Computed dipole along edir(3) : 
        Dipole                1.6484 Ry au,          4.1898 Debye
        Dipole field          0.0010 Ry au, 
 
        Potential amp.       -0.1113 Ry
        Total length         55.1515 bohr
 
 
     Adding external electric field

     Computed dipole along edir(3) : 
        Dipole                1.6484 Ry au,          4.1898 Debye
        Dipole field          0.0010 Ry au, 
 
        Potential amp.       -0.1113 Ry
        Total length         55.1515 bohr
 
     Starting wfcs are  815 randomized atomic wfcs

     total cpu time spent up to now is       11.1 secs

     Self-consistent Calculation

     iteration #  1     ecut=    50.00 Ry     beta= 0.10
     Davidson diagonalization with overlap
     ethr =  1.00E-02,  avg # of iterations =  6.0

     negative rho (up, down):  3.876E-01 1.511E-06
 
     Adding external electric field

     Computed dipole along edir(3) : 
        Dipole               -3.5312 Ry au,         -8.9755 Debye
        Dipole field         -0.0022 Ry au, 
 
        Potential amp.        0.2384 Ry
        Total length         55.1515 bohr
 
 
     Adding external electric field

     Computed dipole along edir(3) : 
        Dipole               -3.5312 Ry au,         -8.9755 Debye
        Dipole field         -0.0022 Ry au, 
 
        Potential amp.        0.2384 Ry
        Total length         55.1515 bohr
 

     total cpu time spent up to now is       42.7 secs

     total energy              =   -7518.10745211 Ry
     estimated scf accuracy    <     751.52771231 Ry

     total magnetization       =   219.00 Bohr mag/cell
     absolute magnetization    =   307.80 Bohr mag/cell

     iteration #  2     ecut=    50.00 Ry     beta= 0.10
     Davidson diagonalization with overlap
     ethr =  1.00E-02,  avg # of iterations =  2.0

     negative rho (up, down):  3.625E-01 8.968E-07
 
     Adding external electric field

     Computed dipole along edir(3) : 
        Dipole               -2.4593 Ry au,         -6.2510 Debye
        Dipole field         -0.0015 Ry au, 
 
        Potential amp.        0.1660 Ry
        Total length         55.1515 bohr
 
 
     Adding external electric field

     Computed dipole along edir(3) : 
        Dipole               -2.4593 Ry au,         -6.2510 Debye
        Dipole field         -0.0015 Ry au, 
 
        Potential amp.        0.1660 Ry
        Total length         55.1515 bohr
 

     total cpu time spent up to now is       59.8 secs

     total energy              =   -7601.60788182 Ry
     estimated scf accuracy    <     187.54014238 Ry

     total magnetization       =   156.87 Bohr mag/cell
     absolute magnetization    =   206.00 Bohr mag/cell

     iteration #  3     ecut=    50.00 Ry     beta= 0.10
     Davidson diagonalization with overlap
     ethr =  1.00E-02,  avg # of iterations =  1.5

     negative rho (up, down):  3.192E-01 8.175E-07
 
     Adding external electric field

     Computed dipole along edir(3) : 
        Dipole               -2.0777 Ry au,         -5.2809 Debye
        Dipole field         -0.0013 Ry au, 
 
        Potential amp.        0.1403 Ry
        Total length         55.1515 bohr
 
 
     Adding external electric field

     Computed dipole along edir(3) : 
        Dipole               -2.0777 Ry au,         -5.2809 Debye
        Dipole field         -0.0013 Ry au, 
 
        Potential amp.        0.1403 Ry
        Total length         55.1515 bohr
 

     total cpu time spent up to now is       73.9 secs

     total energy              =   -7633.18256487 Ry
     estimated scf accuracy    <     101.79826996 Ry

     total magnetization       =   133.59 Bohr mag/cell
     absolute magnetization    =   184.95 Bohr mag/cell

     iteration #  4     ecut=    50.00 Ry     beta= 0.10
     Davidson diagonalization with overlap
     ethr =  9.31E-03,  avg # of iterations =  1.5

     negative rho (up, down):  2.491E-01 3.553E-07
 
     Adding external electric field

     Computed dipole along edir(3) : 
        Dipole               -2.0273 Ry au,         -5.1528 Debye
        Dipole field         -0.0012 Ry au, 
 
        Potential amp.        0.1369 Ry
        Total length         55.1515 bohr
 
 
     Adding external electric field

     Computed dipole along edir(3) : 
        Dipole               -2.0273 Ry au,         -5.1528 Debye
        Dipole field         -0.0012 Ry au, 
 
        Potential amp.        0.1369 Ry
        Total length         55.1515 bohr
 

     total cpu time spent up to now is       87.5 secs

     total energy              =   -7664.36022821 Ry
     estimated scf accuracy    <      80.91495747 Ry

     total magnetization       =   117.15 Bohr mag/cell
     absolute magnetization    =   170.04 Bohr mag/cell

     iteration #  5     ecut=    50.00 Ry     beta= 0.10
     Davidson diagonalization with overlap
     ethr =  7.40E-03,  avg # of iterations =  1.0

     negative rho (up, down):  2.066E-02 6.054E-08
 
     Adding external electric field

     Computed dipole along edir(3) : 
        Dipole               -1.5677 Ry au,         -3.9846 Debye
        Dipole field         -0.0010 Ry au, 
 
        Potential amp.        0.1058 Ry
        Total length         55.1515 bohr
 
 
     Adding external electric field

     Computed dipole along edir(3) : 
        Dipole               -1.5677 Ry au,         -3.9846 Debye
        Dipole field         -0.0010 Ry au, 
 
        Potential amp.        0.1058 Ry
        Total length         55.1515 bohr
 

     total cpu time spent up to now is      100.8 secs

     total energy              =   -7724.76066405 Ry
     estimated scf accuracy    <      65.24826022 Ry

     total magnetization       =    97.17 Bohr mag/cell
     absolute magnetization    =   152.33 Bohr mag/cell

     iteration #  6     ecut=    50.00 Ry     beta= 0.10
     Davidson diagonalization with overlap
     ethr =  5.97E-03,  avg # of iterations =  1.0

     negative rho (up, down):  3.724E-04 6.141E-04
 
     Adding external electric field

     Computed dipole along edir(3) : 
        Dipole               -1.1125 Ry au,         -2.8276 Debye
        Dipole field         -0.0007 Ry au, 
 
        Potential amp.        0.0751 Ry
        Total length         55.1515 bohr
 
 
     Adding external electric field

     Computed dipole along edir(3) : 
        Dipole               -1.1125 Ry au,         -2.8276 Debye
        Dipole field         -0.0007 Ry au, 
 
        Potential amp.        0.0751 Ry
        Total length         55.1515 bohr
 

     total cpu time spent up to now is      114.2 secs

     total energy              =   -7736.02482690 Ry
     estimated scf accuracy    <      13.20485160 Ry

     total magnetization       =    91.00 Bohr mag/cell
     absolute magnetization    =   123.56 Bohr mag/cell

     iteration #  7     ecut=    50.00 Ry     beta= 0.10
     Davidson diagonalization with overlap
     ethr =  1.21E-03,  avg # of iterations =  6.0

     negative rho (up, down):  3.524E-04 5.905E-04
 
     Adding external electric field

     Computed dipole along edir(3) : 
        Dipole               -1.1081 Ry au,         -2.8166 Debye
        Dipole field         -0.0007 Ry au, 
 
        Potential amp.        0.0748 Ry
        Total length         55.1515 bohr
 
 
     Adding external electric field

     Computed dipole along edir(3) : 
        Dipole               -1.1081 Ry au,         -2.8166 Debye
        Dipole field         -0.0007 Ry au, 
 
        Potential amp.        0.0748 Ry
        Total length         55.1515 bohr
 

     total cpu time spent up to now is      137.4 secs

     total energy              =   -7738.38578828 Ry
     estimated scf accuracy    <      26.15776091 Ry

     total magnetization       =    70.12 Bohr mag/cell
     absolute magnetization    =    87.35 Bohr mag/cell

     iteration #  8     ecut=    50.00 Ry     beta= 0.10
     Davidson diagonalization with overlap
     ethr =  1.21E-03,  avg # of iterations =  1.0

     negative rho (up, down):  2.988E-04 5.203E-04
 
     Adding external electric field

     Computed dipole along edir(3) : 
        Dipole               -1.1028 Ry au,         -2.8031 Debye
        Dipole field         -0.0007 Ry au, 
 
        Potential amp.        0.0745 Ry
        Total length         55.1515 bohr
 
 
     Adding external electric field

     Computed dipole along edir(3) : 
        Dipole               -1.1028 Ry au,         -2.8031 Debye
        Dipole field         -0.0007 Ry au, 
 
        Potential amp.        0.0745 Ry
        Total length         55.1515 bohr
 

     total cpu time spent up to now is      150.5 secs

     total energy              =   -7738.33715995 Ry
     estimated scf accuracy    <      24.97441125 Ry

     total magnetization       =    70.47 Bohr mag/cell
     absolute magnetization    =    87.27 Bohr mag/cell

     iteration #  9     ecut=    50.00 Ry     beta= 0.10
     Davidson diagonalization with overlap
     ethr =  1.21E-03,  avg # of iterations =  1.0

     negative rho (up, down):  3.367E-04 8.442E-04
 
     Adding external electric field

     Computed dipole along edir(3) : 
        Dipole               -1.0855 Ry au,         -2.7591 Debye
        Dipole field         -0.0007 Ry au, 
 
        Potential amp.        0.0733 Ry
        Total length         55.1515 bohr
 
 
     Adding external electric field

     Computed dipole along edir(3) : 
        Dipole               -1.0855 Ry au,         -2.7591 Debye
        Dipole field         -0.0007 Ry au, 
 
        Potential amp.        0.0733 Ry
        Total length         55.1515 bohr
 

     total cpu time spent up to now is      163.5 secs

     total energy              =   -7737.65153953 Ry
     estimated scf accuracy    <      22.50645348 Ry

     total magnetization       =    70.96 Bohr mag/cell
     absolute magnetization    =    87.14 Bohr mag/cell

     iteration # 10     ecut=    50.00 Ry     beta= 0.10
     Davidson diagonalization with overlap
     ethr =  1.21E-03,  avg # of iterations =  1.0

     negative rho (up, down):  7.802E-04 2.188E-03
 
     Adding external electric field

     Computed dipole along edir(3) : 
        Dipole               -1.0624 Ry au,         -2.7005 Debye
        Dipole field         -0.0007 Ry au, 
 
        Potential amp.        0.0717 Ry
        Total length         55.1515 bohr
 
 
     Adding external electric field

     Computed dipole along edir(3) : 
        Dipole               -1.0624 Ry au,         -2.7005 Debye
        Dipole field         -0.0007 Ry au, 
 
        Potential amp.        0.0717 Ry
        Total length         55.1515 bohr
 

     total cpu time spent up to now is      175.9 secs

     total energy              =   -7737.90723981 Ry
     estimated scf accuracy    <       5.12928078 Ry

     total magnetization       =    81.28 Bohr mag/cell
     absolute magnetization    =    92.79 Bohr mag/cell

     iteration # 11     ecut=    50.00 Ry     beta= 0.10
     Davidson diagonalization with overlap
     ethr =  4.69E-04,  avg # of iterations =  1.5

     negative rho (up, down):  6.022E-04 1.577E-03
 
     Adding external electric field

     Computed dipole along edir(3) : 
        Dipole               -1.1000 Ry au,         -2.7959 Debye
        Dipole field         -0.0007 Ry au, 
 
        Potential amp.        0.0743 Ry
        Total length         55.1515 bohr
 
 
     Adding external electric field

     Computed dipole along edir(3) : 
        Dipole               -1.1000 Ry au,         -2.7959 Debye
        Dipole field         -0.0007 Ry au, 
 
        Potential amp.        0.0743 Ry
        Total length         55.1515 bohr
 

     total cpu time spent up to now is      189.0 secs

     total energy              =   -7737.94175154 Ry
     estimated scf accuracy    <       2.68225596 Ry

     total magnetization       =    84.20 Bohr mag/cell
     absolute magnetization    =    94.25 Bohr mag/cell

     iteration # 12     ecut=    50.00 Ry     beta= 0.10
     Davidson diagonalization with overlap
     ethr =  2.45E-04,  avg # of iterations =  1.5

     negative rho (up, down):  4.719E-04 1.532E-03
 
     Adding external electric field

     Computed dipole along edir(3) : 
        Dipole               -1.1277 Ry au,         -2.8664 Debye
        Dipole field         -0.0007 Ry au, 
 
        Potential amp.        0.0761 Ry
        Total length         55.1515 bohr
 
 
     Adding external electric field

     Computed dipole along edir(3) : 
        Dipole               -1.1277 Ry au,         -2.8664 Debye
        Dipole field         -0.0007 Ry au, 
 
        Potential amp.        0.0761 Ry
        Total length         55.1515 bohr
 

     total cpu time spent up to now is      202.5 secs

     total energy              =   -7737.93727847 Ry
     estimated scf accuracy    <       3.14609519 Ry

     total magnetization       =    83.07 Bohr mag/cell
     absolute magnetization    =    93.13 Bohr mag/cell

     iteration # 13     ecut=    50.00 Ry     beta= 0.10
     Davidson diagonalization with overlap
     ethr =  2.45E-04,  avg # of iterations =  1.5

     negative rho (up, down):  8.865E-04 3.088E-03
 
     Adding external electric field

     Computed dipole along edir(3) : 
        Dipole               -1.1521 Ry au,         -2.9282 Debye
        Dipole field         -0.0007 Ry au, 
 
        Potential amp.        0.0778 Ry
        Total length         55.1515 bohr
 
 
     Adding external electric field

     Computed dipole along edir(3) : 
        Dipole               -1.1521 Ry au,         -2.9282 Debye
        Dipole field         -0.0007 Ry au, 
 
        Potential amp.        0.0778 Ry
        Total length         55.1515 bohr
 

     total cpu time spent up to now is      215.8 secs

     total energy              =   -7737.97519191 Ry
     estimated scf accuracy    <       3.16537741 Ry

     total magnetization       =    82.00 Bohr mag/cell
     absolute magnetization    =    91.54 Bohr mag/cell

     iteration # 14     ecut=    50.00 Ry     beta= 0.10
     Davidson diagonalization with overlap
     ethr =  2.45E-04,  avg # of iterations =  1.5

     negative rho (up, down):  1.371E-03 3.632E-03
 
     Adding external electric field

     Computed dipole along edir(3) : 
        Dipole               -1.1047 Ry au,         -2.8078 Debye
        Dipole field         -0.0007 Ry au, 
 
        Potential amp.        0.0746 Ry
        Total length         55.1515 bohr
 
 
     Adding external electric field

     Computed dipole along edir(3) : 
        Dipole               -1.1047 Ry au,         -2.8078 Debye
        Dipole field         -0.0007 Ry au, 
 
        Potential amp.        0.0746 Ry
        Total length         55.1515 bohr
 

     total cpu time spent up to now is      228.6 secs

     total energy              =   -7738.04792157 Ry
     estimated scf accuracy    <       2.15347029 Ry

     total magnetization       =    84.42 Bohr mag/cell
     absolute magnetization    =    92.27 Bohr mag/cell

     iteration # 15     ecut=    50.00 Ry     beta= 0.10
     Davidson diagonalization with overlap
     ethr =  1.97E-04,  avg # of iterations =  1.5

     negative rho (up, down):  5.488E-04 1.376E-03
 
     Adding external electric field

     Computed dipole along edir(3) : 
        Dipole               -0.9947 Ry au,         -2.5282 Debye
        Dipole field         -0.0006 Ry au, 
 
        Potential amp.        0.0672 Ry
        Total length         55.1515 bohr
 
 
     Adding external electric field

     Computed dipole along edir(3) : 
        Dipole               -0.9947 Ry au,         -2.5282 Debye
        Dipole field         -0.0006 Ry au, 
 
        Potential amp.        0.0672 Ry
        Total length         55.1515 bohr
 

     total cpu time spent up to now is      241.5 secs

     total energy              =   -7738.11179633 Ry
     estimated scf accuracy    <       0.55357564 Ry

     total magnetization       =    87.91 Bohr mag/cell
     absolute magnetization    =    94.52 Bohr mag/cell

     iteration # 16     ecut=    50.00 Ry     beta= 0.10
     Davidson diagonalization with overlap
     ethr =  5.06E-05,  avg # of iterations = 10.0

     negative rho (up, down):  2.128E-04 4.969E-04
 
     Adding external electric field

     Computed dipole along edir(3) : 
        Dipole               -0.9507 Ry au,         -2.4165 Debye
        Dipole field         -0.0006 Ry au, 
 
        Potential amp.        0.0642 Ry
        Total length         55.1515 bohr
 
 
     Adding external electric field

     Computed dipole along edir(3) : 
        Dipole               -0.9507 Ry au,         -2.4165 Debye
        Dipole field         -0.0006 Ry au, 
 
        Potential amp.        0.0642 Ry
        Total length         55.1515 bohr
 

     total cpu time spent up to now is      263.4 secs

     total energy              =   -7738.13024285 Ry
     estimated scf accuracy    <       0.45995202 Ry

     total magnetization       =    89.06 Bohr mag/cell
     absolute magnetization    =    95.33 Bohr mag/cell

     iteration # 17     ecut=    50.00 Ry     beta= 0.10
     Davidson diagonalization with overlap
     ethr =  4.21E-05,  avg # of iterations =  1.0

     negative rho (up, down):  2.145E-06 6.834E-06
 
     Adding external electric field

     Computed dipole along edir(3) : 
        Dipole               -0.8084 Ry au,         -2.0548 Debye
        Dipole field         -0.0005 Ry au, 
 
        Potential amp.        0.0546 Ry
        Total length         55.1515 bohr
 
 
     Adding external electric field

     Computed dipole along edir(3) : 
        Dipole               -0.8084 Ry au,         -2.0548 Debye
        Dipole field         -0.0005 Ry au, 
 
        Potential amp.        0.0546 Ry
        Total length         55.1515 bohr
 

     total cpu time spent up to now is      275.8 secs

     total energy              =   -7738.19468384 Ry
     estimated scf accuracy    <       0.49160690 Ry

     total magnetization       =    88.69 Bohr mag/cell
     absolute magnetization    =    94.89 Bohr mag/cell

     iteration # 18     ecut=    50.00 Ry     beta= 0.10
     Davidson diagonalization with overlap
     ethr =  4.21E-05,  avg # of iterations =  1.5

     negative rho (up, down):  6.462E-06 5.404E-05
 
     Adding external electric field

     Computed dipole along edir(3) : 
        Dipole               -0.8331 Ry au,         -2.1175 Debye
        Dipole field         -0.0005 Ry au, 
 
        Potential amp.        0.0562 Ry
        Total length         55.1515 bohr
 
 
     Adding external electric field

     Computed dipole along edir(3) : 
        Dipole               -0.8331 Ry au,         -2.1175 Debye
        Dipole field         -0.0005 Ry au, 
 
        Potential amp.        0.0562 Ry
        Total length         55.1515 bohr
 

     total cpu time spent up to now is      289.0 secs

     total energy              =   -7738.20489083 Ry
     estimated scf accuracy    <       0.41886289 Ry

     total magnetization       =    86.87 Bohr mag/cell
     absolute magnetization    =    91.89 Bohr mag/cell

     iteration # 19     ecut=    50.00 Ry     beta= 0.10
     Davidson diagonalization with overlap
     ethr =  3.83E-05,  avg # of iterations =  1.0

     negative rho (up, down):  2.870E-06 3.924E-05
 
     Adding external electric field

     Computed dipole along edir(3) : 
        Dipole               -0.5823 Ry au,         -1.4801 Debye
        Dipole field         -0.0004 Ry au, 
 
        Potential amp.        0.0393 Ry
        Total length         55.1515 bohr
 
 
     Adding external electric field

     Computed dipole along edir(3) : 
        Dipole               -0.5823 Ry au,         -1.4801 Debye
        Dipole field         -0.0004 Ry au, 
 
        Potential amp.        0.0393 Ry
        Total length         55.1515 bohr
 

     total cpu time spent up to now is      301.5 secs

     total energy              =   -7738.26528100 Ry
     estimated scf accuracy    <       0.17079480 Ry

     total magnetization       =    87.80 Bohr mag/cell
     absolute magnetization    =    92.38 Bohr mag/cell

     iteration # 20     ecut=    50.00 Ry     beta= 0.10
     Davidson diagonalization with overlap
     ethr =  1.56E-05,  avg # of iterations =  4.0

     negative rho (up, down):  3.579E-06 3.283E-05
 
     Adding external electric field

     Computed dipole along edir(3) : 
        Dipole               -0.5852 Ry au,         -1.4874 Debye
        Dipole field         -0.0004 Ry au, 
 
        Potential amp.        0.0395 Ry
        Total length         55.1515 bohr
 
 
     Adding external electric field

     Computed dipole along edir(3) : 
        Dipole               -0.5852 Ry au,         -1.4874 Debye
        Dipole field         -0.0004 Ry au, 
 
        Potential amp.        0.0395 Ry
        Total length         55.1515 bohr
 

     total cpu time spent up to now is      318.6 secs

     total energy              =   -7738.28916524 Ry
     estimated scf accuracy    <       0.64989431 Ry

     total magnetization       =    85.87 Bohr mag/cell
     absolute magnetization    =    88.77 Bohr mag/cell

     iteration # 21     ecut=    50.00 Ry     beta= 0.10
     Davidson diagonalization with overlap
     ethr =  1.56E-05,  avg # of iterations =  1.5

     negative rho (up, down):  1.229E-05 3.328E-05
 
     Adding external electric field

     Computed dipole along edir(3) : 
        Dipole               -0.5378 Ry au,         -1.3670 Debye
        Dipole field         -0.0003 Ry au, 
 
        Potential amp.        0.0363 Ry
        Total length         55.1515 bohr
 
 
     Adding external electric field

     Computed dipole along edir(3) : 
        Dipole               -0.5378 Ry au,         -1.3670 Debye
        Dipole field         -0.0003 Ry au, 
 
        Potential amp.        0.0363 Ry
        Total length         55.1515 bohr
 

     total cpu time spent up to now is      332.4 secs

     total energy              =   -7738.29991496 Ry
     estimated scf accuracy    <       0.57141867 Ry

     total magnetization       =    86.20 Bohr mag/cell
     absolute magnetization    =    88.98 Bohr mag/cell

     iteration # 22     ecut=    50.00 Ry     beta= 0.10
     Davidson diagonalization with overlap
     ethr =  1.56E-05,  avg # of iterations =  1.5

     negative rho (up, down):  2.282E-05 4.927E-05
 
     Adding external electric field

     Computed dipole along edir(3) : 
        Dipole               -0.5903 Ry au,         -1.5004 Debye
        Dipole field         -0.0004 Ry au, 
 
        Potential amp.        0.0399 Ry
        Total length         55.1515 bohr
 
 
     Adding external electric field

     Computed dipole along edir(3) : 
        Dipole               -0.5903 Ry au,         -1.5004 Debye
        Dipole field         -0.0004 Ry au, 
 
        Potential amp.        0.0399 Ry
        Total length         55.1515 bohr
 

     total cpu time spent up to now is      345.8 secs

     total energy              =   -7738.29796239 Ry
     estimated scf accuracy    <       0.52743346 Ry

     total magnetization       =    86.58 Bohr mag/cell
     absolute magnetization    =    89.06 Bohr mag/cell

     iteration # 23     ecut=    50.00 Ry     beta= 0.10
     Davidson diagonalization with overlap
     ethr =  1.56E-05,  avg # of iterations =  1.5

     negative rho (up, down):  2.929E-05 1.052E-04
 
     Adding external electric field

     Computed dipole along edir(3) : 
        Dipole               -0.5142 Ry au,         -1.3069 Debye
        Dipole field         -0.0003 Ry au, 
 
        Potential amp.        0.0347 Ry
        Total length         55.1515 bohr
 
 
     Adding external electric field

     Computed dipole along edir(3) : 
        Dipole               -0.5142 Ry au,         -1.3069 Debye
        Dipole field         -0.0003 Ry au, 
 
        Potential amp.        0.0347 Ry
        Total length         55.1515 bohr
 

     total cpu time spent up to now is      358.9 secs

     total energy              =   -7738.30315639 Ry
     estimated scf accuracy    <       0.61307393 Ry

     total magnetization       =    86.30 Bohr mag/cell
     absolute magnetization    =    88.86 Bohr mag/cell

     iteration # 24     ecut=    50.00 Ry     beta= 0.10
     Davidson diagonalization with overlap
     ethr =  1.56E-05,  avg # of iterations = 12.5

     negative rho (up, down):  2.108E-05 1.092E-04
 
     Adding external electric field

     Computed dipole along edir(3) : 
        Dipole               -0.5322 Ry au,         -1.3528 Debye
        Dipole field         -0.0003 Ry au, 
 
        Potential amp.        0.0359 Ry
        Total length         55.1515 bohr
 
 
     Adding external electric field

     Computed dipole along edir(3) : 
        Dipole               -0.5322 Ry au,         -1.3528 Debye
        Dipole field         -0.0003 Ry au, 
 
        Potential amp.        0.0359 Ry
        Total length         55.1515 bohr
 

     total cpu time spent up to now is      384.2 secs

     total energy              =   -7738.30214692 Ry
     estimated scf accuracy    <       0.41942197 Ry

     total magnetization       =    86.82 Bohr mag/cell
     absolute magnetization    =    88.83 Bohr mag/cell

     iteration # 25     ecut=    50.00 Ry     beta= 0.10
     Davidson diagonalization with overlap
     ethr =  1.56E-05,  avg # of iterations =  1.5

     negative rho (up, down):  2.528E-05 1.159E-04
 
     Adding external electric field

     Computed dipole along edir(3) : 
        Dipole               -0.5052 Ry au,         -1.2840 Debye
        Dipole field         -0.0003 Ry au, 
 
        Potential amp.        0.0341 Ry
        Total length         55.1515 bohr
 
 
     Adding external electric field

     Computed dipole along edir(3) : 
        Dipole               -0.5052 Ry au,         -1.2840 Debye
        Dipole field         -0.0003 Ry au, 
 
        Potential amp.        0.0341 Ry
        Total length         55.1515 bohr
 

     total cpu time spent up to now is      397.8 secs

     total energy              =   -7738.30691272 Ry
     estimated scf accuracy    <       0.37730071 Ry

     total magnetization       =    87.10 Bohr mag/cell
     absolute magnetization    =    89.05 Bohr mag/cell

     iteration # 26     ecut=    50.00 Ry     beta= 0.10
     Davidson diagonalization with overlap
     ethr =  1.56E-05,  avg # of iterations =  1.5

     negative rho (up, down):  2.021E-07 3.319E-05
 
     Adding external electric field

     Computed dipole along edir(3) : 
        Dipole               -0.6265 Ry au,         -1.5923 Debye
        Dipole field         -0.0004 Ry au, 
 
        Potential amp.        0.0423 Ry
        Total length         55.1515 bohr
 
 
     Adding external electric field

     Computed dipole along edir(3) : 
        Dipole               -0.6265 Ry au,         -1.5923 Debye
        Dipole field         -0.0004 Ry au, 
 
        Potential amp.        0.0423 Ry
        Total length         55.1515 bohr
 

     total cpu time spent up to now is      411.1 secs

     total energy              =   -7738.26509358 Ry
     estimated scf accuracy    <       0.50335529 Ry

     total magnetization       =    86.93 Bohr mag/cell
     absolute magnetization    =    88.77 Bohr mag/cell

     iteration # 27     ecut=    50.00 Ry     beta= 0.10
     Davidson diagonalization with overlap
     ethr =  1.56E-05,  avg # of iterations =  1.0

     negative rho (up, down):  3.717E-07 5.966E-05
 
     Adding external electric field

     Computed dipole along edir(3) : 
        Dipole               -0.5952 Ry au,         -1.5129 Debye
        Dipole field         -0.0004 Ry au, 
 
        Potential amp.        0.0402 Ry
        Total length         55.1515 bohr
 
 
     Adding external electric field

     Computed dipole along edir(3) : 
        Dipole               -0.5952 Ry au,         -1.5129 Debye
        Dipole field         -0.0004 Ry au, 
 
        Potential amp.        0.0402 Ry
        Total length         55.1515 bohr
 

     total cpu time spent up to now is      423.6 secs

     total energy              =   -7738.27017564 Ry
     estimated scf accuracy    <       0.12090733 Ry

     total magnetization       =    88.31 Bohr mag/cell
     absolute magnetization    =    90.71 Bohr mag/cell

     iteration # 28     ecut=    50.00 Ry     beta= 0.10
     Davidson diagonalization with overlap
     ethr =  1.11E-05,  avg # of iterations =  1.5

     negative rho (up, down):  2.531E-06 1.064E-04
 
     Adding external electric field

     Computed dipole along edir(3) : 
        Dipole               -0.5615 Ry au,         -1.4272 Debye
        Dipole field         -0.0003 Ry au, 
 
        Potential amp.        0.0379 Ry
        Total length         55.1515 bohr
 
 
     Adding external electric field

     Computed dipole along edir(3) : 
        Dipole               -0.5615 Ry au,         -1.4272 Debye
        Dipole field         -0.0003 Ry au, 
 
        Potential amp.        0.0379 Ry
        Total length         55.1515 bohr
 

     total cpu time spent up to now is      436.7 secs

     total energy              =   -7738.27266659 Ry
     estimated scf accuracy    <       0.12065734 Ry

     total magnetization       =    88.21 Bohr mag/cell
     absolute magnetization    =    90.59 Bohr mag/cell

     iteration # 29     ecut=    50.00 Ry     beta= 0.10
     Davidson diagonalization with overlap
     ethr =  1.10E-05,  avg # of iterations =  1.5

     negative rho (up, down):  7.157E-05 2.623E-04
 
     Adding external electric field

     Computed dipole along edir(3) : 
        Dipole               -0.5343 Ry au,         -1.3582 Debye
        Dipole field         -0.0003 Ry au, 
 
        Potential amp.        0.0361 Ry
        Total length         55.1515 bohr
 
 
     Adding external electric field

     Computed dipole along edir(3) : 
        Dipole               -0.5343 Ry au,         -1.3582 Debye
        Dipole field         -0.0003 Ry au, 
 
        Potential amp.        0.0361 Ry
        Total length         55.1515 bohr
 

     total cpu time spent up to now is      450.1 secs

     total energy              =   -7738.28865426 Ry
     estimated scf accuracy    <       0.11966060 Ry

     total magnetization       =    88.02 Bohr mag/cell
     absolute magnetization    =    90.26 Bohr mag/cell

     iteration # 30     ecut=    50.00 Ry     beta= 0.10
     Davidson diagonalization with overlap
     ethr =  1.09E-05,  avg # of iterations =  2.0

     negative rho (up, down):  6.603E-04 9.578E-04
 
     Adding external electric field

     Computed dipole along edir(3) : 
        Dipole               -0.4472 Ry au,         -1.1368 Debye
        Dipole field         -0.0003 Ry au, 
 
        Potential amp.        0.0302 Ry
        Total length         55.1515 bohr
 
 
     Adding external electric field

     Computed dipole along edir(3) : 
        Dipole               -0.4472 Ry au,         -1.1368 Debye
        Dipole field         -0.0003 Ry au, 
 
        Potential amp.        0.0302 Ry
        Total length         55.1515 bohr
 

     total cpu time spent up to now is      464.1 secs

     total energy              =   -7738.30328227 Ry
     estimated scf accuracy    <       0.13465891 Ry

     total magnetization       =    87.88 Bohr mag/cell
     absolute magnetization    =    89.95 Bohr mag/cell

     iteration # 31     ecut=    50.00 Ry     beta= 0.10
     Davidson diagonalization with overlap
     ethr =  1.09E-05,  avg # of iterations =  2.0

     negative rho (up, down):  7.153E-04 9.366E-04
 
     Adding external electric field

     Computed dipole along edir(3) : 
        Dipole               -0.4309 Ry au,         -1.0952 Debye
        Dipole field         -0.0003 Ry au, 
 
        Potential amp.        0.0291 Ry
        Total length         55.1515 bohr
 
 
     Adding external electric field

     Computed dipole along edir(3) : 
        Dipole               -0.4309 Ry au,         -1.0952 Debye
        Dipole field         -0.0003 Ry au, 
 
        Potential amp.        0.0291 Ry
        Total length         55.1515 bohr
 

     total cpu time spent up to now is      478.3 secs

     total energy              =   -7738.30710423 Ry
     estimated scf accuracy    <       0.09189329 Ry

     total magnetization       =    88.28 Bohr mag/cell
     absolute magnetization    =    89.92 Bohr mag/cell

     iteration # 32     ecut=    50.00 Ry     beta= 0.10
     Davidson diagonalization with overlap
     ethr =  8.41E-06,  avg # of iterations =  2.0

     negative rho (up, down):  4.435E-04 6.204E-04
 
     Adding external electric field

     Computed dipole along edir(3) : 
        Dipole               -0.4420 Ry au,         -1.1233 Debye
        Dipole field         -0.0003 Ry au, 
 
        Potential amp.        0.0298 Ry
        Total length         55.1515 bohr
 
 
     Adding external electric field

     Computed dipole along edir(3) : 
        Dipole               -0.4420 Ry au,         -1.1233 Debye
        Dipole field         -0.0003 Ry au, 
 
        Potential amp.        0.0298 Ry
        Total length         55.1515 bohr
 

     total cpu time spent up to now is      491.8 secs

     total energy              =   -7738.30697737 Ry
     estimated scf accuracy    <       0.13503996 Ry

     total magnetization       =    88.21 Bohr mag/cell
     absolute magnetization    =    89.81 Bohr mag/cell

     iteration # 33     ecut=    50.00 Ry     beta= 0.10
     Davidson diagonalization with overlap
     ethr =  8.41E-06,  avg # of iterations =  2.0

     negative rho (up, down):  7.698E-04 1.098E-03
 
     Adding external electric field

     Computed dipole along edir(3) : 
        Dipole               -0.4640 Ry au,         -1.1795 Debye
        Dipole field         -0.0003 Ry au, 
 
        Potential amp.        0.0313 Ry
        Total length         55.1515 bohr
 
 
     Adding external electric field

     Computed dipole along edir(3) : 
        Dipole               -0.4640 Ry au,         -1.1795 Debye
        Dipole field         -0.0003 Ry au, 
 
        Potential amp.        0.0313 Ry
        Total length         55.1515 bohr
 

     total cpu time spent up to now is      505.6 secs

     total energy              =   -7738.30516797 Ry
     estimated scf accuracy    <       0.10033304 Ry

     total magnetization       =    88.30 Bohr mag/cell
     absolute magnetization    =    89.90 Bohr mag/cell

     iteration # 34     ecut=    50.00 Ry     beta= 0.10
     Davidson diagonalization with overlap
     ethr =  8.41E-06,  avg # of iterations =  1.5

     negative rho (up, down):  5.696E-04 7.640E-04
 
     Adding external electric field

     Computed dipole along edir(3) : 
        Dipole               -0.4413 Ry au,         -1.1217 Debye
        Dipole field         -0.0003 Ry au, 
 
        Potential amp.        0.0298 Ry
        Total length         55.1515 bohr
 
 
     Adding external electric field

     Computed dipole along edir(3) : 
        Dipole               -0.4413 Ry au,         -1.1217 Debye
        Dipole field         -0.0003 Ry au, 
 
        Potential amp.        0.0298 Ry
        Total length         55.1515 bohr
 

     total cpu time spent up to now is      518.4 secs

     total energy              =   -7738.30639402 Ry
     estimated scf accuracy    <       0.09268028 Ry

     total magnetization       =    88.30 Bohr mag/cell
     absolute magnetization    =    89.93 Bohr mag/cell

     iteration # 35     ecut=    50.00 Ry     beta= 0.10
     Davidson diagonalization with overlap
     ethr =  8.41E-06,  avg # of iterations =  2.0

     negative rho (up, down):  3.285E-04 4.184E-04
 
     Adding external electric field

     Computed dipole along edir(3) : 
        Dipole               -0.3552 Ry au,         -0.9028 Debye
        Dipole field         -0.0002 Ry au, 
 
        Potential amp.        0.0240 Ry
        Total length         55.1515 bohr
 
 
     Adding external electric field

     Computed dipole along edir(3) : 
        Dipole               -0.3552 Ry au,         -0.9028 Debye
        Dipole field         -0.0002 Ry au, 
 
        Potential amp.        0.0240 Ry
        Total length         55.1515 bohr
 

     total cpu time spent up to now is      532.6 secs

     total energy              =   -7738.30653127 Ry
     estimated scf accuracy    <       0.07248059 Ry

     total magnetization       =    88.50 Bohr mag/cell
     absolute magnetization    =    90.18 Bohr mag/cell

     iteration # 36     ecut=    50.00 Ry     beta= 0.10
     Davidson diagonalization with overlap
     ethr =  6.63E-06,  avg # of iterations =  2.0

     negative rho (up, down):  1.024E-04 1.431E-04
 
     Adding external electric field

     Computed dipole along edir(3) : 
        Dipole               -0.4233 Ry au,         -1.0759 Debye
        Dipole field         -0.0003 Ry au, 
 
        Potential amp.        0.0286 Ry
        Total length         55.1515 bohr
 
 
     Adding external electric field

     Computed dipole along edir(3) : 
        Dipole               -0.4233 Ry au,         -1.0759 Debye
        Dipole field         -0.0003 Ry au, 
 
        Potential amp.        0.0286 Ry
        Total length         55.1515 bohr
 

     total cpu time spent up to now is      546.5 secs

     total energy              =   -7738.30591961 Ry
     estimated scf accuracy    <       0.08619548 Ry

     total magnetization       =    88.44 Bohr mag/cell
     absolute magnetization    =    90.15 Bohr mag/cell

     iteration # 37     ecut=    50.00 Ry     beta= 0.10
     Davidson diagonalization with overlap
     c_bands:  4 eigenvalues not converged
     ethr =  6.63E-06,  avg # of iterations = 11.0

     negative rho (up, down):  3.719E-04 4.535E-04
 
     Adding external electric field

     Computed dipole along edir(3) : 
        Dipole               -0.3108 Ry au,         -0.7900 Debye
        Dipole field         -0.0002 Ry au, 
 
        Potential amp.        0.0210 Ry
        Total length         55.1515 bohr
 
 
     Adding external electric field

     Computed dipole along edir(3) : 
        Dipole               -0.3108 Ry au,         -0.7900 Debye
        Dipole field         -0.0002 Ry au, 
 
        Potential amp.        0.0210 Ry
        Total length         55.1515 bohr
 

     total cpu time spent up to now is      565.3 secs

     total energy              =   -7738.30428823 Ry
     estimated scf accuracy    <       0.10243122 Ry

     total magnetization       =    88.38 Bohr mag/cell
     absolute magnetization    =    90.16 Bohr mag/cell

     iteration # 38     ecut=    50.00 Ry     beta= 0.10
     Davidson diagonalization with overlap
     c_bands:  1 eigenvalues not converged
     ethr =  6.63E-06,  avg # of iterations = 11.0

     negative rho (up, down):  7.950E-05 1.260E-04
 
     Adding external electric field

     Computed dipole along edir(3) : 
        Dipole               -0.4476 Ry au,         -1.1378 Debye
        Dipole field         -0.0003 Ry au, 
 
        Potential amp.        0.0302 Ry
        Total length         55.1515 bohr
 
 
     Adding external electric field

     Computed dipole along edir(3) : 
        Dipole               -0.4476 Ry au,         -1.1378 Debye
        Dipole field         -0.0003 Ry au, 
 
        Potential amp.        0.0302 Ry
        Total length         55.1515 bohr
 

     total cpu time spent up to now is      584.0 secs

     total energy              =   -7738.30729076 Ry
     estimated scf accuracy    <       0.09095127 Ry

     total magnetization       =    88.52 Bohr mag/cell
     absolute magnetization    =    90.42 Bohr mag/cell

     iteration # 39     ecut=    50.00 Ry     beta= 0.10
     Davidson diagonalization with overlap
     ethr =  6.63E-06,  avg # of iterations =  2.0

     negative rho (up, down):  1.778E-04 2.051E-04
 
     Adding external electric field

     Computed dipole along edir(3) : 
        Dipole               -0.5181 Ry au,         -1.3170 Debye
        Dipole field         -0.0003 Ry au, 
 
        Potential amp.        0.0350 Ry
        Total length         55.1515 bohr
 
 
     Adding external electric field

     Computed dipole along edir(3) : 
        Dipole               -0.5181 Ry au,         -1.3170 Debye
        Dipole field         -0.0003 Ry au, 
 
        Potential amp.        0.0350 Ry
        Total length         55.1515 bohr
 

     total cpu time spent up to now is      598.1 secs

     total energy              =   -7738.30799092 Ry
     estimated scf accuracy    <       0.08579831 Ry

     total magnetization       =    88.34 Bohr mag/cell
     absolute magnetization    =    89.94 Bohr mag/cell

     iteration # 40     ecut=    50.00 Ry     beta= 0.10
     Davidson diagonalization with overlap
     ethr =  6.63E-06,  avg # of iterations =  2.0

     negative rho (up, down):  1.699E-04 1.871E-04
 
     Adding external electric field

     Computed dipole along edir(3) : 
        Dipole               -0.5422 Ry au,         -1.3780 Debye
        Dipole field         -0.0003 Ry au, 
 
        Potential amp.        0.0366 Ry
        Total length         55.1515 bohr
 
 
     Adding external electric field

     Computed dipole along edir(3) : 
        Dipole               -0.5422 Ry au,         -1.3780 Debye
        Dipole field         -0.0003 Ry au, 
 
        Potential amp.        0.0366 Ry
        Total length         55.1515 bohr
 

     total cpu time spent up to now is      612.0 secs

     total energy              =   -7738.30861615 Ry
     estimated scf accuracy    <       0.11277525 Ry

     total magnetization       =    88.21 Bohr mag/cell
     absolute magnetization    =    89.66 Bohr mag/cell

     iteration # 41     ecut=    50.00 Ry     beta= 0.10
     Davidson diagonalization with overlap
     ethr =  6.63E-06,  avg # of iterations =  1.5

     negative rho (up, down):  1.759E-04 1.959E-04
 
     Adding external electric field

     Computed dipole along edir(3) : 
        Dipole               -0.5376 Ry au,         -1.3666 Debye
        Dipole field         -0.0003 Ry au, 
 
        Potential amp.        0.0363 Ry
        Total length         55.1515 bohr
 
 
     Adding external electric field

     Computed dipole along edir(3) : 
        Dipole               -0.5376 Ry au,         -1.3666 Debye
        Dipole field         -0.0003 Ry au, 
 
        Potential amp.        0.0363 Ry
        Total length         55.1515 bohr
 

     total cpu time spent up to now is      624.9 secs

     total energy              =   -7738.30874125 Ry
     estimated scf accuracy    <       0.10813639 Ry

     total magnetization       =    88.27 Bohr mag/cell
     absolute magnetization    =    89.69 Bohr mag/cell

     iteration # 42     ecut=    50.00 Ry     beta= 0.10
     Davidson diagonalization with overlap
     ethr =  6.63E-06,  avg # of iterations =  1.5

     negative rho (up, down):  1.876E-04 1.948E-04
 
     Adding external electric field

     Computed dipole along edir(3) : 
        Dipole               -0.7185 Ry au,         -1.8261 Debye
        Dipole field         -0.0004 Ry au, 
 
        Potential amp.        0.0485 Ry
        Total length         55.1515 bohr
 
 
     Adding external electric field

     Computed dipole along edir(3) : 
        Dipole               -0.7185 Ry au,         -1.8261 Debye
        Dipole field         -0.0004 Ry au, 
 
        Potential amp.        0.0485 Ry
        Total length         55.1515 bohr
 

     total cpu time spent up to now is      637.7 secs

     total energy              =   -7738.30832939 Ry
     estimated scf accuracy    <       0.10194464 Ry

     total magnetization       =    88.31 Bohr mag/cell
     absolute magnetization    =    89.71 Bohr mag/cell

     iteration # 43     ecut=    50.00 Ry     beta= 0.10
     Davidson diagonalization with overlap
     ethr =  6.63E-06,  avg # of iterations =  2.0

     negative rho (up, down):  1.725E-04 2.183E-04
 
     Adding external electric field

     Computed dipole along edir(3) : 
        Dipole               -0.7000 Ry au,         -1.7791 Debye
        Dipole field         -0.0004 Ry au, 
 
        Potential amp.        0.0473 Ry
        Total length         55.1515 bohr
 
 
     Adding external electric field

     Computed dipole along edir(3) : 
        Dipole               -0.7000 Ry au,         -1.7791 Debye
        Dipole field         -0.0004 Ry au, 
 
        Potential amp.        0.0473 Ry
        Total length         55.1515 bohr
 

     total cpu time spent up to now is      651.1 secs

     total energy              =   -7738.30705149 Ry
     estimated scf accuracy    <       0.10096080 Ry

     total magnetization       =    88.23 Bohr mag/cell
     absolute magnetization    =    89.76 Bohr mag/cell

     iteration # 44     ecut=    50.00 Ry     beta= 0.10
     Davidson diagonalization with overlap
     ethr =  6.63E-06,  avg # of iterations =  1.5

     negative rho (up, down):  4.341E-05 5.155E-05
 
     Adding external electric field

     Computed dipole along edir(3) : 
        Dipole               -0.5066 Ry au,         -1.2876 Debye
        Dipole field         -0.0003 Ry au, 
 
        Potential amp.        0.0342 Ry
        Total length         55.1515 bohr
 
 
     Adding external electric field

     Computed dipole along edir(3) : 
        Dipole               -0.5066 Ry au,         -1.2876 Debye
        Dipole field         -0.0003 Ry au, 
 
        Potential amp.        0.0342 Ry
        Total length         55.1515 bohr
 

     total cpu time spent up to now is      663.9 secs

     total energy              =   -7738.30824038 Ry
     estimated scf accuracy    <       0.08223359 Ry

     total magnetization       =    88.29 Bohr mag/cell
     absolute magnetization    =    89.81 Bohr mag/cell

     iteration # 45     ecut=    50.00 Ry     beta= 0.10
     Davidson diagonalization with overlap
     ethr =  6.63E-06,  avg # of iterations =  2.0

     negative rho (up, down):  2.625E-04 2.488E-04
 
     Adding external electric field

     Computed dipole along edir(3) : 
        Dipole               -0.8053 Ry au,         -2.0469 Debye
        Dipole field         -0.0005 Ry au, 
 
        Potential amp.        0.0544 Ry
        Total length         55.1515 bohr
 
 
     Adding external electric field

     Computed dipole along edir(3) : 
        Dipole               -0.8053 Ry au,         -2.0469 Debye
        Dipole field         -0.0005 Ry au, 
 
        Potential amp.        0.0544 Ry
        Total length         55.1515 bohr
 

     total cpu time spent up to now is      677.5 secs

     total energy              =   -7738.30832230 Ry
     estimated scf accuracy    <       0.09734600 Ry

     total magnetization       =    88.40 Bohr mag/cell
     absolute magnetization    =    89.95 Bohr mag/cell

     iteration # 46     ecut=    50.00 Ry     beta= 0.10
     Davidson diagonalization with overlap
     ethr =  6.63E-06,  avg # of iterations =  2.0

     negative rho (up, down):  1.889E-04 2.087E-04
 
     Adding external electric field

     Computed dipole along edir(3) : 
        Dipole               -0.7946 Ry au,         -2.0197 Debye
        Dipole field         -0.0005 Ry au, 
 
        Potential amp.        0.0536 Ry
        Total length         55.1515 bohr
 
 
     Adding external electric field

     Computed dipole along edir(3) : 
        Dipole               -0.7946 Ry au,         -2.0197 Debye
        Dipole field         -0.0005 Ry au, 
 
        Potential amp.        0.0536 Ry
        Total length         55.1515 bohr
 

     total cpu time spent up to now is      691.1 secs

     total energy              =   -7738.30671151 Ry
     estimated scf accuracy    <       0.06799694 Ry

     total magnetization       =    88.50 Bohr mag/cell
     absolute magnetization    =    90.05 Bohr mag/cell

     iteration # 47     ecut=    50.00 Ry     beta= 0.10
     Davidson diagonalization with overlap
     ethr =  6.22E-06,  avg # of iterations =  2.0

     negative rho (up, down):  1.595E-04 1.920E-04
 
     Adding external electric field

     Computed dipole along edir(3) : 
        Dipole               -0.6424 Ry au,         -1.6329 Debye
        Dipole field         -0.0004 Ry au, 
 
        Potential amp.        0.0434 Ry
        Total length         55.1515 bohr
 
 
     Adding external electric field

     Computed dipole along edir(3) : 
        Dipole               -0.6424 Ry au,         -1.6329 Debye
        Dipole field         -0.0004 Ry au, 
 
        Potential amp.        0.0434 Ry
        Total length         55.1515 bohr
 

     total cpu time spent up to now is      704.9 secs

     total energy              =   -7738.30672377 Ry
     estimated scf accuracy    <       0.07977359 Ry

     total magnetization       =    88.42 Bohr mag/cell
     absolute magnetization    =    90.14 Bohr mag/cell

     iteration # 48     ecut=    50.00 Ry     beta= 0.10
     Davidson diagonalization with overlap
     ethr =  6.22E-06,  avg # of iterations =  2.0

     negative rho (up, down):  3.487E-04 3.454E-04
 
     Adding external electric field

     Computed dipole along edir(3) : 
        Dipole               -0.7645 Ry au,         -1.9432 Debye
        Dipole field         -0.0005 Ry au, 
 
        Potential amp.        0.0516 Ry
        Total length         55.1515 bohr
 
 
     Adding external electric field

     Computed dipole along edir(3) : 
        Dipole               -0.7645 Ry au,         -1.9432 Debye
        Dipole field         -0.0005 Ry au, 
 
        Potential amp.        0.0516 Ry
        Total length         55.1515 bohr
 

     total cpu time spent up to now is      718.3 secs

     total energy              =   -7738.30938433 Ry
     estimated scf accuracy    <       0.07824491 Ry

     total magnetization       =    88.22 Bohr mag/cell
     absolute magnetization    =    89.57 Bohr mag/cell

     iteration # 49     ecut=    50.00 Ry     beta= 0.10
     Davidson diagonalization with overlap
     ethr =  6.22E-06,  avg # of iterations =  1.5

     negative rho (up, down):  3.397E-04 3.418E-04
 
     Adding external electric field

     Computed dipole along edir(3) : 
        Dipole               -0.6529 Ry au,         -1.6594 Debye
        Dipole field         -0.0004 Ry au, 
 
        Potential amp.        0.0441 Ry
        Total length         55.1515 bohr
 
 
     Adding external electric field

     Computed dipole along edir(3) : 
        Dipole               -0.6529 Ry au,         -1.6594 Debye
        Dipole field         -0.0004 Ry au, 
 
        Potential amp.        0.0441 Ry
        Total length         55.1515 bohr
 

     total cpu time spent up to now is      730.5 secs

     total energy              =   -7738.30788258 Ry
     estimated scf accuracy    <       0.07645111 Ry

     total magnetization       =    88.32 Bohr mag/cell
     absolute magnetization    =    89.68 Bohr mag/cell

     iteration # 50     ecut=    50.00 Ry     beta= 0.10
     Davidson diagonalization with overlap
     ethr =  6.22E-06,  avg # of iterations =  2.0

     negative rho (up, down):  1.916E-04 2.106E-04
 
     Adding external electric field

     Computed dipole along edir(3) : 
        Dipole               -0.6878 Ry au,         -1.7483 Debye
        Dipole field         -0.0004 Ry au, 
 
        Potential amp.        0.0464 Ry
        Total length         55.1515 bohr
 
 
     Adding external electric field

     Computed dipole along edir(3) : 
        Dipole               -0.6878 Ry au,         -1.7483 Debye
        Dipole field         -0.0004 Ry au, 
 
        Potential amp.        0.0464 Ry
        Total length         55.1515 bohr
 

     total cpu time spent up to now is      744.3 secs

     total energy              =   -7738.30794564 Ry
     estimated scf accuracy    <       0.07982597 Ry

     total magnetization       =    88.54 Bohr mag/cell
     absolute magnetization    =    89.79 Bohr mag/cell

     iteration # 51     ecut=    50.00 Ry     beta= 0.10
     Davidson diagonalization with overlap
     ethr =  6.22E-06,  avg # of iterations =  1.0

     negative rho (up, down):  2.049E-04 2.251E-04
 
     Adding external electric field

     Computed dipole along edir(3) : 
        Dipole               -0.7512 Ry au,         -1.9094 Debye
        Dipole field         -0.0005 Ry au, 
 
        Potential amp.        0.0507 Ry
        Total length         55.1515 bohr
 
 
     Adding external electric field

     Computed dipole along edir(3) : 
        Dipole               -0.7512 Ry au,         -1.9094 Debye
        Dipole field         -0.0005 Ry au, 
 
        Potential amp.        0.0507 Ry
        Total length         55.1515 bohr
 

     total cpu time spent up to now is      756.6 secs

     total energy              =   -7738.30905916 Ry
     estimated scf accuracy    <       0.07337078 Ry

     total magnetization       =    88.27 Bohr mag/cell
     absolute magnetization    =    89.74 Bohr mag/cell

     iteration # 52     ecut=    50.00 Ry     beta= 0.10
     Davidson diagonalization with overlap
     ethr =  6.22E-06,  avg # of iterations =  2.0

     negative rho (up, down):  8.364E-05 1.168E-04
 
     Adding external electric field

     Computed dipole along edir(3) : 
        Dipole               -0.6286 Ry au,         -1.5978 Debye
        Dipole field         -0.0004 Ry au, 
 
        Potential amp.        0.0424 Ry
        Total length         55.1515 bohr
 
 
     Adding external electric field

     Computed dipole along edir(3) : 
        Dipole               -0.6286 Ry au,         -1.5978 Debye
        Dipole field         -0.0004 Ry au, 
 
        Potential amp.        0.0424 Ry
        Total length         55.1515 bohr
 

     total cpu time spent up to now is      770.7 secs

     total energy              =   -7738.30901374 Ry
     estimated scf accuracy    <       0.06989528 Ry

     total magnetization       =    88.27 Bohr mag/cell
     absolute magnetization    =    89.76 Bohr mag/cell

     iteration # 53     ecut=    50.00 Ry     beta= 0.10
     Davidson diagonalization with overlap
     ethr =  6.22E-06,  avg # of iterations =  1.5

     negative rho (up, down):  2.279E-04 2.177E-04
 
     Adding external electric field

     Computed dipole along edir(3) : 
        Dipole               -0.7157 Ry au,         -1.8190 Debye
        Dipole field         -0.0004 Ry au, 
 
        Potential amp.        0.0483 Ry
        Total length         55.1515 bohr
 
 
     Adding external electric field

     Computed dipole along edir(3) : 
        Dipole               -0.7157 Ry au,         -1.8190 Debye
        Dipole field         -0.0004 Ry au, 
 
        Potential amp.        0.0483 Ry
        Total length         55.1515 bohr
 

     total cpu time spent up to now is      783.8 secs

     total energy              =   -7738.30879151 Ry
     estimated scf accuracy    <       0.07013025 Ry

     total magnetization       =    88.27 Bohr mag/cell
     absolute magnetization    =    89.72 Bohr mag/cell

     iteration # 54     ecut=    50.00 Ry     beta= 0.10
     Davidson diagonalization with overlap
     ethr =  6.22E-06,  avg # of iterations =  2.0

     negative rho (up, down):  8.676E-05 1.034E-04
 
     Adding external electric field

     Computed dipole along edir(3) : 
        Dipole               -0.5595 Ry au,         -1.4220 Debye
        Dipole field         -0.0003 Ry au, 
 
        Potential amp.        0.0378 Ry
        Total length         55.1515 bohr
 
 
     Adding external electric field

     Computed dipole along edir(3) : 
        Dipole               -0.5595 Ry au,         -1.4220 Debye
        Dipole field         -0.0003 Ry au, 
 
        Potential amp.        0.0378 Ry
        Total length         55.1515 bohr
 

     total cpu time spent up to now is      797.8 secs

     total energy              =   -7738.30812410 Ry
     estimated scf accuracy    <       0.07397905 Ry

     total magnetization       =    88.33 Bohr mag/cell
     absolute magnetization    =    89.80 Bohr mag/cell

     iteration # 55     ecut=    50.00 Ry     beta= 0.10
     Davidson diagonalization with overlap
     ethr =  6.22E-06,  avg # of iterations =  1.5

     negative rho (up, down):  2.138E-04 2.577E-04
 
     Adding external electric field

     Computed dipole along edir(3) : 
        Dipole               -0.7484 Ry au,         -1.9022 Debye
        Dipole field         -0.0005 Ry au, 
 
        Potential amp.        0.0505 Ry
        Total length         55.1515 bohr
 
 
     Adding external electric field

     Computed dipole along edir(3) : 
        Dipole               -0.7484 Ry au,         -1.9022 Debye
        Dipole field         -0.0005 Ry au, 
 
        Potential amp.        0.0505 Ry
        Total length         55.1515 bohr
 

     total cpu time spent up to now is      810.8 secs

     total energy              =   -7738.30770244 Ry
     estimated scf accuracy    <       0.07980100 Ry

     total magnetization       =    88.33 Bohr mag/cell
     absolute magnetization    =    89.89 Bohr mag/cell

     iteration # 56     ecut=    50.00 Ry     beta= 0.10
     Davidson diagonalization with overlap
     ethr =  6.22E-06,  avg # of iterations =  1.5

     negative rho (up, down):  2.294E-04 2.821E-04
 
     Adding external electric field

     Computed dipole along edir(3) : 
        Dipole               -0.6741 Ry au,         -1.7133 Debye
        Dipole field         -0.0004 Ry au, 
 
        Potential amp.        0.0455 Ry
        Total length         55.1515 bohr
 
 
     Adding external electric field

     Computed dipole along edir(3) : 
        Dipole               -0.6741 Ry au,         -1.7133 Debye
        Dipole field         -0.0004 Ry au, 
 
        Potential amp.        0.0455 Ry
        Total length         55.1515 bohr
 

     total cpu time spent up to now is      824.2 secs

     total energy              =   -7738.30850083 Ry
     estimated scf accuracy    <       0.08222290 Ry

     total magnetization       =    88.30 Bohr mag/cell
     absolute magnetization    =    89.75 Bohr mag/cell

     iteration # 57     ecut=    50.00 Ry     beta= 0.10
     Davidson diagonalization with overlap
     ethr =  6.22E-06,  avg # of iterations =  1.5

     negative rho (up, down):  2.106E-04 2.704E-04
 
     Adding external electric field

     Computed dipole along edir(3) : 
        Dipole               -0.6562 Ry au,         -1.6679 Debye
        Dipole field         -0.0004 Ry au, 
 
        Potential amp.        0.0443 Ry
        Total length         55.1515 bohr
 
 
     Adding external electric field

     Computed dipole along edir(3) : 
        Dipole               -0.6562 Ry au,         -1.6679 Debye
        Dipole field         -0.0004 Ry au, 
 
        Potential amp.        0.0443 Ry
        Total length         55.1515 bohr
 

     total cpu time spent up to now is      837.5 secs

     total energy              =   -7738.30881709 Ry
     estimated scf accuracy    <       0.06657345 Ry

     total magnetization       =    88.25 Bohr mag/cell
     absolute magnetization    =    89.68 Bohr mag/cell

     iteration # 58     ecut=    50.00 Ry     beta= 0.10
     Davidson diagonalization with overlap
     ethr =  6.09E-06,  avg # of iterations =  1.0

     negative rho (up, down):  1.817E-04 2.416E-04
 
     Adding external electric field

     Computed dipole along edir(3) : 
        Dipole               -0.6653 Ry au,         -1.6910 Debye
        Dipole field         -0.0004 Ry au, 
 
        Potential amp.        0.0449 Ry
[...]
    -5.9150  -5.8975  -5.8827  -5.8747  -5.8615  -5.8408  -5.8328  -5.8033
    -5.7761  -5.7702  -5.7305  -5.7204  -5.7036  -5.6755  -5.6664  -5.6472
    -5.6298  -5.5978  -5.5512  -5.5491  -5.5244  -5.4943  -5.4784  -5.4682
    -5.4637  -5.4328  -5.4265  -5.3982  -5.3806  -5.3654  -5.3520  -5.3235
    -5.2064  -5.1949  -5.1799  -5.1728  -5.1582  -5.1334  -5.0696  -5.0267
    -5.0076  -4.9887  -4.9466  -4.9181  -4.9070  -4.8890  -4.8566  -4.8138
    -4.7902  -4.7351  -4.7243  -4.7094  -4.6712  -4.6536  -4.6215  -4.5446
    -4.5429  -4.4786  -4.4572  -4.3990  -4.3924  -4.3749  -4.3346  -4.3260
    -4.3092  -4.2586  -4.1887  -4.1776  -4.1429  -4.1161  -4.0973  -4.0712
    -4.0619  -4.0395  -4.0356  -3.9638  -3.9180  -3.8974  -3.8875  -3.8471
    -3.8281  -3.8083  -3.7653  -3.7550  -3.7498  -3.7186  -3.6960  -3.6569
    -3.6317  -3.5842  -3.5819  -3.5766  -3.5554  -3.5356  -3.5337  -3.5155
    -3.4984  -3.4758  -3.4545  -3.4488  -3.4398  -3.4263  -3.4023  -3.3871
    -3.3592  -3.3550  -3.3397  -3.3116  -3.3058  -3.2654  -3.2504  -3.2042
    -3.1993  -3.1881  -3.1819  -3.1636  -3.1539  -3.1010  -3.0768  -3.0545
    -3.0313  -3.0116  -3.0068  -2.9968  -2.9936  -2.9819  -2.9653  -2.9268
    -2.9093  -2.8973  -2.8732  -2.8320  -2.8266  -2.8177  -2.7785  -2.7625
    -2.7402  -2.7269  -2.7118  -2.6979  -2.6947  -2.6744  -2.6604  -2.6513
    -2.6351  -2.6277  -2.6213  -2.5994  -2.5886  -2.5785  -2.5712  -2.5570
    -2.5402  -2.5274  -2.5121  -2.4914  -2.4733  -2.4682  -2.4442  -2.4343
    -2.4058  -2.3980  -2.3734  -2.3479  -2.3124  -2.2970  -2.2769  -2.2555
    -2.2435  -2.2286  -2.2069  -2.1674  -2.1538  -2.1348  -2.1239  -2.0980
    -2.0948  -2.0736  -2.0644  -2.0523  -2.0381  -2.0156  -1.9973  -1.9509
    -1.9370  -1.9099  -1.9038  -1.8958  -1.8844  -1.8741  -1.8427  -1.8183
    -1.8081  -1.7925  -1.7748  -1.7677  -1.7577  -1.7475  -1.7293  -1.7115
    -1.6880  -1.6594  -1.6468  -1.6045  -1.5959  -1.5795  -1.5605  -1.5398
    -1.5277  -1.4956  -1.4743  -1.4560  -1.4490  -1.4396  -1.4131  -1.3905
    -1.3819  -1.3717  -1.3502  -1.3413  -1.3164  -1.3005  -1.2465  -1.2419
    -1.2222  -1.2142  -1.1945  -1.1535  -1.1507  -1.0810  -1.0396  -1.0286
    -0.9771  -0.8726  -0.8569  -0.8152  -0.7493  -0.6904  -0.6816  -0.4466
    -0.2826  -0.2506  -0.2362  -0.1041   0.2185   0.2513   0.2733   0.2810
     0.2861   0.3026   0.3363   0.3457   0.3709   0.3822   0.3950   0.4010
     0.4077   0.4200   0.4298   0.4358   0.4441   0.4562   0.4631   0.4715
     0.4783   0.4892   0.4895   0.4980   0.5032   0.5135   0.5151   0.5266
     0.5428   0.5451   0.5548   0.5610   0.5663   0.5715   0.5744   0.6002
     0.6071   0.6095   0.6169   0.6210   0.6347   0.6475   0.6489   0.6507
     0.6666   0.6704   0.6733   0.6842   0.6860   0.7064   0.7103   0.7139
     0.7229   0.7286   0.7311   0.7410   0.7555   0.7705   0.7827   0.7855
     0.7939   0.7979   0.8071   0.8308   0.8355   0.8455   0.8492   0.8517
     0.8636   0.8668   0.8851   0.9001   0.9030   0.9086   0.9203   0.9243
     0.9325   0.9614   0.9714   0.9831   0.9864   0.9888   0.9925   1.0181
     1.0557   1.1319   1.1341   1.2328   1.2549   1.7047   1.7822   1.7900
     1.7955   1.8111   1.8219   1.8386   1.8488   1.8610   1.9444   1.9609
     1.9728   1.9930   2.0181   2.0417   2.0534   2.0827   2.0958   2.1478
     2.1570   2.1727   2.1838   2.2101   2.2239   2.2389   2.2538   2.2698
     2.2807   2.3041   2.3225   2.3386   2.3482   2.3620   2.3921   2.4004
     2.4128   2.4149   2.4619   2.4630   2.4926   2.5106   2.5178   2.5234
     2.5333   2.5407   2.5605   2.5720   2.5894   2.6213   2.6286   2.6468
     2.6680   2.6733   2.6851   2.7439   2.8116   2.8283   2.8882   2.8959
     2.9022   2.9431   3.5190   3.5545   3.6039   3.6353   3.7647   3.7932
     3.8792   3.8923   3.9034   3.9523   3.9654   4.0196   4.1030   4.1109
     4.1201   4.1431   4.1679   4.1731   4.1950   4.2091   4.6784   4.7975
     4.8497   4.8844   4.9527   4.9660   5.0012   5.0554   5.0636   5.1374
     5.1389   5.1968   5.4394   6.3013   6.3940   6.5306   6.6417   6.7363
     6.8162   6.8670   6.9210   6.9645   7.0032   7.0825   7.1503   7.2185
     7.2957   7.3600   7.4083   7.4212   7.4623   7.5059   7.6486   7.6895
     7.7283   7.7641   7.7759   7.8203   7.8640   7.9101   7.9273   7.9693
     8.0265   8.0612   8.0907   8.1187   8.1721   8.1915   8.2121   8.2456
     8.2793   8.3169   8.3713   8.3853   8.4242   8.4353   8.4459   8.4721
     8.4851   8.5121   8.5378   8.5546   8.5908   8.5991   8.6195   8.6731
     8.6947   8.7075   8.7264   8.7486   8.7704   8.8099   8.8375   8.8683

     the Fermi energy is     1.6952 ev

!    total energy              =   -7738.30225730 Ry
     estimated scf accuracy    <       0.00000073 Ry
     smearing contrib. (-TS)   =      -0.02507470 Ry
     internal energy E=F+TS    =   -7738.27718260 Ry

     The total energy is F=E-TS. E is the sum of the following terms:
     one-electron contribution =  -95045.16898957 Ry
     hartree contribution      =   48140.27476589 Ry
     xc contribution           =   -2218.73954151 Ry
     ewald contribution        =   41387.16524288 Ry
     Dispersion Correction     =      -1.80885138 Ry
     electric field correction =       0.00019109 Ry

     total magnetization       =    88.32 Bohr mag/cell
     absolute magnetization    =    89.69 Bohr mag/cell

     convergence has been achieved in 113 iterations

     negative rho (up, down):  1.048E-03 5.890E-04

     Forces acting on atoms (cartesian axes, Ry/au):

     atom    1 type  1   force =     0.02526527   -0.03104206    0.01835940
     atom    2 type  2   force =    -0.01378881   -0.00147374   -0.00981835
     atom    3 type  1   force =    -0.02333344   -0.01857188    0.01965553
     atom    4 type  1   force =     0.00565760    0.00409794   -0.00624569
     atom    5 type  1   force =    -0.00187326    0.00105892   -0.00523638
     atom    6 type  1   force =     0.00202089    0.00784961   -0.00902775
     atom    7 type  3   force =    -0.00772633    0.00116643   -0.01045252
     atom    8 type  3   force =    -0.03499802    0.05415834   -0.08332408
     atom    9 type  3   force =     0.03413964    0.03817438   -0.06432402
     atom   10 type  3   force =    -0.00304782   -0.00247363   -0.01161773
     atom   11 type  4   force =     0.00668878    0.00556055    0.01380450
     atom   12 type  4   force =    -0.00028737   -0.00287335    0.01489519
     atom   13 type  4   force =     0.00199754    0.00177261    0.01745579
     atom   14 type  4   force =    -0.00044883   -0.00134462    0.01258738
     atom   15 type  4   force =    -0.00071027    0.00452399   -0.00194795
     atom   16 type  4   force =    -0.00045847    0.00269401    0.04014967
     atom   17 type  4   force =     0.00174944    0.00816830    0.03762494
     atom   18 type  4   force =     0.00803460   -0.00451044   -0.00039181
     atom   19 type  4   force =     0.00049849    0.01204376    0.00426723
     atom   20 type  4   force =    -0.00958769   -0.02687767   -0.00373433
     atom   21 type  4   force =    -0.01129097   -0.00040614    0.00065768
     atom   22 type  4   force =    -0.03221995    0.00310425    0.00780953
     atom   23 type  4   force =     0.03217548    0.00058708    0.01405115
     atom   24 type  4   force =     0.00696027   -0.03707644    0.00372481
     atom   25 type  4   force =    -0.00321473    0.00184362    0.00395027
     atom   26 type  4   force =     0.01796702   -0.00686791    0.00078477
     atom   27 type  1   force =    -0.00521204   -0.00882586    0.00276026
     atom   28 type  2   force =    -0.01332277   -0.00001991    0.00517675
     atom   29 type  1   force =     0.00297439   -0.00513501   -0.00110645
     atom   30 type  1   force =     0.00244889    0.00496141   -0.00120094
     atom   31 type  1   force =     0.00174624   -0.00472914    0.00040159
     atom   32 type  1   force =    -0.00078397    0.00127786   -0.00166503
     atom   33 type  3   force =    -0.00623801   -0.00191051   -0.00268849
     atom   34 type  3   force =    -0.00800649    0.00261347   -0.00030482
     atom   35 type  3   force =     0.00447119   -0.00068867    0.00275584
     atom   36 type  3   force =     0.00093682   -0.00220725   -0.00388736
     atom   37 type  4   force =     0.00862875    0.00537728    0.00766832
     atom   38 type  4   force =     0.00376955   -0.00082785   -0.01919566
     atom   39 type  4   force =    -0.00151967    0.00366775   -0.00982727
     atom   40 type  4   force =    -0.00137773   -0.00253407    0.00903017
     atom   41 type  4   force =    -0.00145481    0.00338209   -0.00674104
     atom   42 type  4   force =    -0.00430025   -0.00451978    0.01794527
     atom   43 type  4   force =     0.00775580    0.00345102    0.00759341
     atom   44 type  4   force =     0.00994032   -0.00563224   -0.00569447
     atom   45 type  4   force =     0.00286465    0.00477626    0.00055845
     atom   46 type  4   force =     0.00234526   -0.00017023   -0.00561517
     atom   47 type  4   force =    -0.01297566   -0.00022150   -0.00367127
     atom   48 type  4   force =    -0.01475516    0.00125294    0.00338427
     atom   49 type  4   force =     0.01359513    0.00253983    0.00439959
     atom   50 type  4   force =    -0.00276357   -0.00498514   -0.00049758
     atom   51 type  4   force =    -0.00531807    0.00161163    0.00053222
     atom   52 type  4   force =     0.01539972   -0.00409439   -0.00446231
     atom   53 type  1   force =    -0.00004441   -0.00028180   -0.00004548
     atom   54 type  2   force =    -0.00003501   -0.00015800   -0.00000757
     atom   55 type  1   force =    -0.00008700   -0.00015850   -0.00016445
     atom   56 type  1   force =    -0.00021422   -0.00014730    0.00008132
     atom   57 type  1   force =    -0.00052307    0.00050232    0.00051718
     atom   58 type  1   force =     0.00055543    0.00067306   -0.00011101
     atom   59 type  3   force =     0.00040108    0.00020450   -0.00050459
     atom   60 type  3   force =     0.00006224   -0.00003895    0.00019025
     atom   61 type  3   force =     0.00021353   -0.00021283   -0.00004853
     atom   62 type  3   force =    -0.00069761   -0.00007728   -0.00006038
     atom   63 type  4   force =     0.00036287    0.00018091   -0.00008603
     atom   64 type  4   force =     0.00017059   -0.00003494    0.00052449
     atom   65 type  4   force =    -0.00021456   -0.00021095    0.00042237
     atom   66 type  4   force =     0.00002141    0.00008342    0.00058240
     atom   67 type  4   force =    -0.00004496   -0.00016197   -0.00033648
     atom   68 type  4   force =     0.00061120    0.00026859    0.00003132
     atom   69 type  4   force =    -0.00040879   -0.00026040    0.00009754
     atom   70 type  4   force =     0.00032239   -0.00006443    0.00027188
     atom   71 type  4   force =    -0.00015542   -0.00047026   -0.00002843
     atom   72 type  4   force =    -0.00035451   -0.00035065   -0.00026849
     atom   73 type  4   force =     0.00021682    0.00027693    0.00021113
     atom   74 type  4   force =    -0.00019329   -0.00035574   -0.00050310
     atom   75 type  4   force =    -0.00004272   -0.00021216   -0.00025362
     atom   76 type  4   force =    -0.00003372   -0.00017632   -0.00033113
     atom   77 type  4   force =     0.00014774   -0.00013887    0.00028489
     atom   78 type  4   force =     0.00001750    0.00012556   -0.00013570
     atom   79 type  1   force =     0.02531415   -0.03103363    0.01838182
     atom   80 type  2   force =    -0.01374643   -0.00151097   -0.00986020
     atom   81 type  1   force =    -0.02333099   -0.01860348    0.01962716
     atom   82 type  1   force =     0.00573027    0.00405672   -0.00624290
     atom   83 type  1   force =    -0.00195527    0.00104886   -0.00523599
     atom   84 type  1   force =     0.00215623    0.00785685   -0.00906278
     atom   85 type  3   force =    -0.00771996    0.00117897   -0.01045841
     atom   86 type  3   force =    -0.03499308    0.05415671   -0.08333033
     atom   87 type  3   force =     0.03414512    0.03817450   -0.06432667
     atom   88 type  3   force =    -0.00305738   -0.00246975   -0.01162234
     atom   89 type  4   force =     0.00681480    0.00556395    0.01380710
     atom   90 type  4   force =    -0.00018586   -0.00277826    0.01491102
     atom   91 type  4   force =     0.00208937    0.00176363    0.01742786
     atom   92 type  4   force =    -0.00027928   -0.00135381    0.01258224
     atom   93 type  4   force =    -0.00069382    0.00473544   -0.00182396
     atom   94 type  4   force =    -0.00052320    0.00265269    0.03994839
     atom   95 type  4   force =     0.00188018    0.00817095    0.03762490
     atom   96 type  4   force =     0.00783714   -0.00454893   -0.00037270
     atom   97 type  4   force =     0.00060471    0.01209628    0.00416608
     atom   98 type  4   force =    -0.00948904   -0.02670425   -0.00369859
     atom   99 type  4   force =    -0.01128824   -0.00036963    0.00085321
     atom  100 type  4   force =    -0.03224751    0.00299864    0.00768484
     atom  101 type  4   force =     0.03221762    0.00059165    0.01405324
     atom  102 type  4   force =     0.00678709   -0.03706704    0.00373370
     atom  103 type  4   force =    -0.00311367    0.00177653    0.00391685
     atom  104 type  4   force =     0.01807346   -0.00688340    0.00078655
     atom  105 type  1   force =    -0.00519956   -0.00880476    0.00283466
     atom  106 type  2   force =    -0.01408396   -0.00061331    0.00567665
     atom  107 type  1   force =     0.00297181   -0.00504412   -0.00102882
     atom  108 type  1   force =     0.00381479    0.00354254    0.00183988
     atom  109 type  1   force =     0.00135017   -0.00479458    0.00031218
     atom  110 type  1   force =    -0.00078944    0.00123314   -0.00163312
     atom  111 type  3   force =    -0.00635258   -0.00073658   -0.00040029
     atom  112 type  3   force =    -0.00797631    0.00258527   -0.00026191
     atom  113 type  3   force =     0.00436217   -0.00058988    0.00290129
     atom  114 type  3   force =     0.00093570   -0.00175659   -0.00499980
     atom  115 type  4   force =     0.00829687    0.00482976    0.00720369
     atom  116 type  4   force =     0.00379884   -0.00085684   -0.01921458
     atom  117 type  4   force =    -0.00134164    0.00371784   -0.00985176
     atom  118 type  4   force =    -0.00169407   -0.00247979    0.00905561
     atom  119 type  4   force =    -0.00034484    0.00312612   -0.00606151
     atom  120 type  4   force =    -0.00425603   -0.00457509    0.01800216
     atom  121 type  4   force =     0.00780289    0.00344796    0.00762511
     atom  122 type  4   force =     0.01024565   -0.00494852   -0.00755246
     atom  123 type  4   force =     0.00277793    0.00441427    0.00050643
     atom  124 type  4   force =     0.00227688   -0.00021334   -0.00562300
     atom  125 type  4   force =    -0.01287091   -0.00008519   -0.00356029
     atom  126 type  4   force =    -0.01477913    0.00124979    0.00332435
     atom  127 type  4   force =     0.01363897    0.00247413    0.00454440
     atom  128 type  4   force =    -0.00288840   -0.00499957   -0.00050481
     atom  129 type  4   force =    -0.00508985    0.00156213   -0.00007194
     atom  130 type  4   force =     0.01597568   -0.00429138   -0.00432079
     atom  131 type  1   force =    -0.00016382   -0.00008534   -0.00015389
     atom  132 type  2   force =     0.00024177   -0.00012054    0.00005972
     atom  133 type  1   force =    -0.00065180    0.00011195   -0.00004435
     atom  134 type  1   force =    -0.00157130    0.00105811   -0.00157849
     atom  135 type  1   force =    -0.00014220    0.00069767   -0.00015985
     atom  136 type  1   force =     0.00054799    0.00067321    0.00029221
     atom  137 type  3   force =     0.00019931    0.00042161   -0.00048930
     atom  138 type  3   force =    -0.00031747    0.00036776    0.00023683
     atom  139 type  3   force =     0.00020665   -0.00033600    0.00012999
     atom  140 type  3   force =    -0.00042772    0.00001112   -0.00044471
     atom  141 type  4   force =     0.00022918   -0.00021320    0.00042431
     atom  142 type  4   force =    -0.00039929    0.00039226    0.00040560
     atom  143 type  4   force =    -0.00033144   -0.00016683    0.00028458
     atom  144 type  4   force =    -0.00017509   -0.00039040    0.00011672
     atom  145 type  4   force =     0.00020286   -0.00026396   -0.00055598
     atom  146 type  4   force =     0.00064390   -0.00035881   -0.00003873
     atom  147 type  4   force =     0.00007902    0.00008254    0.00025725
     atom  148 type  4   force =     0.00026254   -0.00057301   -0.00081924
     atom  149 type  4   force =    -0.00054216    0.00004745    0.00044512
     atom  150 type  4   force =    -0.00035954   -0.00049297   -0.00023967
     atom  151 type  4   force =    -0.00028491    0.00043905   -0.00006850
     atom  152 type  4   force =     0.00005164   -0.00034395   -0.00045505
     atom  153 type  4   force =    -0.00045077   -0.00035807    0.00002994
     atom  154 type  4   force =     0.00042031   -0.00003363   -0.00009424
     atom  155 type  4   force =     0.00001770   -0.00003455   -0.00013783
     atom  156 type  4   force =     0.00008495    0.00030953   -0.00033557
     atom  157 type  4   force =     0.00541621    0.00027154    0.00330799
     atom  158 type  5   force =    -0.00346559   -0.00250502   -0.00222156

     Total force =     0.262902     Total SCF correction =     0.003819
 
     init_run     :      8.26s CPU      8.88s WALL (       1 calls)
     electrons    :   1573.25s CPU   1634.70s WALL (       1 calls)
     forces       :      4.45s CPU      4.83s WALL (       1 calls)
     force_london :      0.09s CPU      0.09s WALL (       1 calls)

     Called by init_run:
     wfcinit      :      4.94s CPU      5.11s WALL (       1 calls)
     potinit      :      0.51s CPU      0.69s WALL (       1 calls)
     hinit0       :      1.75s CPU      1.85s WALL (       1 calls)

     Called by electrons:
     c_bands      :   1218.12s CPU   1250.02s WALL (     113 calls)
     sum_band     :    220.05s CPU    235.93s WALL (     113 calls)
     v_of_rho     :     27.83s CPU     29.71s WALL (     114 calls)
     newd         :     72.16s CPU     83.85s WALL (     114 calls)
     mix_rho      :     33.09s CPU     33.19s WALL (     113 calls)
     energy_londo :      0.08s CPU      0.08s WALL (       1 calls)

     Called by c_bands:
     init_us_2    :      2.66s CPU      2.75s WALL (     456 calls)
     init_us_2:cp :      2.66s CPU      2.75s WALL (     456 calls)
     regterg      :   1193.83s CPU   1225.44s WALL (     228 calls)

     Called by *egterg:
     rdiaghg      :    297.77s CPU    313.07s WALL (     798 calls)
     h_psi        :    460.55s CPU    468.86s WALL (     800 calls)
     s_psi        :     66.78s CPU     66.84s WALL (     800 calls)
     g_psi        :      0.50s CPU      0.50s WALL (     570 calls)

     Called by h_psi:
     h_psi:calbec :    121.89s CPU    128.68s WALL (     800 calls)
     vloc_psi     :    268.86s CPU    269.66s WALL (     800 calls)
     add_vuspsi   :     68.98s CPU     69.68s WALL (     800 calls)

     General routines
     calbec       :    179.92s CPU    189.90s WALL (    1034 calls)
     fft          :     53.28s CPU     55.90s WALL (    2065 calls)
     ffts         :     19.05s CPU     19.08s WALL (   14117 calls)
     fftw         :    312.54s CPU    313.43s WALL (  381016 calls)
     interpolate  :      2.15s CPU      2.37s WALL (     228 calls)
 
     Parallel routines
 
     PWSCF        :  26m29.64s CPU  27m32.38s WALL

 
   This run was terminated on:  23: 0:10  17Nov2025            

=------------------------------------------------------------------------------=
   JOB DONE.
=------------------------------------------------------------------------------=
