
     Program PWSCF v.7.2 starts on 17Nov2025 at 16: 1:39 

     This program is part of the open-source Quantum ESPRESSO suite
     for quantum simulation of materials; please cite
         "P. Giannozzi et al., J. Phys.:Condens. Matter 21 395502 (2009);
         "P. Giannozzi et al., J. Phys.:Condens. Matter 29 465901 (2017);
         "P. Giannozzi et al., J. Chem. Phys. 152 154105 (2020);
          URL http://www.quantum-espresso.org", 
     in publications or presentations arising from this work. More details at
     http://www.quantum-espresso.org/quote

     Parallel version (MPI), running on    64 processors

     MPI processes distributed on     4 nodes
     380655 MiB available memory on the printing compute node when the environment starts
 
     Reading input from ./H1_removed/PW.in

     Current dimensions of program PWSCF are:
     Max number of different atomic species (ntypx) = 10
     Max number of k-points (npk) =  40000
     Max angular momentum in pseudopotentials (lmaxx) =  4
     Presently no symmetry can be used with electric field

     Presently stress not available with electric field and gates

     file Ni.pbe-n-rrkjus_psl.1.0.0.UPF: wavefunction(s)  3D renormalized
     file Mn.pbe-spn-rrkjus_psl.0.3.1.UPF: wavefunction(s)  3D renormalized
     file O.pbe-rrkjus.UPF: wavefunction(s)  2S renormalized
     file H.pbe-rrkjus.UPF: wavefunction(s)  1S renormalized

     gamma-point specific algorithms are used
 
     R & G space division:  proc/nbgrp/npool/nimage =      64
     Subspace diagonalization in iterative solution of the eigenvalue problem:
     one sub-group per band group will be used
     custom distributed-memory algorithm (size of sub-group:  6*  6 procs)

 
     Parallelization info
     --------------------
     sticks:   dense  smooth     PW     G-vecs:    dense   smooth      PW
     Min         208      82     20                59912    15118    1876
     Max         210      84     22                59974    15196    1926
     Sum       13399    5355   1345              3836275   970529  121367
 
     Using Slab Decomposition
 


     bravais-lattice index     =            0
     lattice parameter (alat)  =      17.7004  a.u.
     unit-cell volume          =   20319.7251 (a.u.)^3
     number of atoms/cell      =          158
     number of atomic types    =            5
     number of electrons       =      1078.00
     number of Kohn-Sham states=          647
     kinetic-energy cutoff     =      50.0000  Ry
     charge density cutoff     =     500.0000  Ry
     scf convergence threshold =      1.0E-06
     mixing beta               =       0.1000
     number of iterations used =            8  local-TF  mixing
     energy convergence thresh.=      1.0E-04
     force convergence thresh. =      1.0E-03
     Exchange-correlation=  SLA  PW   PBE  PBE
                           (   1   4   3   4   0   0   0)
     nstep                     =         1000


     celldm(1)=  17.700384  celldm(2)=   0.000000  celldm(3)=   0.000000
     celldm(4)=   0.000000  celldm(5)=   0.000000  celldm(6)=   0.000000

     crystal axes: (cart. coord. in units of alat)
               a(1) = (   1.000000   0.000000   0.000000 )  
               a(2) = (   0.000000   1.075730   0.000000 )  
               a(3) = (   0.000000   0.000000   3.406172 )  

     reciprocal axes: (cart. coord. in units 2 pi/alat)
               b(1) = (  1.000000  0.000000  0.000000 )  
               b(2) = (  0.000000  0.929602  0.000000 )  
               b(3) = (  0.000000  0.000000  0.293585 )  


     PseudoPot. # 1 for Ni read from file:
     ~/PSEUDO/Ni.pbe-n-rrkjus_psl.1.0.0.UPF
     MD5 check sum: Not computed, couldn't open file
     Pseudo is Ultrasoft + core correction, Zval = 10.0
     Generated using "atomic" code by A. Dal Corso  v.5.1.2
     Using radial grid of 1195 points,  6 beta functions with: 
                l(1) =   0
                l(2) =   0
                l(3) =   1
                l(4) =   1
                l(5) =   2
                l(6) =   2
     Q(r) pseudized with 0 coefficients 


     PseudoPot. # 2 for Mn read from file:
     ~/PSEUDO/Mn.pbe-spn-rrkjus_psl.0.3.1.UPF
     MD5 check sum: Not computed, couldn't open file
     Pseudo is Ultrasoft + core correction, Zval = 15.0
     Generated using &quot;atomic&quot; code by A. Dal Corso  v.6.2.2
     Using radial grid of 1187 points,  6 beta functions with: 
                l(1) =   0
                l(2) =   0
                l(3) =   1
                l(4) =   1
                l(5) =   2
                l(6) =   2
     Q(r) pseudized with 0 coefficients 


     PseudoPot. # 3 for P  read from file:
     ~/PSEUDO/P.pbe-n-rrkjus_psl.1.0.0.UPF
     MD5 check sum: Not computed, couldn't open file
     Pseudo is Ultrasoft + core correction, Zval =  5.0
     Generated using "atomic" code by A. Dal Corso  v.5.1
     Using radial grid of 1147 points,  6 beta functions with: 
                l(1) =   0
                l(2) =   0
                l(3) =   1
                l(4) =   1
                l(5) =   2
                l(6) =   2
     Q(r) pseudized with 0 coefficients 


     PseudoPot. # 4 for O  read from file:
     ~/PSEUDO/O.pbe-rrkjus.UPF
     MD5 check sum: Not computed, couldn't open file
     Pseudo is Ultrasoft, Zval =  6.0
     Generated by new atomic code, or converted to UPF format
     Using radial grid of 1269 points,  4 beta functions with: 
                l(1) =   0
                l(2) =   0
                l(3) =   1
                l(4) =   1
     Q(r) pseudized with 0 coefficients 


     PseudoPot. # 5 for H  read from file:
     ~/PSEUDO/H.pbe-rrkjus.UPF
     MD5 check sum: Not computed, couldn't open file
     Pseudo is Ultrasoft, Zval =  1.0
     Generated by new atomic code, or converted to UPF format
     Using radial grid of 1061 points,  2 beta functions with: 
                l(1) =   0
                l(2) =   0
     Q(r) pseudized with 0 coefficients 


     atomic species   valence    mass     pseudopotential
     Ni               10.00    58.69300     Ni( 1.00)
     Mn               15.00    54.93800     Mn( 1.00)
     P                 5.00    30.97300     P ( 1.00)
     O                 6.00    15.99900     O ( 1.00)
     H                 1.00     1.00790     H ( 1.00)

     Starting magnetic structure 
     atomic species   magnetization
     Ni              1.000
     Mn              1.000
     P               1.000
     O               1.000
     H               0.000

     No symmetry found



   Cartesian axes

     site n.     atom                  positions (alat units)
         1        Mn     tau(   1) = (   0.2513289   0.8366376   1.6982279  )
         2        Ni     tau(   2) = (   0.4974347   0.7723839   1.3701531  )
         3        Ni     tau(   3) = (  -0.0016537   0.2963953   1.6764594  )
         4        Ni     tau(   4) = (   0.2604220   0.2375534   1.3681487  )
         5        Ni     tau(   5) = (   0.9954117   1.0756244   1.5353125  )
         6        Ni     tau(   6) = (   0.2569654   0.5361531   1.5328723  )
         7        Ni     tau(   7) = (   0.7543844   0.8338739   1.6764382  )
         8        Ni     tau(   8) = (   0.9922922   0.7734910   1.3718820  )
         9        Ni     tau(   9) = (   0.5014511   0.2956340   1.6760077  )
        10        Ni     tau(  10) = (   0.7604933   0.2356255   1.3669515  )
        11        Ni     tau(  11) = (   0.4971974   1.0741612   1.5345749  )
        12        Ni     tau(  12) = (   0.7569191   0.5343818   1.5309066  )
        13        P      tau(  13) = (   0.2096362   0.9715230   1.3807877  )
        14        P      tau(  14) = (   0.4710194   0.6431274   1.6899378  )
        15        P      tau(  15) = (   0.2847153   0.1151508   1.6957068  )
        16        P      tau(  16) = (   0.0445456   0.4320131   1.3714300  )
        17        O      tau(  17) = (   0.1334356   0.9002885   1.5169172  )
        18        O      tau(  18) = (   0.3926182   0.7054243   1.5474691  )
        19        O      tau(  19) = (   0.3639058   0.1699622   1.5487876  )
        20        O      tau(  20) = (   0.1221049   0.3614621   1.5080673  )
        21        O      tau(  21) = (   0.1477480   0.8817313   1.2565423  )
        22        O      tau(  22) = (   0.4119722   0.7392621   1.8082309  )
        23        O      tau(  23) = (   0.3444866   0.2141960   1.8091665  )
        24        O      tau(  24) = (   0.1045391   0.3443406   1.2448549  )
        25        O      tau(  25) = (   0.1037772   0.5873887   1.3757980  )
        26        O      tau(  26) = (   0.3397715   1.0324826   1.7000312  )
        27        O      tau(  27) = (   0.3810787   0.4249964   1.3830919  )
        28        O      tau(  28) = (   0.1196363   0.1153211   1.6813146  )
        29        O      tau(  29) = (   0.1310806   0.6478075   1.6825103  )
        30        O      tau(  30) = (   0.4128735   0.4867754   1.6905549  )
        31        O      tau(  31) = (   0.1507046   0.0504537   1.3800901  )
        32        O      tau(  32) = (   0.3735794   0.9622515   1.3891638  )
        33        P      tau(  33) = (   0.7095090   0.9704854   1.3728229  )
        34        P      tau(  34) = (   0.9654025   0.6444507   1.6939605  )
        35        P      tau(  35) = (   0.7849321   0.1090040   1.6936958  )
        36        P      tau(  36) = (   0.5450392   0.4306804   1.3701996  )
        37        O      tau(  37) = (   0.6318297   0.8987284   1.5089154  )
        38        O      tau(  38) = (   0.8894512   0.7058717   1.5478295  )
        39        O      tau(  39) = (   0.8629732   0.1696259   1.5477250  )
        40        O      tau(  40) = (   0.6225557   0.3590806   1.5063180  )
        41        O      tau(  41) = (   0.6495130   0.8822283   1.2463624  )
        42        O      tau(  42) = (   0.9072573   0.7437041   1.8086290  )
        43        O      tau(  43) = (   0.8447109   0.2070383   1.8083352  )
        44        O      tau(  44) = (   0.6054679   0.3423905   1.2440758  )
        45        O      tau(  45) = (   0.6058702   0.5854133   1.3737827  )
        46        O      tau(  46) = (   0.8416734   1.0271064   1.6929087  )
        47        O      tau(  47) = (   0.8806248   0.4243226   1.3833224  )
        48        O      tau(  48) = (   0.6196773   0.1112384   1.6798667  )
        49        O      tau(  49) = (   0.6356349   0.6477455   1.6777229  )
        50        O      tau(  50) = (   0.9087158   0.4874631   1.6918036  )
        51        O      tau(  51) = (   0.6493520   0.0493492   1.3760559  )
        52        O      tau(  52) = (   0.8734341   0.9630724   1.3858163  )
        53        Mn     tau(  53) = (   0.2404744   0.8246335   1.0701417  )
        54        Ni     tau(  54) = (   0.4968126   0.7601755   0.7454373  )
        55        Ni     tau(  55) = (   0.0066150   0.2811828   1.0628866  )
        56        Ni     tau(  56) = (   0.2585722   0.2230943   0.7421070  )
        57        Ni     tau(  57) = (   0.9987350   1.0571496   0.9014992  )
        58        Ni     tau(  58) = (   0.2517397   0.5205596   0.9040596  )
        59        Ni     tau(  59) = (   0.7451645   0.8212628   1.0648168  )
        60        Ni     tau(  60) = (   0.9939181   0.7613889   0.7462324  )
        61        Ni     tau(  61) = (   0.5111533   0.2799173   1.0618053  )
        62        Ni     tau(  62) = (   0.7606326   0.2194352   0.7418547  )
        63        Ni     tau(  63) = (   0.5024065   1.0563218   0.8999416  )
        64        Ni     tau(  64) = (   0.7529977   0.5192985   0.9024691  )
        65        P      tau(  65) = (   0.2092944   0.9606182   0.7524883  )
        66        P      tau(  66) = (   0.4655727   0.6234620   1.0595283  )
        67        P      tau(  67) = (   0.2910699   0.0902448   1.0573821  )
        68        P      tau(  68) = (   0.0396216   0.4163480   0.7471080  )
        69        O      tau(  69) = (   0.1294378   0.8888345   0.8859300  )
        70        O      tau(  70) = (   0.3874505   0.6929859   0.9232915  )
        71        O      tau(  71) = (   0.3702540   0.1589885   0.9209891  )
        72        O      tau(  72) = (   0.1184398   0.3458043   0.8831565  )
        73        O      tau(  73) = (   0.1451572   0.8725966   0.6282341  )
        74        O      tau(  74) = (   0.4048762   0.7120670   1.1852426  )
        75        O      tau(  75) = (   0.3523506   0.1775664   1.1834175  )
        76        O      tau(  76) = (   0.1017610   0.3285569   0.6213347  )
        77        O      tau(  77) = (   0.0975396   0.5724373   0.7511996  )
        78        O      tau(  78) = (   0.3483552   1.0190030   1.0599597  )
        79        O      tau(  79) = (   0.3784305   0.4100203   0.7560991  )
        80        O      tau(  80) = (   0.1268237   0.0943029   1.0477175  )
        81        O      tau(  81) = (   0.1212267   0.6299255   1.0507023  )
        82        O      tau(  82) = (   0.4053315   0.4684472   1.0569297  )
        83        O      tau(  83) = (   0.1536621   0.0322003   0.7496532  )
        84        O      tau(  84) = (   0.3732349   0.9506802   0.7613277  )
        85        P      tau(  85) = (   0.7119823   0.9571059   0.7496908  )
        86        P      tau(  86) = (   0.9615208   0.6238477   1.0606987  )
        87        P      tau(  87) = (   0.7927710   0.0845145   1.0577754  )
        88        P      tau(  88) = (   0.5426404   0.4144760   0.7459181  )
        89        O      tau(  89) = (   0.6326879   0.8866267   0.8856678  )
        90        O      tau(  90) = (   0.8842163   0.6958291   0.9244764  )
        91        O      tau(  91) = (   0.8716178   0.1552836   0.9216415  )
        92        O      tau(  92) = (   0.6212010   0.3433751   0.8818834  )
        93        O      tau(  93) = (   0.6507714   0.8687427   0.6238197  )
        94        O      tau(  94) = (   0.9014054   0.7139543   1.1859242  )
        95        O      tau(  95) = (   0.8548963   0.1722994   1.1834447  )
        96        O      tau(  96) = (   0.6044469   0.3253792   0.6209553  )
        97        O      tau(  97) = (   0.6024424   0.5698225   0.7490903  )
        98        O      tau(  98) = (   0.8498940   1.0129567   1.0594762  )
        99        O      tau(  99) = (   0.8798395   0.4080910   0.7564148  )
       100        O      tau( 100) = (   0.6286921   0.0909721   1.0472573  )
       101        O      tau( 101) = (   0.6294973   0.6302838   1.0497366  )
       102        O      tau( 102) = (   0.9024339   0.4685397   1.0573501  )
       103        O      tau( 103) = (   0.6547812   0.0286072   0.7473283  )
       104        O      tau( 104) = (   0.8760507   0.9507690   0.7605412  )
       105        Mn     tau( 105) = (   0.2404744   0.8121420   0.4502541  )
       106        Ni     tau( 106) = (   0.4968126   0.7476840   0.1255496  )
       107        Ni     tau( 107) = (   0.0066150   0.2686914   0.4429989  )
       108        Ni     tau( 108) = (   0.2585722   0.2106028   0.1222194  )
       109        Ni     tau( 109) = (   0.9987350   1.0446581   0.2816116  )
       110        Ni     tau( 110) = (   0.2517397   0.5080681   0.2841720  )
       111        Ni     tau( 111) = (   0.7451645   0.8087713   0.4449291  )
       112        Ni     tau( 112) = (   0.9939181   0.7488974   0.1263448  )
       113        Ni     tau( 113) = (   0.5111533   0.2674258   0.4419177  )
       114        Ni     tau( 114) = (   0.7606326   0.2069438   0.1219670  )
       115        Ni     tau( 115) = (   0.5024065   1.0438304   0.2800540  )
       116        Ni     tau( 116) = (   0.7529977   0.5068070   0.2825815  )
       117        P      tau( 117) = (   0.2092944   0.9481267   0.1326007  )
       118        P      tau( 118) = (   0.4655727   0.6109705   0.4396407  )
       119        P      tau( 119) = (   0.2910699   0.0777534   0.4374945  )
       120        P      tau( 120) = (   0.0396216   0.4038566   0.1272204  )
       121        O      tau( 121) = (   0.1294378   0.8763430   0.2660424  )
       122        O      tau( 122) = (   0.3874505   0.6804944   0.3034039  )
       123        O      tau( 123) = (   0.3702540   0.1464970   0.3011014  )
       124        O      tau( 124) = (   0.1184398   0.3333129   0.2632689  )
       125        O      tau( 125) = (   0.1451572   0.8601051   0.0083464  )
       126        O      tau( 126) = (   0.4048762   0.6995756   0.5653550  )
       127        O      tau( 127) = (   0.3523506   0.1650749   0.5635298  )
       128        O      tau( 128) = (   0.1017610   0.3160655   0.0014470  )
       129        O      tau( 129) = (   0.0975396   0.5599458   0.1313120  )
       130        O      tau( 130) = (   0.3483552   1.0065115   0.4400720  )
       131        O      tau( 131) = (   0.3784305   0.3975288   0.1362114  )
       132        O      tau( 132) = (   0.1268237   0.0818115   0.4278298  )
       133        O      tau( 133) = (   0.1212267   0.6174340   0.4308146  )
       134        O      tau( 134) = (   0.4053315   0.4559557   0.4370420  )
       135        O      tau( 135) = (   0.1536621   0.0197088   0.1297656  )
       136        O      tau( 136) = (   0.3732349   0.9381887   0.1414400  )
       137        P      tau( 137) = (   0.7119823   0.9446144   0.1298032  )
       138        P      tau( 138) = (   0.9615208   0.6113562   0.4408111  )
       139        P      tau( 139) = (   0.7927710   0.0720230   0.4378878  )
       140        P      tau( 140) = (   0.5426404   0.4019845   0.1260304  )
       141        O      tau( 141) = (   0.6326879   0.8741353   0.2657802  )
       142        O      tau( 142) = (   0.8842163   0.6833376   0.3045887  )
       143        O      tau( 143) = (   0.8716178   0.1427921   0.3017538  )
       144        O      tau( 144) = (   0.6212010   0.3308836   0.2619957  )
       145        O      tau( 145) = (   0.6507714   0.8562512   0.0039320  )
       146        O      tau( 146) = (   0.9014054   0.7014628   0.5660366  )
       147        O      tau( 147) = (   0.8548963   0.1598079   0.5635571  )
       148        O      tau( 148) = (   0.6044469   0.3128877   0.0010676  )
       149        O      tau( 149) = (   0.6024424   0.5573310   0.1292027  )
       150        O      tau( 150) = (   0.8498940   1.0004653   0.4395886  )
       151        O      tau( 151) = (   0.8798395   0.3955995   0.1365272  )
       152        O      tau( 152) = (   0.6286921   0.0784807   0.4273696  )
       153        O      tau( 153) = (   0.6294973   0.6177923   0.4298489  )
       154        O      tau( 154) = (   0.9024339   0.4560482   0.4374624  )
       155        O      tau( 155) = (   0.6547812   0.0161158   0.1274406  )
       156        O      tau( 156) = (   0.8760507   0.9382775   0.1406535  )
       157        O      tau( 157) = (   0.6410705   0.3781938   1.8833180  )
       158        H      tau( 158) = (   0.7219066   0.3220973   1.8802532  )

     -------------------------------------------------
     Parameters for Dispersion (Grimme-D2) Correction:
     -------------------------------------------------
       atom      VdW radius       C_6     

        Ni         2.952        374.666
        Mn         2.952        374.666
        P          3.222        271.980
        O          2.536         24.284
        H          1.892          4.857

     number of k points=     1  Gaussian smearing, width (Ry)=  0.0100
                       cart. coord. in units 2pi/alat
        k(    1) = (   0.0000000   0.0000000   0.0000000), wk =   1.0000000

     Dense  grid:  1918138 G-vectors     FFT dimensions: ( 125, 135, 432)

     Smooth grid:   485265 G-vectors     FFT dimensions: (  80,  90, 288)

     Estimated max dynamical RAM per process >     320.12 MB

     Estimated total dynamical RAM >      20.01 GB
     Generating pointlists ...
     new r_m :   0.0866 (alat units)  1.5324 (a.u.) for type    1
     new r_m :   0.0869 (alat units)  1.5388 (a.u.) for type    2
     new r_m :   0.0650 (alat units)  1.1499 (a.u.) for type    3
     new r_m :   0.0406 (alat units)  0.7188 (a.u.) for type    4
     new r_m :   0.0406 (alat units)  0.7188 (a.u.) for type    5

     Initial potential from superposition of free atoms

     starting charge    1077.8900, renormalised to    1078.0000

     negative rho (up, down):  1.211E-03 4.571E-04
 
     Adding external electric field

     Computed dipole along edir(3) : 
        Dipole                1.6445 Ry au,          4.1798 Debye
        Dipole field          0.0010 Ry au, 
 
        Potential amp.       -0.1104 Ry
        Total length         54.2615 bohr
 
 
     Adding external electric field

     Computed dipole along edir(3) : 
        Dipole                1.6445 Ry au,          4.1798 Debye
        Dipole field          0.0010 Ry au, 
 
        Potential amp.       -0.1104 Ry
        Total length         54.2615 bohr
 
     Starting wfcs are  812 randomized atomic wfcs

     total cpu time spent up to now is       12.8 secs

     Self-consistent Calculation

     iteration #  1     ecut=    50.00 Ry     beta= 0.10
     Davidson diagonalization with overlap
     ethr =  1.00E-02,  avg # of iterations =  6.0

     negative rho (up, down):  3.428E-01 4.055E-07
 
     Adding external electric field

     Computed dipole along edir(3) : 
        Dipole               -3.3334 Ry au,         -8.4726 Debye
        Dipole field         -0.0021 Ry au, 
 
        Potential amp.        0.2237 Ry
        Total length         54.2615 bohr
 
 
     Adding external electric field

     Computed dipole along edir(3) : 
        Dipole               -3.3334 Ry au,         -8.4726 Debye
        Dipole field         -0.0021 Ry au, 
 
        Potential amp.        0.2237 Ry
        Total length         54.2615 bohr
 

     total cpu time spent up to now is       43.1 secs

     total energy              =   -7177.06328363 Ry
     estimated scf accuracy    <     746.00502355 Ry

     total magnetization       =   216.00 Bohr mag/cell
     absolute magnetization    =   297.34 Bohr mag/cell

     iteration #  2     ecut=    50.00 Ry     beta= 0.10
     Davidson diagonalization with overlap
     ethr =  1.00E-02,  avg # of iterations =  2.0

     negative rho (up, down):  3.237E-01 2.523E-07
 
     Adding external electric field

     Computed dipole along edir(3) : 
        Dipole               -2.2728 Ry au,         -5.7768 Debye
        Dipole field         -0.0014 Ry au, 
 
        Potential amp.        0.1525 Ry
        Total length         54.2615 bohr
 
 
     Adding external electric field

     Computed dipole along edir(3) : 
        Dipole               -2.2728 Ry au,         -5.7768 Debye
        Dipole field         -0.0014 Ry au, 
 
        Potential amp.        0.1525 Ry
        Total length         54.2615 bohr
 

     total cpu time spent up to now is       62.2 secs

     total energy              =   -7262.48405175 Ry
     estimated scf accuracy    <     193.81510319 Ry

     total magnetization       =   152.50 Bohr mag/cell
     absolute magnetization    =   201.76 Bohr mag/cell

     iteration #  3     ecut=    50.00 Ry     beta= 0.10
     Davidson diagonalization with overlap
     ethr =  1.00E-02,  avg # of iterations =  1.5

     negative rho (up, down):  2.861E-01 2.646E-07
 
     Adding external electric field

     Computed dipole along edir(3) : 
        Dipole               -1.9980 Ry au,         -5.0783 Debye
        Dipole field         -0.0012 Ry au, 
 
        Potential amp.        0.1341 Ry
        Total length         54.2615 bohr
 
 
     Adding external electric field

     Computed dipole along edir(3) : 
        Dipole               -1.9980 Ry au,         -5.0783 Debye
        Dipole field         -0.0012 Ry au, 
 
        Potential amp.        0.1341 Ry
        Total length         54.2615 bohr
 

     total cpu time spent up to now is       76.2 secs

     total energy              =   -7292.25190588 Ry
     estimated scf accuracy    <      96.82911756 Ry

     total magnetization       =   126.90 Bohr mag/cell
     absolute magnetization    =   180.33 Bohr mag/cell

     iteration #  4     ecut=    50.00 Ry     beta= 0.10
     Davidson diagonalization with overlap
     ethr =  8.98E-03,  avg # of iterations =  1.5

     negative rho (up, down):  2.177E-01 1.017E-07
 
     Adding external electric field

     Computed dipole along edir(3) : 
        Dipole               -1.9836 Ry au,         -5.0419 Debye
        Dipole field         -0.0012 Ry au, 
 
        Potential amp.        0.1331 Ry
        Total length         54.2615 bohr
 
 
     Adding external electric field

     Computed dipole along edir(3) : 
        Dipole               -1.9836 Ry au,         -5.0419 Debye
        Dipole field         -0.0012 Ry au, 
 
        Potential amp.        0.1331 Ry
        Total length         54.2615 bohr
 

     total cpu time spent up to now is       90.0 secs

     total energy              =   -7325.19309405 Ry
     estimated scf accuracy    <      79.26521439 Ry

     total magnetization       =   111.48 Bohr mag/cell
     absolute magnetization    =   165.98 Bohr mag/cell

     iteration #  5     ecut=    50.00 Ry     beta= 0.10
     Davidson diagonalization with overlap
     ethr =  7.35E-03,  avg # of iterations =  1.5

     negative rho (up, down):  1.430E-02 1.119E-05
 
     Adding external electric field

     Computed dipole along edir(3) : 
        Dipole               -1.6512 Ry au,         -4.1970 Debye
        Dipole field         -0.0010 Ry au, 
 
        Potential amp.        0.1108 Ry
        Total length         54.2615 bohr
 
 
     Adding external electric field

     Computed dipole along edir(3) : 
        Dipole               -1.6512 Ry au,         -4.1970 Debye
        Dipole field         -0.0010 Ry au, 
 
        Potential amp.        0.1108 Ry
        Total length         54.2615 bohr
 

     total cpu time spent up to now is      103.3 secs

     total energy              =   -7384.60030367 Ry
     estimated scf accuracy    <      62.78669525 Ry

     total magnetization       =    88.13 Bohr mag/cell
     absolute magnetization    =   146.88 Bohr mag/cell

     iteration #  6     ecut=    50.00 Ry     beta= 0.10
     Davidson diagonalization with overlap
     ethr =  5.82E-03,  avg # of iterations =  1.5

     negative rho (up, down):  1.785E-03 1.490E-03
 
     Adding external electric field

     Computed dipole along edir(3) : 
        Dipole               -1.4012 Ry au,         -3.5615 Debye
        Dipole field         -0.0009 Ry au, 
 
        Potential amp.        0.0940 Ry
        Total length         54.2615 bohr
 
 
     Adding external electric field

     Computed dipole along edir(3) : 
        Dipole               -1.4012 Ry au,         -3.5615 Debye
        Dipole field         -0.0009 Ry au, 
 
        Potential amp.        0.0940 Ry
        Total length         54.2615 bohr
 

     total cpu time spent up to now is      116.7 secs

     total energy              =   -7395.10360484 Ry
     estimated scf accuracy    <      11.30792940 Ry

     total magnetization       =    82.00 Bohr mag/cell
     absolute magnetization    =   116.96 Bohr mag/cell

     iteration #  7     ecut=    50.00 Ry     beta= 0.10
     Davidson diagonalization with overlap
     ethr =  1.05E-03,  avg # of iterations =  4.5

     negative rho (up, down):  1.756E-03 1.451E-03
 
     Adding external electric field

     Computed dipole along edir(3) : 
        Dipole               -1.3833 Ry au,         -3.5159 Debye
        Dipole field         -0.0009 Ry au, 
 
        Potential amp.        0.0928 Ry
        Total length         54.2615 bohr
 
 
     Adding external electric field

     Computed dipole along edir(3) : 
        Dipole               -1.3833 Ry au,         -3.5159 Debye
        Dipole field         -0.0009 Ry au, 
 
        Potential amp.        0.0928 Ry
        Total length         54.2615 bohr
 

     total cpu time spent up to now is      136.4 secs

     total energy              =   -7397.59770095 Ry
     estimated scf accuracy    <      15.35320469 Ry

     total magnetization       =    70.35 Bohr mag/cell
     absolute magnetization    =    87.70 Bohr mag/cell

     iteration #  8     ecut=    50.00 Ry     beta= 0.10
     Davidson diagonalization with overlap
     ethr =  1.05E-03,  avg # of iterations =  1.0

     negative rho (up, down):  1.651E-03 1.389E-03
 
     Adding external electric field

     Computed dipole along edir(3) : 
        Dipole               -1.3451 Ry au,         -3.4189 Debye
        Dipole field         -0.0008 Ry au, 
 
        Potential amp.        0.0903 Ry
        Total length         54.2615 bohr
 
 
     Adding external electric field

     Computed dipole along edir(3) : 
        Dipole               -1.3451 Ry au,         -3.4189 Debye
        Dipole field         -0.0008 Ry au, 
 
        Potential amp.        0.0903 Ry
        Total length         54.2615 bohr
 

     total cpu time spent up to now is      148.3 secs

     total energy              =   -7397.60004107 Ry
     estimated scf accuracy    <      14.24094921 Ry

     total magnetization       =    70.93 Bohr mag/cell
     absolute magnetization    =    87.92 Bohr mag/cell

     iteration #  9     ecut=    50.00 Ry     beta= 0.10
     Davidson diagonalization with overlap
     ethr =  1.05E-03,  avg # of iterations =  1.0

     negative rho (up, down):  7.515E-04 1.304E-03
 
     Adding external electric field

     Computed dipole along edir(3) : 
        Dipole               -0.7978 Ry au,         -2.0277 Debye
        Dipole field         -0.0005 Ry au, 
 
        Potential amp.        0.0535 Ry
        Total length         54.2615 bohr
 
 
     Adding external electric field

     Computed dipole along edir(3) : 
        Dipole               -0.7978 Ry au,         -2.0277 Debye
        Dipole field         -0.0005 Ry au, 
 
        Potential amp.        0.0535 Ry
        Total length         54.2615 bohr
 

     total cpu time spent up to now is      160.1 secs

     total energy              =   -7397.37314853 Ry
     estimated scf accuracy    <      13.01512325 Ry

     total magnetization       =    71.44 Bohr mag/cell
     absolute magnetization    =    87.94 Bohr mag/cell

     iteration # 10     ecut=    50.00 Ry     beta= 0.10
     Davidson diagonalization with overlap
     ethr =  1.05E-03,  avg # of iterations =  1.5

     negative rho (up, down):  7.069E-04 1.237E-03
 
     Adding external electric field

     Computed dipole along edir(3) : 
        Dipole               -0.8055 Ry au,         -2.0474 Debye
        Dipole field         -0.0005 Ry au, 
 
        Potential amp.        0.0541 Ry
        Total length         54.2615 bohr
 
 
     Adding external electric field

     Computed dipole along edir(3) : 
        Dipole               -0.8055 Ry au,         -2.0474 Debye
        Dipole field         -0.0005 Ry au, 
 
        Potential amp.        0.0541 Ry
        Total length         54.2615 bohr
 

     total cpu time spent up to now is      173.2 secs

     total energy              =   -7397.58877206 Ry
     estimated scf accuracy    <       6.66389722 Ry

     total magnetization       =    73.18 Bohr mag/cell
     absolute magnetization    =    85.84 Bohr mag/cell

     iteration # 11     ecut=    50.00 Ry     beta= 0.10
     Davidson diagonalization with overlap
     ethr =  6.18E-04,  avg # of iterations =  2.0

     negative rho (up, down):  4.183E-04 1.118E-03
 
     Adding external electric field

     Computed dipole along edir(3) : 
        Dipole               -0.7774 Ry au,         -1.9761 Debye
        Dipole field         -0.0005 Ry au, 
 
        Potential amp.        0.0522 Ry
        Total length         54.2615 bohr
 
 
     Adding external electric field

     Computed dipole along edir(3) : 
        Dipole               -0.7774 Ry au,         -1.9761 Debye
        Dipole field         -0.0005 Ry au, 
 
        Potential amp.        0.0522 Ry
        Total length         54.2615 bohr
 

     total cpu time spent up to now is      185.8 secs

     total energy              =   -7397.58043117 Ry
     estimated scf accuracy    <       6.39948743 Ry

     total magnetization       =    73.36 Bohr mag/cell
     absolute magnetization    =    85.72 Bohr mag/cell

     iteration # 12     ecut=    50.00 Ry     beta= 0.10
     Davidson diagonalization with overlap
     ethr =  5.94E-04,  avg # of iterations =  1.5

     negative rho (up, down):  8.800E-03 1.042E-02
 
     Adding external electric field

     Computed dipole along edir(3) : 
        Dipole               -0.8153 Ry au,         -2.0722 Debye
        Dipole field         -0.0005 Ry au, 
 
        Potential amp.        0.0547 Ry
        Total length         54.2615 bohr
 
 
     Adding external electric field

     Computed dipole along edir(3) : 
        Dipole               -0.8153 Ry au,         -2.0722 Debye
        Dipole field         -0.0005 Ry au, 
 
        Potential amp.        0.0547 Ry
        Total length         54.2615 bohr
 

     total cpu time spent up to now is      198.0 secs

     total energy              =   -7397.51752371 Ry
     estimated scf accuracy    <       6.09382604 Ry

     total magnetization       =    73.35 Bohr mag/cell
     absolute magnetization    =    84.83 Bohr mag/cell

     iteration # 13     ecut=    50.00 Ry     beta= 0.10
     Davidson diagonalization with overlap
     ethr =  5.65E-04,  avg # of iterations =  2.0

     negative rho (up, down):  8.104E-03 1.041E-02
 
     Adding external electric field

     Computed dipole along edir(3) : 
        Dipole               -0.7120 Ry au,         -1.8097 Debye
        Dipole field         -0.0004 Ry au, 
 
        Potential amp.        0.0478 Ry
        Total length         54.2615 bohr
 
 
     Adding external electric field

     Computed dipole along edir(3) : 
        Dipole               -0.7120 Ry au,         -1.8097 Debye
        Dipole field         -0.0004 Ry au, 
 
        Potential amp.        0.0478 Ry
        Total length         54.2615 bohr
 

     total cpu time spent up to now is      211.2 secs

     total energy              =   -7397.68446249 Ry
     estimated scf accuracy    <       1.00448266 Ry

     total magnetization       =    79.42 Bohr mag/cell
     absolute magnetization    =    87.72 Bohr mag/cell

     iteration # 14     ecut=    50.00 Ry     beta= 0.10
     Davidson diagonalization with overlap
     ethr =  9.32E-05,  avg # of iterations = 19.5

     negative rho (up, down):  8.771E-03 1.123E-02
 
     Adding external electric field

     Computed dipole along edir(3) : 
        Dipole               -0.7719 Ry au,         -1.9619 Debye
        Dipole field         -0.0005 Ry au, 
 
        Potential amp.        0.0518 Ry
        Total length         54.2615 bohr
 
 
     Adding external electric field

     Computed dipole along edir(3) : 
        Dipole               -0.7719 Ry au,         -1.9619 Debye
        Dipole field         -0.0005 Ry au, 
 
        Potential amp.        0.0518 Ry
        Total length         54.2615 bohr
 

     total cpu time spent up to now is      245.5 secs

     total energy              =   -7397.69479563 Ry
     estimated scf accuracy    <       1.31528071 Ry

     total magnetization       =    79.69 Bohr mag/cell
     absolute magnetization    =    86.64 Bohr mag/cell

     iteration # 15     ecut=    50.00 Ry     beta= 0.10
     Davidson diagonalization with overlap
     ethr =  9.32E-05,  avg # of iterations =  1.0

     negative rho (up, down):  1.315E-02 1.508E-02
 
     Adding external electric field

     Computed dipole along edir(3) : 
        Dipole               -0.8363 Ry au,         -2.1256 Debye
        Dipole field         -0.0005 Ry au, 
 
        Potential amp.        0.0561 Ry
        Total length         54.2615 bohr
 
 
     Adding external electric field

     Computed dipole along edir(3) : 
        Dipole               -0.8363 Ry au,         -2.1256 Debye
        Dipole field         -0.0005 Ry au, 
 
        Potential amp.        0.0561 Ry
        Total length         54.2615 bohr
 

     total cpu time spent up to now is      257.2 secs

     total energy              =   -7397.78931889 Ry
     estimated scf accuracy    <       1.08118557 Ry

     total magnetization       =    78.82 Bohr mag/cell
     absolute magnetization    =    85.39 Bohr mag/cell

     iteration # 16     ecut=    50.00 Ry     beta= 0.10
     Davidson diagonalization with overlap
     ethr =  9.32E-05,  avg # of iterations =  1.0

     negative rho (up, down):  2.021E-02 2.268E-02
 
     Adding external electric field

     Computed dipole along edir(3) : 
        Dipole               -0.9148 Ry au,         -2.3253 Debye
        Dipole field         -0.0006 Ry au, 
 
        Potential amp.        0.0614 Ry
        Total length         54.2615 bohr
 
 
     Adding external electric field

     Computed dipole along edir(3) : 
        Dipole               -0.9148 Ry au,         -2.3253 Debye
        Dipole field         -0.0006 Ry au, 
 
        Potential amp.        0.0614 Ry
        Total length         54.2615 bohr
 

     total cpu time spent up to now is      269.0 secs

     total energy              =   -7397.81180437 Ry
     estimated scf accuracy    <       0.71767929 Ry

     total magnetization       =    79.13 Bohr mag/cell
     absolute magnetization    =    84.56 Bohr mag/cell

     iteration # 17     ecut=    50.00 Ry     beta= 0.10
     Davidson diagonalization with overlap
     ethr =  6.66E-05,  avg # of iterations =  1.0

     negative rho (up, down):  1.489E-02 1.625E-02
 
     Adding external electric field

     Computed dipole along edir(3) : 
        Dipole               -0.9248 Ry au,         -2.3506 Debye
        Dipole field         -0.0006 Ry au, 
 
        Potential amp.        0.0621 Ry
        Total length         54.2615 bohr
 
 
     Adding external electric field

     Computed dipole along edir(3) : 
        Dipole               -0.9248 Ry au,         -2.3506 Debye
        Dipole field         -0.0006 Ry au, 
 
        Potential amp.        0.0621 Ry
        Total length         54.2615 bohr
 

     total cpu time spent up to now is      280.1 secs

     total energy              =   -7397.86216603 Ry
     estimated scf accuracy    <       0.29382679 Ry

     total magnetization       =    79.70 Bohr mag/cell
     absolute magnetization    =    84.47 Bohr mag/cell

     iteration # 18     ecut=    50.00 Ry     beta= 0.10
     Davidson diagonalization with overlap
     ethr =  2.73E-05,  avg # of iterations =  1.5

     negative rho (up, down):  1.327E-02 1.520E-02
 
     Adding external electric field

     Computed dipole along edir(3) : 
        Dipole               -0.8861 Ry au,         -2.2523 Debye
        Dipole field         -0.0005 Ry au, 
 
        Potential amp.        0.0595 Ry
        Total length         54.2615 bohr
 
 
     Adding external electric field

     Computed dipole along edir(3) : 
        Dipole               -0.8861 Ry au,         -2.2523 Debye
        Dipole field         -0.0005 Ry au, 
 
        Potential amp.        0.0595 Ry
        Total length         54.2615 bohr
 

     total cpu time spent up to now is      294.0 secs

     total energy              =   -7397.87480245 Ry
     estimated scf accuracy    <       0.20524519 Ry

     total magnetization       =    80.62 Bohr mag/cell
     absolute magnetization    =    84.67 Bohr mag/cell

     iteration # 19     ecut=    50.00 Ry     beta= 0.10
     Davidson diagonalization with overlap
     ethr =  1.90E-05,  avg # of iterations =  1.5

     negative rho (up, down):  8.221E-03 1.057E-02
 
     Adding external electric field

     Computed dipole along edir(3) : 
        Dipole               -0.7931 Ry au,         -2.0158 Debye
        Dipole field         -0.0005 Ry au, 
 
        Potential amp.        0.0532 Ry
        Total length         54.2615 bohr
 
 
     Adding external electric field

     Computed dipole along edir(3) : 
        Dipole               -0.7931 Ry au,         -2.0158 Debye
        Dipole field         -0.0005 Ry au, 
 
        Potential amp.        0.0532 Ry
        Total length         54.2615 bohr
 

     total cpu time spent up to now is      306.9 secs

     total energy              =   -7397.90103734 Ry
     estimated scf accuracy    <       0.11377624 Ry

     total magnetization       =    80.27 Bohr mag/cell
     absolute magnetization    =    83.90 Bohr mag/cell

     iteration # 20     ecut=    50.00 Ry     beta= 0.10
     Davidson diagonalization with overlap
     ethr =  1.06E-05,  avg # of iterations =  2.0

     negative rho (up, down):  3.931E-03 5.405E-03
 
     Adding external electric field

     Computed dipole along edir(3) : 
        Dipole               -0.7093 Ry au,         -1.8028 Debye
        Dipole field         -0.0004 Ry au, 
 
        Potential amp.        0.0476 Ry
        Total length         54.2615 bohr
 
 
     Adding external electric field

     Computed dipole along edir(3) : 
        Dipole               -0.7093 Ry au,         -1.8028 Debye
        Dipole field         -0.0004 Ry au, 
 
        Potential amp.        0.0476 Ry
        Total length         54.2615 bohr
 

     total cpu time spent up to now is      321.9 secs

     total energy              =   -7397.92087724 Ry
     estimated scf accuracy    <       0.07072874 Ry

     total magnetization       =    79.70 Bohr mag/cell
     absolute magnetization    =    81.91 Bohr mag/cell

     iteration # 21     ecut=    50.00 Ry     beta= 0.10
     Davidson diagonalization with overlap
     ethr =  6.56E-06,  avg # of iterations =  2.0

     negative rho (up, down):  3.001E-03 3.567E-03
 
     Adding external electric field

     Computed dipole along edir(3) : 
        Dipole               -0.7342 Ry au,         -1.8662 Debye
        Dipole field         -0.0005 Ry au, 
 
        Potential amp.        0.0493 Ry
        Total length         54.2615 bohr
 
 
     Adding external electric field

     Computed dipole along edir(3) : 
        Dipole               -0.7342 Ry au,         -1.8662 Debye
        Dipole field         -0.0005 Ry au, 
 
        Potential amp.        0.0493 Ry
        Total length         54.2615 bohr
 

     total cpu time spent up to now is      335.6 secs

     total energy              =   -7397.93320352 Ry
     estimated scf accuracy    <       0.10636306 Ry

     total magnetization       =    80.34 Bohr mag/cell
     absolute magnetization    =    82.13 Bohr mag/cell

     iteration # 22     ecut=    50.00 Ry     beta= 0.10
     Davidson diagonalization with overlap
     ethr =  6.56E-06,  avg # of iterations =  2.0

     negative rho (up, down):  1.678E-03 2.218E-03
 
     Adding external electric field

     Computed dipole along edir(3) : 
        Dipole               -0.6740 Ry au,         -1.7132 Debye
        Dipole field         -0.0004 Ry au, 
 
        Potential amp.        0.0452 Ry
        Total length         54.2615 bohr
 
 
     Adding external electric field

     Computed dipole along edir(3) : 
        Dipole               -0.6740 Ry au,         -1.7132 Debye
        Dipole field         -0.0004 Ry au, 
 
        Potential amp.        0.0452 Ry
        Total length         54.2615 bohr
 

     total cpu time spent up to now is      348.6 secs

     total energy              =   -7397.93438863 Ry
     estimated scf accuracy    <       0.04151752 Ry

     total magnetization       =    80.37 Bohr mag/cell
     absolute magnetization    =    81.99 Bohr mag/cell

     iteration # 23     ecut=    50.00 Ry     beta= 0.10
     Davidson diagonalization with overlap
     c_bands:  4 eigenvalues not converged
     ethr =  3.85E-06,  avg # of iterations = 11.0

     negative rho (up, down):  2.581E-04 2.540E-04
 
     Adding external electric field

     Computed dipole along edir(3) : 
        Dipole               -0.6504 Ry au,         -1.6531 Debye
        Dipole field         -0.0004 Ry au, 
 
        Potential amp.        0.0437 Ry
        Total length         54.2615 bohr
 
 
     Adding external electric field

     Computed dipole along edir(3) : 
        Dipole               -0.6504 Ry au,         -1.6531 Debye
        Dipole field         -0.0004 Ry au, 
 
        Potential amp.        0.0437 Ry
        Total length         54.2615 bohr
 

     total cpu time spent up to now is      367.5 secs

     total energy              =   -7397.93620902 Ry
     estimated scf accuracy    <       0.06316963 Ry

     total magnetization       =    80.47 Bohr mag/cell
     absolute magnetization    =    82.07 Bohr mag/cell

     iteration # 24     ecut=    50.00 Ry     beta= 0.10
     Davidson diagonalization with overlap
     ethr =  3.85E-06,  avg # of iterations = 16.0

     negative rho (up, down):  1.972E-04 1.822E-04
 
     Adding external electric field

     Computed dipole along edir(3) : 
        Dipole               -0.6432 Ry au,         -1.6348 Debye
        Dipole field         -0.0004 Ry au, 
 
        Potential amp.        0.0432 Ry
        Total length         54.2615 bohr
 
 
     Adding external electric field

     Computed dipole along edir(3) : 
        Dipole               -0.6432 Ry au,         -1.6348 Debye
        Dipole field         -0.0004 Ry au, 
 
        Potential amp.        0.0432 Ry
        Total length         54.2615 bohr
 

     total cpu time spent up to now is      393.1 secs

     total energy              =   -7397.93718115 Ry
     estimated scf accuracy    <       0.03394362 Ry

     total magnetization       =    80.26 Bohr mag/cell
     absolute magnetization    =    81.88 Bohr mag/cell

     iteration # 25     ecut=    50.00 Ry     beta= 0.10
     Davidson diagonalization with overlap
     ethr =  3.15E-06,  avg # of iterations =  1.5

     negative rho (up, down):  2.210E-04 1.898E-04
 
     Adding external electric field

     Computed dipole along edir(3) : 
        Dipole               -0.6415 Ry au,         -1.6305 Debye
        Dipole field         -0.0004 Ry au, 
 
        Potential amp.        0.0431 Ry
        Total length         54.2615 bohr
 
 
     Adding external electric field

     Computed dipole along edir(3) : 
        Dipole               -0.6415 Ry au,         -1.6305 Debye
        Dipole field         -0.0004 Ry au, 
 
        Potential amp.        0.0431 Ry
        Total length         54.2615 bohr
 

     total cpu time spent up to now is      406.8 secs

     total energy              =   -7397.93699769 Ry
     estimated scf accuracy    <       0.02723519 Ry

     total magnetization       =    80.28 Bohr mag/cell
     absolute magnetization    =    81.90 Bohr mag/cell

     iteration # 26     ecut=    50.00 Ry     beta= 0.10
     Davidson diagonalization with overlap
     ethr =  2.53E-06,  avg # of iterations =  1.5

     negative rho (up, down):  6.901E-04 5.712E-04
 
     Adding external electric field

     Computed dipole along edir(3) : 
        Dipole               -0.6083 Ry au,         -1.5462 Debye
        Dipole field         -0.0004 Ry au, 
 
        Potential amp.        0.0408 Ry
        Total length         54.2615 bohr
 
 
     Adding external electric field

     Computed dipole along edir(3) : 
        Dipole               -0.6083 Ry au,         -1.5462 Debye
        Dipole field         -0.0004 Ry au, 
 
        Potential amp.        0.0408 Ry
        Total length         54.2615 bohr
 

     total cpu time spent up to now is      420.2 secs

     total energy              =   -7397.93624308 Ry
     estimated scf accuracy    <       0.02606423 Ry

     total magnetization       =    80.33 Bohr mag/cell
     absolute magnetization    =    81.96 Bohr mag/cell

     iteration # 27     ecut=    50.00 Ry     beta= 0.10
     Davidson diagonalization with overlap
     ethr =  2.42E-06,  avg # of iterations =  3.0

     negative rho (up, down):  6.108E-04 5.164E-04
 
     Adding external electric field

     Computed dipole along edir(3) : 
        Dipole               -0.6159 Ry au,         -1.5653 Debye
        Dipole field         -0.0004 Ry au, 
 
        Potential amp.        0.0413 Ry
        Total length         54.2615 bohr
 
 
     Adding external electric field

     Computed dipole along edir(3) : 
        Dipole               -0.6159 Ry au,         -1.5653 Debye
        Dipole field         -0.0004 Ry au, 
 
        Potential amp.        0.0413 Ry
        Total length         54.2615 bohr
 

     total cpu time spent up to now is      434.9 secs

     total energy              =   -7397.93678880 Ry
     estimated scf accuracy    <       0.02456848 Ry

     total magnetization       =    80.52 Bohr mag/cell
     absolute magnetization    =    82.12 Bohr mag/cell

     iteration # 28     ecut=    50.00 Ry     beta= 0.10
     Davidson diagonalization with overlap
     ethr =  2.28E-06,  avg # of iterations =  1.0

     negative rho (up, down):  2.677E-04 2.107E-04
 
     Adding external electric field

     Computed dipole along edir(3) : 
        Dipole               -0.6313 Ry au,         -1.6045 Debye
        Dipole field         -0.0004 Ry au, 
 
        Potential amp.        0.0424 Ry
        Total length         54.2615 bohr
 
 
     Adding external electric field

     Computed dipole along edir(3) : 
        Dipole               -0.6313 Ry au,         -1.6045 Debye
        Dipole field         -0.0004 Ry au, 
 
        Potential amp.        0.0424 Ry
        Total length         54.2615 bohr
 

     total cpu time spent up to now is      447.1 secs

     total energy              =   -7397.93648995 Ry
     estimated scf accuracy    <       0.02424046 Ry

     total magnetization       =    80.52 Bohr mag/cell
     absolute magnetization    =    82.12 Bohr mag/cell

     iteration # 29     ecut=    50.00 Ry     beta= 0.10
     Davidson diagonalization with overlap
     ethr =  2.25E-06,  avg # of iterations =  2.0

     negative rho (up, down):  7.257E-04 6.373E-04
 
     Adding external electric field

     Computed dipole along edir(3) : 
        Dipole               -0.6233 Ry au,         -1.5842 Debye
        Dipole field         -0.0004 Ry au, 
 
        Potential amp.        0.0418 Ry
        Total length         54.2615 bohr
 
 
     Adding external electric field

     Computed dipole along edir(3) : 
        Dipole               -0.6233 Ry au,         -1.5842 Debye
        Dipole field         -0.0004 Ry au, 
 
        Potential amp.        0.0418 Ry
        Total length         54.2615 bohr
 

     total cpu time spent up to now is      461.2 secs

     total energy              =   -7397.93676649 Ry
     estimated scf accuracy    <       0.02416292 Ry

     total magnetization       =    80.46 Bohr mag/cell
     absolute magnetization    =    82.15 Bohr mag/cell

     iteration # 30     ecut=    50.00 Ry     beta= 0.10
     Davidson diagonalization with overlap
     ethr =  2.24E-06,  avg # of iterations =  1.0

     negative rho (up, down):  4.197E-04 3.111E-04
 
     Adding external electric field

     Computed dipole along edir(3) : 
        Dipole               -0.6313 Ry au,         -1.6045 Debye
        Dipole field         -0.0004 Ry au, 
 
        Potential amp.        0.0424 Ry
        Total length         54.2615 bohr
 
 
     Adding external electric field

     Computed dipole along edir(3) : 
        Dipole               -0.6313 Ry au,         -1.6045 Debye
        Dipole field         -0.0004 Ry au, 
 
        Potential amp.        0.0424 Ry
        Total length         54.2615 bohr
 

     total cpu time spent up to now is      473.3 secs

     total energy              =   -7397.93626159 Ry
     estimated scf accuracy    <       0.02548509 Ry

     total magnetization       =    80.47 Bohr mag/cell
     absolute magnetization    =    82.09 Bohr mag/cell

     iteration # 31     ecut=    50.00 Ry     beta= 0.10
     Davidson diagonalization with overlap
     ethr =  2.24E-06,  avg # of iterations =  1.5

     negative rho (up, down):  1.573E-04 1.115E-04
 
     Adding external electric field

     Computed dipole along edir(3) : 
        Dipole               -0.6265 Ry au,         -1.5925 Debye
        Dipole field         -0.0004 Ry au, 
 
        Potential amp.        0.0420 Ry
        Total length         54.2615 bohr
 
 
     Adding external electric field

     Computed dipole along edir(3) : 
        Dipole               -0.6265 Ry au,         -1.5925 Debye
        Dipole field         -0.0004 Ry au, 
 
        Potential amp.        0.0420 Ry
        Total length         54.2615 bohr
 

     total cpu time spent up to now is      486.4 secs

     total energy              =   -7397.93655016 Ry
     estimated scf accuracy    <       0.02202669 Ry

     total magnetization       =    80.46 Bohr mag/cell
     absolute magnetization    =    82.05 Bohr mag/cell

     iteration # 32     ecut=    50.00 Ry     beta= 0.10
     Davidson diagonalization with overlap
     ethr =  2.04E-06,  avg # of iterations =  1.0

     negative rho (up, down):  2.142E-04 1.638E-04
 
     Adding external electric field

     Computed dipole along edir(3) : 
        Dipole               -0.6341 Ry au,         -1.6118 Debye
        Dipole field         -0.0004 Ry au, 
 
        Potential amp.        0.0426 Ry
        Total length         54.2615 bohr
 
 
     Adding external electric field

     Computed dipole along edir(3) : 
        Dipole               -0.6341 Ry au,         -1.6118 Debye
        Dipole field         -0.0004 Ry au, 
 
        Potential amp.        0.0426 Ry
        Total length         54.2615 bohr
 

     total cpu time spent up to now is      499.1 secs

     total energy              =   -7397.93666290 Ry
     estimated scf accuracy    <       0.02234270 Ry

     total magnetization       =    80.47 Bohr mag/cell
     absolute magnetization    =    82.05 Bohr mag/cell

     iteration # 33     ecut=    50.00 Ry     beta= 0.10
     Davidson diagonalization with overlap
     ethr =  2.04E-06,  avg # of iterations =  2.0

     negative rho (up, down):  3.588E-04 2.653E-04
 
     Adding external electric field

     Computed dipole along edir(3) : 
        Dipole               -0.6506 Ry au,         -1.6536 Debye
        Dipole field         -0.0004 Ry au, 
 
        Potential amp.        0.0437 Ry
        Total length         54.2615 bohr
 
 
     Adding external electric field

     Computed dipole along edir(3) : 
        Dipole               -0.6506 Ry au,         -1.6536 Debye
        Dipole field         -0.0004 Ry au, 
 
        Potential amp.        0.0437 Ry
        Total length         54.2615 bohr
 

     total cpu time spent up to now is      513.0 secs

     total energy              =   -7397.93625098 Ry
     estimated scf accuracy    <       0.02266764 Ry

     total magnetization       =    80.45 Bohr mag/cell
     absolute magnetization    =    81.98 Bohr mag/cell

     iteration # 34     ecut=    50.00 Ry     beta= 0.10
     Davidson diagonalization with overlap
     ethr =  2.04E-06,  avg # of iterations =  1.0

     negative rho (up, down):  3.204E-04 2.797E-04
 
     Adding external electric field

     Computed dipole along edir(3) : 
        Dipole               -0.5830 Ry au,         -1.4818 Debye
        Dipole field         -0.0004 Ry au, 
 
        Potential amp.        0.0391 Ry
        Total length         54.2615 bohr
 
 
     Adding external electric field

     Computed dipole along edir(3) : 
        Dipole               -0.5830 Ry au,         -1.4818 Debye
        Dipole field         -0.0004 Ry au, 
 
        Potential amp.        0.0391 Ry
        Total length         54.2615 bohr
 

     total cpu time spent up to now is      525.5 secs

     total energy              =   -7397.93675507 Ry
     estimated scf accuracy    <       0.02537306 Ry

     total magnetization       =    80.47 Bohr mag/cell
     absolute magnetization    =    82.06 Bohr mag/cell

     iteration # 35     ecut=    50.00 Ry     beta= 0.10
     Davidson diagonalization with overlap
     ethr =  2.04E-06,  avg # of iterations =  2.0

     negative rho (up, down):  1.190E-03 1.247E-03
 
     Adding external electric field

     Computed dipole along edir(3) : 
        Dipole               -0.5010 Ry au,         -1.2734 Debye
        Dipole field         -0.0003 Ry au, 
 
        Potential amp.        0.0336 Ry
        Total length         54.2615 bohr
 
 
     Adding external electric field

     Computed dipole along edir(3) : 
        Dipole               -0.5010 Ry au,         -1.2734 Debye
        Dipole field         -0.0003 Ry au, 
 
        Potential amp.        0.0336 Ry
        Total length         54.2615 bohr
 

     total cpu time spent up to now is      540.1 secs

     total energy              =   -7397.93606140 Ry
     estimated scf accuracy    <       0.01996178 Ry

     total magnetization       =    80.38 Bohr mag/cell
     absolute magnetization    =    81.95 Bohr mag/cell

     iteration # 36     ecut=    50.00 Ry     beta= 0.10
     Davidson diagonalization with overlap
     ethr =  1.85E-06,  avg # of iterations =  2.0

     negative rho (up, down):  1.413E-03 1.374E-03
 
     Adding external electric field

     Computed dipole along edir(3) : 
        Dipole               -0.4332 Ry au,         -1.1012 Debye
        Dipole field         -0.0003 Ry au, 
 
        Potential amp.        0.0291 Ry
        Total length         54.2615 bohr
 
 
     Adding external electric field

     Computed dipole along edir(3) : 
        Dipole               -0.4332 Ry au,         -1.1012 Debye
        Dipole field         -0.0003 Ry au, 
 
        Potential amp.        0.0291 Ry
        Total length         54.2615 bohr
 

     total cpu time spent up to now is      553.8 secs

     total energy              =   -7397.93571234 Ry
     estimated scf accuracy    <       0.01784201 Ry

     total magnetization       =    80.33 Bohr mag/cell
     absolute magnetization    =    81.90 Bohr mag/cell

     iteration # 37     ecut=    50.00 Ry     beta= 0.10
     Davidson diagonalization with overlap
     ethr =  1.66E-06,  avg # of iterations =  2.0

     negative rho (up, down):  2.730E-03 2.555E-03
 
     Adding external electric field

     Computed dipole along edir(3) : 
        Dipole               -0.3551 Ry au,         -0.9025 Debye
        Dipole field         -0.0002 Ry au, 
 
        Potential amp.        0.0238 Ry
        Total length         54.2615 bohr
 
 
     Adding external electric field

     Computed dipole along edir(3) : 
        Dipole               -0.3551 Ry au,         -0.9025 Debye
        Dipole field         -0.0002 Ry au, 
 
        Potential amp.        0.0238 Ry
        Total length         54.2615 bohr
 

     total cpu time spent up to now is      568.7 secs

     total energy              =   -7397.93484824 Ry
     estimated scf accuracy    <       0.01500222 Ry

     total magnetization       =    80.33 Bohr mag/cell
     absolute magnetization    =    81.91 Bohr mag/cell

     iteration # 38     ecut=    50.00 Ry     beta= 0.10
     Davidson diagonalization with overlap
     ethr =  1.39E-06,  avg # of iterations = 22.5

     negative rho (up, down):  2.495E-03 2.341E-03
 
     Adding external electric field

     Computed dipole along edir(3) : 
        Dipole               -0.3740 Ry au,         -0.9506 Debye
        Dipole field         -0.0002 Ry au, 
 
        Potential amp.        0.0251 Ry
        Total length         54.2615 bohr
 
 
     Adding external electric field

     Computed dipole along edir(3) : 
        Dipole               -0.3740 Ry au,         -0.9506 Debye
        Dipole field         -0.0002 Ry au, 
 
        Potential amp.        0.0251 Ry
        Total length         54.2615 bohr
 

     total cpu time spent up to now is      600.5 secs

     total energy              =   -7397.93499958 Ry
     estimated scf accuracy    <       0.01637655 Ry

     total magnetization       =    80.38 Bohr mag/cell
     absolute magnetization    =    81.92 Bohr mag/cell

     iteration # 39     ecut=    50.00 Ry     beta= 0.10
     Davidson diagonalization with overlap
     ethr =  1.39E-06,  avg # of iterations =  2.0

     negative rho (up, down):  2.648E-03 2.509E-03
 
     Adding external electric field

     Computed dipole along edir(3) : 
        Dipole               -0.3674 Ry au,         -0.9339 Debye
        Dipole field         -0.0002 Ry au, 
 
        Potential amp.        0.0247 Ry
        Total length         54.2615 bohr
 
 
     Adding external electric field

     Computed dipole along edir(3) : 
        Dipole               -0.3674 Ry au,         -0.9339 Debye
        Dipole field         -0.0002 Ry au, 
 
        Potential amp.        0.0247 Ry
        Total length         54.2615 bohr
 

     total cpu time spent up to now is      614.8 secs

     total energy              =   -7397.93514298 Ry
     estimated scf accuracy    <       0.01525254 Ry

     total magnetization       =    80.38 Bohr mag/cell
     absolute magnetization    =    81.88 Bohr mag/cell

     iteration # 40     ecut=    50.00 Ry     beta= 0.10
     Davidson diagonalization with overlap
     ethr =  1.39E-06,  avg # of iterations =  1.5

     negative rho (up, down):  1.744E-03 1.696E-03
 
     Adding external electric field

     Computed dipole along edir(3) : 
        Dipole               -0.3861 Ry au,         -0.9813 Debye
        Dipole field         -0.0002 Ry au, 
 
        Potential amp.        0.0259 Ry
        Total length         54.2615 bohr
 
 
     Adding external electric field

     Computed dipole along edir(3) : 
        Dipole               -0.3861 Ry au,         -0.9813 Debye
        Dipole field         -0.0002 Ry au, 
 
        Potential amp.        0.0259 Ry
        Total length         54.2615 bohr
 

     total cpu time spent up to now is      626.7 secs

     total energy              =   -7397.93550306 Ry
     estimated scf accuracy    <       0.01569404 Ry

     total magnetization       =    80.37 Bohr mag/cell
     absolute magnetization    =    81.93 Bohr mag/cell

     iteration # 41     ecut=    50.00 Ry     beta= 0.10
     Davidson diagonalization with overlap
     ethr =  1.39E-06,  avg # of iterations =  2.0

     negative rho (up, down):  3.439E-03 3.379E-03
 
     Adding external electric field

     Computed dipole along edir(3) : 
        Dipole               -0.3970 Ry au,         -1.0091 Debye
        Dipole field         -0.0002 Ry au, 
 
        Potential amp.        0.0266 Ry
        Total length         54.2615 bohr
 
 
     Adding external electric field

     Computed dipole along edir(3) : 
        Dipole               -0.3970 Ry au,         -1.0091 Debye
        Dipole field         -0.0002 Ry au, 
 
        Potential amp.        0.0266 Ry
        Total length         54.2615 bohr
 

     total cpu time spent up to now is      639.2 secs

     total energy              =   -7397.93519469 Ry
     estimated scf accuracy    <       0.01549689 Ry

     total magnetization       =    80.38 Bohr mag/cell
     absolute magnetization    =    81.94 Bohr mag/cell

     iteration # 42     ecut=    50.00 Ry     beta= 0.10
     Davidson diagonalization with overlap
     ethr =  1.39E-06,  avg # of iterations =  2.0

     negative rho (up, down):  5.712E-03 5.636E-03
 
     Adding external electric field

     Computed dipole along edir(3) : 
        Dipole               -0.3719 Ry au,         -0.9452 Debye
        Dipole field         -0.0002 Ry au, 
 
        Potential amp.        0.0250 Ry
        Total length         54.2615 bohr
 
 
     Adding external electric field

     Computed dipole along edir(3) : 
        Dipole               -0.3719 Ry au,         -0.9452 Debye
        Dipole field         -0.0002 Ry au, 
 
        Potential amp.        0.0250 Ry
        Total length         54.2615 bohr
 

     total cpu time spent up to now is      652.1 secs

     total energy              =   -7397.93481624 Ry
     estimated scf accuracy    <       0.01389675 Ry

     total magnetization       =    80.36 Bohr mag/cell
     absolute magnetization    =    81.90 Bohr mag/cell

     iteration # 43     ecut=    50.00 Ry     beta= 0.10
     Davidson diagonalization with overlap
     ethr =  1.29E-06,  avg # of iterations =  1.5

     negative rho (up, down):  5.663E-03 5.550E-03
 
     Adding external electric field

     Computed dipole along edir(3) : 
        Dipole               -0.3806 Ry au,         -0.9675 Debye
        Dipole field         -0.0002 Ry au, 
 
        Potential amp.        0.0255 Ry
        Total length         54.2615 bohr
 
 
     Adding external electric field

     Computed dipole along edir(3) : 
        Dipole               -0.3806 Ry au,         -0.9675 Debye
        Dipole field         -0.0002 Ry au, 
 
        Potential amp.        0.0255 Ry
        Total length         54.2615 bohr
 

     total cpu time spent up to now is      664.2 secs

     total energy              =   -7397.93481361 Ry
     estimated scf accuracy    <       0.01386530 Ry

     total magnetization       =    80.35 Bohr mag/cell
     absolute magnetization    =    81.87 Bohr mag/cell

     iteration # 44     ecut=    50.00 Ry     beta= 0.10
     Davidson diagonalization with overlap
     ethr =  1.29E-06,  avg # of iterations =  2.0

     negative rho (up, down):  5.669E-03 5.575E-03
 
     Adding external electric field

     Computed dipole along edir(3) : 
        Dipole               -0.3466 Ry au,         -0.8810 Debye
        Dipole field         -0.0002 Ry au, 
 
        Potential amp.        0.0233 Ry
        Total length         54.2615 bohr
 
 
     Adding external electric field

     Computed dipole along edir(3) : 
        Dipole               -0.3466 Ry au,         -0.8810 Debye
        Dipole field         -0.0002 Ry au, 
 
        Potential amp.        0.0233 Ry
        Total length         54.2615 bohr
 

     total cpu time spent up to now is      677.6 secs

     total energy              =   -7397.93484837 Ry
     estimated scf accuracy    <       0.01488016 Ry

     total magnetization       =    80.36 Bohr mag/cell
     absolute magnetization    =    81.88 Bohr mag/cell

     iteration # 45     ecut=    50.00 Ry     beta= 0.10
     Davidson diagonalization with overlap
     ethr =  1.29E-06,  avg # of iterations =  1.5

     negative rho (up, down):  8.513E-03 8.086E-03
 
     Adding external electric field

     Computed dipole along edir(3) : 
        Dipole               -0.3293 Ry au,         -0.8370 Debye
        Dipole field         -0.0002 Ry au, 
 
        Potential amp.        0.0221 Ry
        Total length         54.2615 bohr
 
 
     Adding external electric field

     Computed dipole along edir(3) : 
        Dipole               -0.3293 Ry au,         -0.8370 Debye
        Dipole field         -0.0002 Ry au, 
 
        Potential amp.        0.0221 Ry
        Total length         54.2615 bohr
 

     total cpu time spent up to now is      690.8 secs

     total energy              =   -7397.93393278 Ry
     estimated scf accuracy    <       0.01529108 Ry

     total magnetization       =    80.34 Bohr mag/cell
     absolute magnetization    =    81.87 Bohr mag/cell

     iteration # 46     ecut=    50.00 Ry     beta= 0.10
     Davidson diagonalization with overlap
     ethr =  1.29E-06,  avg # of iterations =  2.0

     negative rho (up, down):  9.071E-03 8.625E-03
 
     Adding external electric field

     Computed dipole along edir(3) : 
        Dipole               -0.3362 Ry au,         -0.8545 Debye
        Dipole field         -0.0002 Ry au, 
 
        Potential amp.        0.0226 Ry
        Total length         54.2615 bohr
 
 
     Adding external electric field

     Computed dipole along edir(3) : 
        Dipole               -0.3362 Ry au,         -0.8545 Debye
        Dipole field         -0.0002 Ry au, 
 
        Potential amp.        0.0226 Ry
        Total length         54.2615 bohr
 

     total cpu time spent up to now is      703.5 secs

     total energy              =   -7397.93394230 Ry
     estimated scf accuracy    <       0.01542177 Ry

     total magnetization       =    80.39 Bohr mag/cell
     absolute magnetization    =    81.93 Bohr mag/cell

     iteration # 47     ecut=    50.00 Ry     beta= 0.10
     Davidson diagonalization with overlap
     ethr =  1.29E-06,  avg # of iterations =  1.5

     negative rho (up, down):  6.472E-03 6.021E-03
 
     Adding external electric field

     Computed dipole along edir(3) : 
        Dipole               -0.3262 Ry au,         -0.8291 Debye
        Dipole field         -0.0002 Ry au, 
 
        Potential amp.        0.0219 Ry
        Total length         54.2615 bohr
 
 
     Adding external electric field

     Computed dipole along edir(3) : 
        Dipole               -0.3262 Ry au,         -0.8291 Debye
        Dipole field         -0.0002 Ry au, 
 
        Potential amp.        0.0219 Ry
        Total length         54.2615 bohr
 

     total cpu time spent up to now is      716.2 secs

     total energy              =   -7397.93392180 Ry
     estimated scf accuracy    <       0.01414231 Ry

     total magnetization       =    80.39 Bohr mag/cell
     absolute magnetization    =    81.95 Bohr mag/cell

     iteration # 48     ecut=    50.00 Ry     beta= 0.10
     Davidson diagonalization with overlap
     ethr =  1.29E-06,  avg # of iterations =  1.5

     negative rho (up, down):  1.220E-02 1.208E-02
 
     Adding external electric field

     Computed dipole along edir(3) : 
        Dipole               -0.3689 Ry au,         -0.9376 Debye
        Dipole field         -0.0002 Ry au, 
 
        Potential amp.        0.0248 Ry
        Total length         54.2615 bohr
 
 
     Adding external electric field

     Computed dipole along edir(3) : 
        Dipole               -0.3689 Ry au,         -0.9376 Debye
        Dipole field         -0.0002 Ry au, 
 
        Potential amp.        0.0248 Ry
        Total length         54.2615 bohr
 

     total cpu time spent up to now is      728.5 secs

     total energy              =   -7397.93308358 Ry
     estimated scf accuracy    <       0.01662284 Ry

     total magnetization       =    80.40 Bohr mag/cell
     absolute magnetization    =    81.90 Bohr mag/cell

     iteration # 49     ecut=    50.00 Ry     beta= 0.10
     Davidson diagonalization with overlap
     ethr =  1.29E-06,  avg # of iterations =  2.0

     negative rho (up, down):  1.304E-02 1.281E-02
 
     Adding external electric field

     Computed dipole along edir(3) : 
        Dipole               -0.3574 Ry au,         -0.9083 Debye
        Dipole field         -0.0002 Ry au, 
 
        Potential amp.        0.0240 Ry
        Total length         54.2615 bohr
 
 
     Adding external electric field

     Computed dipole along edir(3) : 
        Dipole               -0.3574 Ry au,         -0.9083 Debye
        Dipole field         -0.0002 Ry au, 
 
        Potential amp.        0.0240 Ry
        Total length         54.2615 bohr
 

     total cpu time spent up to now is      741.6 secs

     total energy              =   -7397.93356035 Ry
     estimated scf accuracy    <       0.01403941 Ry

     total magnetization       =    80.37 Bohr mag/cell
     absolute magnetization    =    82.02 Bohr mag/cell

     iteration # 50     ecut=    50.00 Ry     beta= 0.10
     Davidson diagonalization with overlap
     ethr =  1.29E-06,  avg # of iterations =  1.5

     negative rho (up, down):  1.088E-02 1.052E-02
 
     Adding external electric field

     Computed dipole along edir(3) : 
        Dipole               -0.3118 Ry au,         -0.7926 Debye
        Dipole field         -0.0002 Ry au, 
 
        Potential amp.        0.0209 Ry
        Total length         54.2615 bohr
 
 
     Adding external electric field

     Computed dipole along edir(3) : 
        Dipole               -0.3118 Ry au,         -0.7926 Debye
        Dipole field         -0.0002 Ry au, 
 
        Potential amp.        0.0209 Ry
        Total length         54.2615 bohr
 

     total cpu time spent up to now is      754.1 secs

     total energy              =   -7397.93391363 Ry
     estimated scf accuracy    <       0.01382823 Ry

     total magnetization       =    80.38 Bohr mag/cell
     absolute magnetization    =    81.98 Bohr mag/cell

     iteration # 51     ecut=    50.00 Ry     beta= 0.10
     Davidson diagonalization with overlap
     ethr =  1.28E-06,  avg # of iterations =  1.5

     negative rho (up, down):  6.736E-03 6.499E-03
 
     Adding external electric field

     Computed dipole along edir(3) : 
        Dipole               -0.3421 Ry au,         -0.8695 Debye
        Dipole field         -0.0002 Ry au, 
 
        Potential amp.        0.0230 Ry
        Total length         54.2615 bohr
 
 
     Adding external electric field

     Computed dipole along edir(3) : 
        Dipole               -0.3421 Ry au,         -0.8695 Debye
        Dipole field         -0.0002 Ry au, 
 
        Potential amp.        0.0230 Ry
        Total length         54.2615 bohr
 

     total cpu time spent up to now is      767.8 secs

     total energy              =   -7397.93432354 Ry
     estimated scf accuracy    <       0.01344201 Ry

     total magnetization       =    80.37 Bohr mag/cell
     absolute magnetization    =    81.99 Bohr mag/cell

     iteration # 52     ecut=    50.00 Ry     beta= 0.10
     Davidson diagonalization with overlap
     ethr =  1.25E-06,  avg # of iterations =  1.5

     negative rho (up, down):  1.294E-02 1.234E-02
 
     Adding external electric field

     Computed dipole along edir(3) : 
        Dipole               -0.2862 Ry au,         -0.7276 Debye
        Dipole field         -0.0002 Ry au, 
 
        Potential amp.        0.0192 Ry
        Total length         54.2615 bohr
 
 
     Adding external electric field

     Computed dipole along edir(3) : 
        Dipole               -0.2862 Ry au,         -0.7276 Debye
        Dipole field         -0.0002 Ry au, 
 
        Potential amp.        0.0192 Ry
        Total length         54.2615 bohr
 

     total cpu time spent up to now is      781.2 secs

     total energy              =   -7397.93336578 Ry
     estimated scf accuracy    <       0.01465184 Ry

     total magnetization       =    80.38 Bohr mag/cell
     absolute magnetization    =    82.02 Bohr mag/cell

     iteration # 53     ecut=    50.00 Ry     beta= 0.10
     Davidson diagonalization with overlap
     ethr =  1.25E-06,  avg # of iterations =  2.0

     negative rho (up, down):  1.214E-02 1.169E-02
 
     Adding external electric field

     Computed dipole along edir(3) : 
        Dipole               -0.3221 Ry au,         -0.8187 Debye
        Dipole field         -0.0002 Ry au, 
 
        Potential amp.        0.0216 Ry
        Total length         54.2615 bohr
 
 
     Adding external electric field

     Computed dipole along edir(3) : 
        Dipole               -0.3221 Ry au,         -0.8187 Debye
        Dipole field         -0.0002 Ry au, 
 
        Potential amp.        0.0216 Ry
        Total length         54.2615 bohr
 

     total cpu time spent up to now is      795.1 secs

     total energy              =   -7397.93377132 Ry
     estimated scf accuracy    <       0.01552566 Ry

     total magnetization       =    80.37 Bohr mag/cell
     absolute magnetization    =    82.02 Bohr mag/cell

     iteration # 54     ecut=    50.00 Ry     beta= 0.10
     Davidson diagonalization with overlap
     ethr =  1.25E-06,  avg # of iterations =  1.5

     negative rho (up, down):  1.746E-02 1.684E-02
 
     Adding external electric field

     Computed dipole along edir(3) : 
        Dipole               -0.2939 Ry au,         -0.7470 Debye
        Dipole field         -0.0002 Ry au, 
 
        Potential amp.        0.0197 Ry
        Total length         54.2615 bohr
 
 
     Adding external electric field

     Computed dipole along edir(3) : 
        Dipole               -0.2939 Ry au,         -0.7470 Debye
        Dipole field         -0.0002 Ry au, 
 
        Potential amp.        0.0197 Ry
        Total length         54.2615 bohr
 

     total cpu time spent up to now is      808.4 secs

     total energy              =   -7397.93324829 Ry
     estimated scf accuracy    <       0.01422726 Ry

     total magnetization       =    80.37 Bohr mag/cell
     absolute magnetization    =    81.99 Bohr mag/cell

     iteration # 55     ecut=    50.00 Ry     beta= 0.10
     Davidson diagonalization with overlap
     ethr =  1.25E-06,  avg # of iterations =  2.0

     negative rho (up, down):  1.257E-02 1.220E-02
 
     Adding external electric field

     Computed dipole along edir(3) : 
        Dipole               -0.3293 Ry au,         -0.8370 Debye
        Dipole field         -0.0002 Ry au, 
 
        Potential amp.        0.0221 Ry
        Total length         54.2615 bohr
 
 
     Adding external electric field

     Computed dipole along edir(3) : 
        Dipole               -0.3293 Ry au,         -0.8370 Debye
        Dipole field         -0.0002 Ry au, 
 
        Potential amp.        0.0221 Ry
        Total length         54.2615 bohr
 

     total cpu time spent up to now is      822.9 secs

     total energy              =   -7397.93379711 Ry
     estimated scf accuracy    <       0.01295107 Ry

     total magnetization       =    80.39 Bohr mag/cell
     absolute magnetization    =    82.01 Bohr mag/cell

     iteration # 56     ecut=    50.00 Ry     beta= 0.10
     Davidson diagonalization with overlap
     ethr =  1.20E-06,  avg # of iterations =  1.5

     negative rho (up, down):  1.367E-02 1.367E-02
 
     Adding external electric field

     Computed dipole along edir(3) : 
        Dipole               -0.3029 Ry au,         -0.7699 Debye
        Dipole field         -0.0002 Ry au, 
 
        Potential amp.        0.0203 Ry
        Total length         54.2615 bohr
 
 
     Adding external electric field

     Computed dipole along edir(3) : 
        Dipole               -0.3029 Ry au,         -0.7699 Debye
        Dipole field         -0.0002 Ry au, 
 
        Potential amp.        0.0203 Ry
        Total length         54.2615 bohr
 

     total cpu time spent up to now is      836.1 secs

     total energy              =   -7397.93396343 Ry
     estimated scf accuracy    <       0.01267584 Ry

     total magnetization       =    80.36 Bohr mag/cell
     absolute magnetization    =    81.98 Bohr mag/cell

     iteration # 57     ecut=    50.00 Ry     beta= 0.10
     Davidson diagonalization with overlap
     ethr =  1.18E-06,  avg # of iterations =  2.0

     negative rho (up, down):  1.024E-02 9.929E-03
 
     Adding external electric field

     Computed dipole along edir(3) : 
        Dipole               -0.3278 Ry au,         -0.8332 Debye
        Dipole field         -0.0002 Ry au, 
 
        Potential amp.        0.0220 Ry
        Total length         54.2615 bohr
 
 
     Adding external electric field

     Computed dipole along edir(3) : 
        Dipole               -0.3278 Ry au,         -0.8332 Debye
        Dipole field         -0.0002 Ry au, 
 
        Potential amp.        0.0220 Ry
        Total length         54.2615 bohr
 

     total cpu time spent up to now is      850.3 secs

     total energy              =   -7397.93411725 Ry
     estimated scf accuracy    <       0.01430551 Ry

     total magnetization       =    80.35 Bohr mag/cell
     absolute magnetization    =    82.01 Bohr mag/cell

     iteration # 58     ecut=    50.00 Ry     beta= 0.10
     Davidson diagonalization with overlap
     ethr =  1.18E-06,  avg # of iterations =  1.5

     negative rho (up, down):  1.388E-02 1.370E-02
 
     Adding external electric field

     Computed dipole along edir(3) : 
[...]
     atom   99 type  4   force =    -0.06666404    0.00005896    0.00643615
     atom  100 type  4   force =    -0.00180241    0.00327340   -0.00262631
     atom  101 type  4   force =     0.00008988    0.00093032   -0.00043291
     atom  102 type  4   force =    -0.00621115    0.00435697   -0.00074715
     atom  103 type  4   force =    -0.04023905    0.13333906    0.00435888
     atom  104 type  4   force =    -0.00702743   -0.00990169   -0.00513538
     atom  105 type  2   force =     0.00411286   -0.00655610   -0.01810872
     atom  106 type  1   force =     0.02818571    0.01428208    0.01166664
     atom  107 type  1   force =     0.00870154   -0.00612176   -0.01396900
     atom  108 type  1   force =    -0.02840997    0.02168754    0.01870191
     atom  109 type  1   force =     0.00504997    0.01614907    0.00946487
     atom  110 type  1   force =    -0.00254516   -0.00879034   -0.00674026
     atom  111 type  1   force =    -0.00086494   -0.00950912   -0.01145243
     atom  112 type  1   force =     0.02918412    0.01753336    0.01136271
     atom  113 type  1   force =    -0.00069432   -0.00498053   -0.01379798
     atom  114 type  1   force =    -0.02965056    0.02074187    0.01850578
     atom  115 type  1   force =    -0.00718426    0.01855845    0.01219174
     atom  116 type  1   force =    -0.00555719   -0.00438186   -0.00291868
     atom  117 type  3   force =     0.01424740   -0.17391725   -0.10882766
     atom  118 type  3   force =     0.00513701   -0.00848970   -0.01269413
     atom  119 type  3   force =    -0.04466823    0.12492465   -0.00189920
     atom  120 type  3   force =     0.09508010   -0.04105922   -0.07975074
     atom  121 type  4   force =     0.00612482   -0.01708065    0.03722741
     atom  122 type  4   force =    -0.00344662    0.00365291    0.00447804
     atom  123 type  4   force =    -0.00086305    0.00256989   -0.00285229
     atom  124 type  4   force =     0.00849053    0.00217652    0.02697306
     atom  125 type  4   force =     0.00987602   -0.01690368    0.01593974
     atom  126 type  4   force =    -0.00746442    0.00097586   -0.00306058
     atom  127 type  4   force =     0.00396182    0.00967341    0.00045645
     atom  128 type  4   force =    -0.00061648   -0.00109569    0.03017620
     atom  129 type  4   force =    -0.00766188    0.02551193    0.00119605
     atom  130 type  4   force =     0.04341189   -0.14592134   -0.00189536
     atom  131 type  4   force =    -0.01741977   -0.00039847    0.00286886
     atom  132 type  4   force =     0.00340710    0.00265897    0.00201469
     atom  133 type  4   force =     0.06969962    0.00366910   -0.00189590
     atom  134 type  4   force =     0.00095559    0.00365727    0.00273955
     atom  135 type  4   force =    -0.02755962    0.17224780    0.00606921
     atom  136 type  4   force =     0.01958681   -0.00861269    0.00401701
     atom  137 type  3   force =     0.00908770   -0.16688109   -0.09428794
     atom  138 type  3   force =    -0.06464465   -0.00210212   -0.00497763
     atom  139 type  3   force =    -0.04872089    0.11825946    0.00151066
     atom  140 type  3   force =     0.03145069   -0.04324302   -0.07372278
     atom  141 type  4   force =     0.00466258   -0.01330902    0.03213063
     atom  142 type  4   force =    -0.00543096   -0.00034037    0.00431893
     atom  143 type  4   force =    -0.00820565    0.00809335   -0.00351144
     atom  144 type  4   force =     0.00383950    0.00137635    0.02757472
     atom  145 type  4   force =     0.00690827   -0.01300258    0.03233590
     atom  146 type  4   force =    -0.00874211   -0.00178589   -0.00302613
     atom  147 type  4   force =     0.00030672    0.00987246    0.00263716
     atom  148 type  4   force =    -0.00791024    0.00121514    0.02908994
     atom  149 type  4   force =    -0.01315705    0.02942099    0.00051105
     atom  150 type  4   force =     0.03979690   -0.13832069   -0.00138175
     atom  151 type  4   force =    -0.08616548   -0.00173757    0.00916609
     atom  152 type  4   force =     0.00122236    0.00389380    0.00144283
     atom  153 type  4   force =    -0.00352305    0.00084453    0.00299167
     atom  154 type  4   force =    -0.00589207    0.00601635    0.00132882
     atom  155 type  4   force =    -0.02797117    0.16645664    0.00485109
     atom  156 type  4   force =     0.01056823   -0.00972139   -0.00136419
     atom  157 type  4   force =     0.00043365   -0.00023833    0.00017733
     atom  158 type  5   force =     0.00037695    0.00056559   -0.00087114

     Total force =     0.003931     Total SCF correction =     0.000260
     Energy error            =      2.6E-05 Ry
     Gradient error          =      8.9E-04 Ry/Bohr

     bfgs converged in  30 scf cycles and  29 bfgs steps
     (criteria: energy <  1.0E-04 Ry, force <  1.0E-03 Ry/Bohr)

     End of BFGS Geometry Optimization

     Final energy             =   -7398.0298856382 Ry

     File ./tmp/pwscf.bfgs deleted, as requested
Begin final coordinates

ATOMIC_POSITIONS (angstrom)
Mn               2.3554523579        7.8713693145       15.8508356832
Ni               4.6660973014        7.2424488930       12.8312656191
Ni               0.0153614635        2.7773847969       15.7014422329
Ni               2.4399316029        2.2337773605       12.8087429535
Ni               9.3445287519       10.0815721954       14.3613736618
Ni               2.4001391199        5.0327411575       14.3416126568
Ni               7.0577395838        7.8071877958       15.7000431102
Ni               9.2879435214        7.2439485390       12.8522689018
Ni               4.8147817684        2.8537529130       15.9850731196
Ni               7.1206987179        2.2171597052       12.8141293039
Ni               4.6898790007       10.0951724291       14.3709105469
Ni               7.0683673699        4.9988145793       14.3715882483
P                1.9804112429        9.1144132302       12.9139262172
P                4.3809732776        6.0571413579       15.8144929389
P                2.6969806021        1.0919846928       15.8250543491
P                0.4056153502        4.0483189103       12.8487567813
O                1.2685418479        8.4526858658       14.2020378832
O                3.6543720207        6.6452731156       14.4687589790
O                3.4221221339        1.5951540299       14.4727062800
O                1.1432948086        3.3921779859       14.1234653910
O                1.3896364847        8.2538717364       11.7703054763
O                3.8131770805        6.9889614932       16.8998444047
O                3.2355784488        2.0028104529       16.9187588298
O                0.9690047640        3.2290926559       11.6626182806
O                0.9581247312        5.5047810769       12.8888892394
O                3.2073641314        9.6750640917       15.8923666437
O                3.5543276039        3.9924035846       12.9485891348
O                1.1469216116        1.0840013031       15.7187797928
O                1.2239252979        6.1173201343       15.7489970815
O                3.8035700118        4.6125092140       15.8056223681
O                1.4100682205        0.4799165585       12.9001435516
O                3.5133385074        9.0380169036       12.9901460706
P                6.6577789452        9.0945943018       12.8534381702
P                9.0389273739        6.0470619019       15.8735427917
P                7.3942784128        0.9838347067       15.8664620529
P                5.0940532952        4.0232043648       12.8638983717
O                5.9263200657        8.4302998652       14.1268001858
O                8.3162370808        6.6107526827       14.5037294272
O                8.1005337985        1.5914990545       14.5089862956
O                5.8082074357        3.3482956105       14.1366897064
O                6.0894716398        8.2687431899       11.6713011649
O                8.4767791429        6.9621943601       16.9489059431
O                7.9916001867        1.8634355582       16.9622570217
O                5.6582388678        3.2021905216       11.6733064415
O                5.6670292085        5.4752447561       12.8945758402
O                7.9324924178        9.5881407248       15.8317862418
O                8.2376941722        3.9759894790       12.9698892476
O                5.8499033094        1.0138064017       15.7686047054
O                5.9192940477        6.1091043611       15.7028709443
O                8.5389186166        4.5668228083       15.8579046326
O                6.1023324357        0.4699034327       12.8892596944
O                8.1937547080        9.0213455698       12.9699690280
Mn               2.2524368768        7.7240452976       10.0236323639    0   0   0
Ni               4.6534647676        7.1202901005        6.9822425005    0   0   0
Ni               0.0619603813        2.6337384440        9.9556760802    0   0   0
Ni               2.4219525798        2.0896438093        6.9510492594    0   0   0
Ni               9.3547912696        9.9019397956        8.4440186395    0   0   0
Ni               2.3579554440        4.8758940102        8.4680010131    0   0   0
Ni               6.9796879716        7.6924726712        9.9737552430    0   0   0
Ni               9.3096730862        7.1316559318        6.9896902714    0   0   0
Ni               4.7877892837        2.6218843324        9.9455480718    0   0   0
Ni               7.1245715506        2.0553708916        6.9486854554    0   0   0
Ni               4.7058610954        9.8941863400        8.4294293279    0   0   0
Ni               7.0530582306        4.8640817481        8.4531033399    0   0   0
P                1.9603854589        8.9977651159        7.0482873394    0   0   0
P                4.3608513788        5.8397436861        9.9242203128    0   0   0
P                2.7263470654        0.8452909389        9.9041174682    0   0   0
P                0.3711210654        3.8997822466        6.9978917740    0   0   0
O                1.2123972175        8.3253929520        8.2981876587    0   0   0
O                3.6291095674        6.4909496873        8.6481394006    0   0   0
O                3.4680363025        1.4891875754        8.6265731291    0   0   0
O                1.1093829690        3.2390247331        8.2722091938    0   0   0
O                1.3596349964        8.1732983076        5.8844425164    0   0   0
O                3.7923299398        6.6696755998       11.1017409419    0   0   0
O                3.3003412998        1.6632003659       11.0846454462    0   0   0
O                0.9531584297        3.0774745500        5.8198181531    0   0   0
O                0.9136186619        5.3618137311        7.0362164392    0   0   0
O                3.2629172638        9.5446340885        9.9282608343    0   0   0
O                3.5446225228        3.8405128423        7.0821078828    0   0   0
O                1.1879123926        0.8833017255        9.8135924863    0   0   0
O                1.1354873087        5.9002852466        9.8415499985    0   0   0
O                3.7965946052        4.3877760984        9.8998794461    0   0   0
O                1.4392974591        0.3016087220        7.0217319728    0   0   0
O                3.4959570534        8.9046787901        7.1310821586    0   0   0
P                6.6688818178        8.9648664905        7.0220839690    0   0   0
P                9.0062189322        5.8433568154        9.9351828548    0   0   0
P                7.4256001189        0.7916169815        9.9078014654    0   0   0
P                5.0827169838        3.8822476802        6.9867459032    0   0   0
O                5.9261601580        8.3047134747        8.2957315165    0   0   0
O                8.2821359139        6.5175804600        8.6592372243    0   0   0
O                8.1641303211        1.4544857869        8.6326835892    0   0   0
O                5.8185662143        3.2162709709        8.2602842260    0   0   0
O                6.0955409502        8.1372002858        5.8430941221    0   0   0
O                8.4431397248        6.6873528892       11.1081253718    0   0   0
O                8.0075057281        1.6138667826       11.0849006204    0   0   0
O                5.6616365268        3.0477094258        5.8162644606    0   0   0
O                5.6428606763        5.3373221456        7.0164591929    0   0   0
O                7.9606510584        9.4880010964        9.9237323917    0   0   0
O                8.2411397074        3.8224416068        7.0850651702    0   0   0
O                5.8887324813        0.8521033415        9.8092820433    0   0   0
O                5.8962744512        5.9036412465        9.8325045456    0   0   0
O                8.4527730620        4.3886428208        9.9038173381    0   0   0
O                6.1330998669        0.2679537444        6.9999548578    0   0   0
O                8.2056512655        8.9055106833        7.1237153000    0   0   0
Mn               2.2524368768        7.6070420221        4.2173679033    0   0   0
Ni               4.6534647676        7.0032868250        1.1759780399    0   0   0
Ni               0.0619603813        2.5167351685        4.1494116195    0   0   0
Ni               2.4219525798        1.9726405338        1.1447847987    0   0   0
Ni               9.3547912696        9.7849365202        2.6377541788    0   0   0
Ni               2.3579554440        4.7588907347        2.6617365524    0   0   0
Ni               6.9796879716        7.5754693957        4.1674907823    0   0   0
Ni               9.3096730862        7.0146526563        1.1834258107    0   0   0
Ni               4.7877892837        2.5048810569        4.1392836112    0   0   0
Ni               7.1245715506        1.9383676161        1.1424209947    0   0   0
Ni               4.7058610954        9.7771830645        2.6231648672    0   0   0
Ni               7.0530582306        4.7470784726        2.6468388792    0   0   0
P                1.9603854589        8.8807618404        1.2420228787    0   0   0
P                4.3608513788        5.7227404107        4.1179558521    0   0   0
P                2.7263470654        0.7282876635        4.0978530075    0   0   0
P                0.3711210654        3.7827789711        1.1916273134    0   0   0
O                1.2123972175        8.2083896765        2.4919231980    0   0   0
O                3.6291095674        6.3739464118        2.8418749399    0   0   0
O                3.4680363025        1.3721842999        2.8203086685    0   0   0
O                1.1093829690        3.1220214576        2.4659447331    0   0   0
O                1.3596349964        8.0562950321        0.0781780558    0   0   0
O                3.7923299398        6.5526723243        5.2954764813    0   0   0
O                3.3003412998        1.5461970904        5.2783809855    0   0   0
O                0.9531584297        2.9604712745        0.0135536924    0   0   0
O                0.9136186619        5.2448104556        1.2299519786    0   0   0
O                3.2629172638        9.4276308131        4.1219963736    0   0   0
O                3.5446225228        3.7235095668        1.2758434221    0   0   0
O                1.1879123926        0.7662984500        4.0073280256    0   0   0
O                1.1354873087        5.7832819711        4.0352855378    0   0   0
O                3.7965946052        4.2707728229        4.0936149854    0   0   0
O                1.4392974591        0.1846054465        1.2154675122    0   0   0
O                3.4959570534        8.7876755146        1.3248176979    0   0   0
P                6.6688818178        8.8478632150        1.2158195084    0   0   0
P                9.0062189322        5.7263535399        4.1289183942    0   0   0
P                7.4256001189        0.6746137060        4.1015370047    0   0   0
P                5.0827169838        3.7652444047        1.1804814425    0   0   0
O                5.9261601580        8.1877101992        2.4894670559    0   0   0
O                8.2821359139        6.4005771845        2.8529727636    0   0   0
O                8.1641303211        1.3374825114        2.8264191286    0   0   0
O                5.8185662143        3.0992676954        2.4540197653    0   0   0
O                6.0955409502        8.0201970103        0.0368296614    0   0   0
O                8.4431397248        6.5703496137        5.3018609112    0   0   0
O                8.0075057281        1.4968635071        5.2786361598    0   0   0
O                5.6616365268        2.9307061503        0.0100000000    0   0   0
O                5.6428606763        5.2203188701        1.2101947322    0   0   0
O                7.9606510584        9.3709978209        4.1174679311    0   0   0
O                8.2411397074        3.7054383313        1.2788007096    0   0   0
O                5.8887324813        0.7351000660        4.0030175826    0   0   0
O                5.8962744512        5.7866379710        4.0262400850    0   0   0
O                8.4527730620        4.2716395453        4.0975528774    0   0   0
O                6.1330998669        0.1509504689        1.1936903972    0   0   0
O                8.2056512655        8.7885074078        1.3174508394    0   0   0
O                5.8532472017        3.6160227704       17.2729270205
H                6.6333652035        3.0515358329       17.5061344585
End final coordinates



     Writing all to output data dir ./tmp/pwscf.save/
 
     init_run     :      8.85s CPU      9.64s WALL (       1 calls)
     electrons    :  10290.36s CPU  10845.59s WALL (      30 calls)
     update_pot   :     14.25s CPU     14.71s WALL (      29 calls)
     forces       :    135.15s CPU    144.32s WALL (      30 calls)
     force_london :      3.62s CPU      3.62s WALL (      30 calls)

     Called by init_run:
     wfcinit      :      5.20s CPU      5.41s WALL (       1 calls)
     potinit      :      0.70s CPU      0.95s WALL (       1 calls)
     hinit0       :      1.66s CPU      1.74s WALL (       1 calls)

     Called by electrons:
     c_bands      :   7887.04s CPU   8126.35s WALL (     736 calls)
     sum_band     :   1446.64s CPU   1559.60s WALL (     736 calls)
     v_of_rho     :    316.86s CPU    324.51s WALL (     751 calls)
     newd         :    450.26s CPU    538.68s WALL (     751 calls)
     mix_rho      :    196.81s CPU    198.13s WALL (     736 calls)
     energy_londo :      3.36s CPU      3.36s WALL (      30 calls)

     Called by c_bands:
     init_us_2    :     24.21s CPU     24.68s WALL (    3006 calls)
     init_us_2:cp :     24.19s CPU     24.67s WALL (    3006 calls)
     regterg      :   7677.92s CPU   7900.50s WALL (    1478 calls)

     Called by *egterg:
     rdiaghg      :   1841.68s CPU   1954.51s WALL (    5356 calls)
     h_psi        :   3214.24s CPU   3268.41s WALL (    5446 calls)
     s_psi        :    630.32s CPU    631.78s WALL (    5446 calls)
     g_psi        :      4.67s CPU      4.70s WALL (    3966 calls)

     Called by h_psi:
     h_psi:calbec :    813.50s CPU    856.16s WALL (    5446 calls)
     vloc_psi     :   1762.59s CPU   1772.55s WALL (    5446 calls)
     add_vuspsi   :    631.47s CPU    632.93s WALL (    5446 calls)

     General routines
     calbec       :   1253.60s CPU   1319.74s WALL (    7158 calls)
     fft          :    363.80s CPU    373.61s WALL (   13954 calls)
     ffts         :    121.28s CPU    121.78s WALL (   87354 calls)
     fftw         :   1991.76s CPU   2002.62s WALL ( 2471496 calls)
     interpolate  :     12.64s CPU     13.31s WALL (    1502 calls)
 
     Parallel routines
 
     PWSCF        :      2h55m CPU      3h 5m WALL

 
   This run was terminated on:  19: 6:45  17Nov2025            

=------------------------------------------------------------------------------=
   JOB DONE.
=------------------------------------------------------------------------------=
