
     Program PWSCF v.7.2 starts on 17Nov2025 at 10:27:37 

     This program is part of the open-source Quantum ESPRESSO suite
     for quantum simulation of materials; please cite
         "P. Giannozzi et al., J. Phys.:Condens. Matter 21 395502 (2009);
         "P. Giannozzi et al., J. Phys.:Condens. Matter 29 465901 (2017);
         "P. Giannozzi et al., J. Chem. Phys. 152 154105 (2020);
          URL http://www.quantum-espresso.org", 
     in publications or presentations arising from this work. More details at
     http://www.quantum-espresso.org/quote

     Parallel version (MPI), running on    64 processors

     MPI processes distributed on     4 nodes
     437145 MiB available memory on the printing compute node when the environment starts
 
     Reading input from PW.in

     Current dimensions of program PWSCF are:
     Max number of different atomic species (ntypx) = 10
     Max number of k-points (npk) =  40000
     Max angular momentum in pseudopotentials (lmaxx) =  4
     Presently no symmetry can be used with electric field

     Presently stress not available with electric field and gates

     file Ni.pbe-n-rrkjus_psl.1.0.0.UPF: wavefunction(s)  3D renormalized
     file Mn.pbe-spn-rrkjus_psl.0.3.1.UPF: wavefunction(s)  3D renormalized
     file O.pbe-rrkjus.UPF: wavefunction(s)  2S renormalized
     file H.pbe-rrkjus.UPF: wavefunction(s)  1S renormalized

     gamma-point specific algorithms are used
 
     R & G space division:  proc/nbgrp/npool/nimage =      64
     Subspace diagonalization in iterative solution of the eigenvalue problem:
     one sub-group per band group will be used
     custom distributed-memory algorithm (size of sub-group:  6*  6 procs)

 
     Parallelization info
     --------------------
     sticks:   dense  smooth     PW     G-vecs:    dense   smooth      PW
     Min         208      82     20                59912    15118    1876
     Max         210      84     22                59974    15196    1926
     Sum       13399    5355   1345              3836275   970529  121367
 
     Using Slab Decomposition
 


     bravais-lattice index     =            0
     lattice parameter (alat)  =      17.7004  a.u.
     unit-cell volume          =   20319.7251 (a.u.)^3
     number of atoms/cell      =          156
     number of atomic types    =            5
     number of electrons       =      1071.00
     number of Kohn-Sham states=          643
     kinetic-energy cutoff     =      50.0000  Ry
     charge density cutoff     =     500.0000  Ry
     scf convergence threshold =      1.0E-06
     mixing beta               =       0.1000
     number of iterations used =            8  local-TF  mixing
     energy convergence thresh.=      1.0E-04
     force convergence thresh. =      1.0E-03
     Exchange-correlation=  SLA  PW   PBE  PBE
                           (   1   4   3   4   0   0   0)
     nstep                     =         1000


     celldm(1)=  17.700384  celldm(2)=   0.000000  celldm(3)=   0.000000
     celldm(4)=   0.000000  celldm(5)=   0.000000  celldm(6)=   0.000000

     crystal axes: (cart. coord. in units of alat)
               a(1) = (   1.000000   0.000000   0.000000 )  
               a(2) = (   0.000000   1.075730   0.000000 )  
               a(3) = (   0.000000   0.000000   3.406172 )  

     reciprocal axes: (cart. coord. in units 2 pi/alat)
               b(1) = (  1.000000  0.000000  0.000000 )  
               b(2) = (  0.000000  0.929602  0.000000 )  
               b(3) = (  0.000000  0.000000  0.293585 )  


     PseudoPot. # 1 for Ni read from file:
     ~/PSEUDO/Ni.pbe-n-rrkjus_psl.1.0.0.UPF
     MD5 check sum: Not computed, couldn't open file
     Pseudo is Ultrasoft + core correction, Zval = 10.0
     Generated using "atomic" code by A. Dal Corso  v.5.1.2
     Using radial grid of 1195 points,  6 beta functions with: 
                l(1) =   0
                l(2) =   0
                l(3) =   1
                l(4) =   1
                l(5) =   2
                l(6) =   2
     Q(r) pseudized with 0 coefficients 


     PseudoPot. # 2 for Mn read from file:
     ~/PSEUDO/Mn.pbe-spn-rrkjus_psl.0.3.1.UPF
     MD5 check sum: Not computed, couldn't open file
     Pseudo is Ultrasoft + core correction, Zval = 15.0
     Generated using &quot;atomic&quot; code by A. Dal Corso  v.6.2.2
     Using radial grid of 1187 points,  6 beta functions with: 
                l(1) =   0
                l(2) =   0
                l(3) =   1
                l(4) =   1
                l(5) =   2
                l(6) =   2
     Q(r) pseudized with 0 coefficients 


     PseudoPot. # 3 for P  read from file:
     ~/PSEUDO/P.pbe-n-rrkjus_psl.1.0.0.UPF
     MD5 check sum: Not computed, couldn't open file
     Pseudo is Ultrasoft + core correction, Zval =  5.0
     Generated using "atomic" code by A. Dal Corso  v.5.1
     Using radial grid of 1147 points,  6 beta functions with: 
                l(1) =   0
                l(2) =   0
                l(3) =   1
                l(4) =   1
                l(5) =   2
                l(6) =   2
     Q(r) pseudized with 0 coefficients 


     PseudoPot. # 4 for O  read from file:
     ~/PSEUDO/O.pbe-rrkjus.UPF
     MD5 check sum: Not computed, couldn't open file
     Pseudo is Ultrasoft, Zval =  6.0
     Generated by new atomic code, or converted to UPF format
     Using radial grid of 1269 points,  4 beta functions with: 
                l(1) =   0
                l(2) =   0
                l(3) =   1
                l(4) =   1
     Q(r) pseudized with 0 coefficients 


     PseudoPot. # 5 for H  read from file:
     ~/PSEUDO/H.pbe-rrkjus.UPF
     MD5 check sum: Not computed, couldn't open file
     Pseudo is Ultrasoft, Zval =  1.0
     Generated by new atomic code, or converted to UPF format
     Using radial grid of 1061 points,  2 beta functions with: 
                l(1) =   0
                l(2) =   0
     Q(r) pseudized with 0 coefficients 


     atomic species   valence    mass     pseudopotential
     Ni               10.00    58.69300     Ni( 1.00)
     Mn               15.00    54.93800     Mn( 1.00)
     P                 5.00    30.97300     P ( 1.00)
     O                 6.00    15.99900     O ( 1.00)
     H                 1.00     1.00790     H ( 1.00)

     Starting magnetic structure 
     atomic species   magnetization
     Ni              1.000
     Mn              1.000
     P               1.000
     O               1.000
     H               0.000

     No symmetry found



   Cartesian axes

     site n.     atom                  positions (alat units)
         1        Mn     tau(   1) = (   0.2404744   0.8371250   1.6900294  )
         2        Ni     tau(   2) = (   0.4968126   0.7726670   1.3653249  )
         3        Ni     tau(   3) = (   0.0066150   0.2936743   1.6827743  )
         4        Ni     tau(   4) = (   0.2585722   0.2355858   1.3619947  )
         5        Ni     tau(   5) = (   0.9987350   1.0696411   1.5213869  )
         6        Ni     tau(   6) = (   0.2517397   0.5330511   1.5239473  )
         7        Ni     tau(   7) = (   0.7451645   0.8337543   1.6847044  )
         8        Ni     tau(   8) = (   0.9939181   0.7738804   1.3661201  )
         9        Ni     tau(   9) = (   0.5111533   0.2924088   1.6816930  )
        10        Ni     tau(  10) = (   0.7606326   0.2319267   1.3617423  )
        11        Ni     tau(  11) = (   0.5024065   1.0688133   1.5198293  )
        12        Ni     tau(  12) = (   0.7529977   0.5317900   1.5223568  )
        13        P      tau(  13) = (   0.2092944   0.9731097   1.3723760  )
        14        P      tau(  14) = (   0.4655727   0.6359535   1.6794160  )
        15        P      tau(  15) = (   0.2910699   0.1027363   1.6772698  )
        16        P      tau(  16) = (   0.0396216   0.4288395   1.3669957  )
        17        O      tau(  17) = (   0.1294378   0.9013260   1.5058177  )
        18        O      tau(  18) = (   0.3874505   0.7054774   1.5431792  )
        19        O      tau(  19) = (   0.3702540   0.1714799   1.5408767  )
        20        O      tau(  20) = (   0.1184398   0.3582958   1.5030442  )
        21        O      tau(  21) = (   0.1451572   0.8850881   1.2481217  )
        22        O      tau(  22) = (   0.4048762   0.7245585   1.8051303  )
        23        O      tau(  23) = (   0.3523506   0.1900579   1.8033051  )
        24        O      tau(  24) = (   0.1017610   0.3410484   1.2412223  )
        25        O      tau(  25) = (   0.0975396   0.5849288   1.3710873  )
        26        O      tau(  26) = (   0.3483552   1.0314945   1.6798474  )
        27        O      tau(  27) = (   0.3784305   0.4225118   1.3759867  )
        28        O      tau(  28) = (   0.1268237   0.1067944   1.6676052  )
        29        O      tau(  29) = (   0.1212267   0.6424170   1.6705899  )
        30        O      tau(  30) = (   0.4053315   0.4809387   1.6768173  )
        31        O      tau(  31) = (   0.1536621   0.0446918   1.3695409  )
        32        O      tau(  32) = (   0.3732349   0.9631717   1.3812153  )
        33        P      tau(  33) = (   0.7119823   0.9695974   1.3695785  )
        34        P      tau(  34) = (   0.9615208   0.6363392   1.6805864  )
        35        P      tau(  35) = (   0.7927710   0.0970060   1.6776631  )
        36        P      tau(  36) = (   0.5426404   0.4269675   1.3658057  )
        37        O      tau(  37) = (   0.6326879   0.8991182   1.5055555  )
        38        O      tau(  38) = (   0.8842163   0.7083206   1.5443640  )
        39        O      tau(  39) = (   0.8716178   0.1677751   1.5415291  )
        40        O      tau(  40) = (   0.6212010   0.3558666   1.5017711  )
        41        O      tau(  41) = (   0.6507714   0.8812342   1.2437073  )
        42        O      tau(  42) = (   0.9014054   0.7264458   1.8058119  )
        43        O      tau(  43) = (   0.8548963   0.1847909   1.8033324  )
        44        O      tau(  44) = (   0.6044469   0.3378706   1.2408429  )
        45        O      tau(  45) = (   0.6024424   0.5823140   1.3689780  )
        46        O      tau(  46) = (   0.8498940   1.0254482   1.6793639  )
        47        O      tau(  47) = (   0.8798395   0.4205825   1.3763025  )
        48        O      tau(  48) = (   0.6286921   0.1034636   1.6671450  )
        49        O      tau(  49) = (   0.6294973   0.6427753   1.6696242  )
        50        O      tau(  50) = (   0.9024339   0.4810312   1.6772377  )
        51        O      tau(  51) = (   0.6547812   0.0410987   1.3672159  )
        52        O      tau(  52) = (   0.8760507   0.9632605   1.3804288  )
        53        Mn     tau(  53) = (   0.2404744   0.8246335   1.0701417  )
        54        Ni     tau(  54) = (   0.4968126   0.7601755   0.7454373  )
        55        Ni     tau(  55) = (   0.0066150   0.2811828   1.0628866  )
        56        Ni     tau(  56) = (   0.2585722   0.2230943   0.7421070  )
        57        Ni     tau(  57) = (   0.9987350   1.0571496   0.9014992  )
        58        Ni     tau(  58) = (   0.2517397   0.5205596   0.9040596  )
        59        Ni     tau(  59) = (   0.7451645   0.8212628   1.0648168  )
        60        Ni     tau(  60) = (   0.9939181   0.7613889   0.7462324  )
        61        Ni     tau(  61) = (   0.5111533   0.2799173   1.0618053  )
        62        Ni     tau(  62) = (   0.7606326   0.2194352   0.7418547  )
        63        Ni     tau(  63) = (   0.5024065   1.0563218   0.8999416  )
        64        Ni     tau(  64) = (   0.7529977   0.5192985   0.9024691  )
        65        P      tau(  65) = (   0.2092944   0.9606182   0.7524883  )
        66        P      tau(  66) = (   0.4655727   0.6234620   1.0595283  )
        67        P      tau(  67) = (   0.2910699   0.0902448   1.0573821  )
        68        P      tau(  68) = (   0.0396216   0.4163480   0.7471080  )
        69        O      tau(  69) = (   0.1294378   0.8888345   0.8859300  )
        70        O      tau(  70) = (   0.3874505   0.6929859   0.9232915  )
        71        O      tau(  71) = (   0.3702540   0.1589885   0.9209891  )
        72        O      tau(  72) = (   0.1184398   0.3458043   0.8831565  )
        73        O      tau(  73) = (   0.1451572   0.8725966   0.6282341  )
        74        O      tau(  74) = (   0.4048762   0.7120670   1.1852426  )
        75        O      tau(  75) = (   0.3523506   0.1775664   1.1834175  )
        76        O      tau(  76) = (   0.1017610   0.3285569   0.6213347  )
        77        O      tau(  77) = (   0.0975396   0.5724373   0.7511996  )
        78        O      tau(  78) = (   0.3483552   1.0190030   1.0599597  )
        79        O      tau(  79) = (   0.3784305   0.4100203   0.7560991  )
        80        O      tau(  80) = (   0.1268237   0.0943029   1.0477175  )
        81        O      tau(  81) = (   0.1212267   0.6299255   1.0507023  )
        82        O      tau(  82) = (   0.4053315   0.4684472   1.0569297  )
        83        O      tau(  83) = (   0.1536621   0.0322003   0.7496532  )
        84        O      tau(  84) = (   0.3732349   0.9506802   0.7613277  )
        85        P      tau(  85) = (   0.7119823   0.9571059   0.7496908  )
        86        P      tau(  86) = (   0.9615208   0.6238477   1.0606987  )
        87        P      tau(  87) = (   0.7927710   0.0845145   1.0577754  )
        88        P      tau(  88) = (   0.5426404   0.4144760   0.7459181  )
        89        O      tau(  89) = (   0.6326879   0.8866267   0.8856678  )
        90        O      tau(  90) = (   0.8842163   0.6958291   0.9244764  )
        91        O      tau(  91) = (   0.8716178   0.1552836   0.9216415  )
        92        O      tau(  92) = (   0.6212010   0.3433751   0.8818834  )
        93        O      tau(  93) = (   0.6507714   0.8687427   0.6238197  )
        94        O      tau(  94) = (   0.9014054   0.7139543   1.1859242  )
        95        O      tau(  95) = (   0.8548963   0.1722994   1.1834447  )
        96        O      tau(  96) = (   0.6044469   0.3253792   0.6209553  )
        97        O      tau(  97) = (   0.6024424   0.5698225   0.7490903  )
        98        O      tau(  98) = (   0.8498940   1.0129567   1.0594762  )
        99        O      tau(  99) = (   0.8798395   0.4080910   0.7564148  )
       100        O      tau( 100) = (   0.6286921   0.0909721   1.0472573  )
       101        O      tau( 101) = (   0.6294973   0.6302838   1.0497366  )
       102        O      tau( 102) = (   0.9024339   0.4685397   1.0573501  )
       103        O      tau( 103) = (   0.6547812   0.0286072   0.7473283  )
       104        O      tau( 104) = (   0.8760507   0.9507690   0.7605412  )
       105        Mn     tau( 105) = (   0.2404744   0.8121420   0.4502541  )
       106        Ni     tau( 106) = (   0.4968126   0.7476840   0.1255496  )
       107        Ni     tau( 107) = (   0.0066150   0.2686914   0.4429989  )
       108        Ni     tau( 108) = (   0.2585722   0.2106028   0.1222194  )
       109        Ni     tau( 109) = (   0.9987350   1.0446581   0.2816116  )
       110        Ni     tau( 110) = (   0.2517397   0.5080681   0.2841720  )
       111        Ni     tau( 111) = (   0.7451645   0.8087713   0.4449291  )
       112        Ni     tau( 112) = (   0.9939181   0.7488974   0.1263448  )
       113        Ni     tau( 113) = (   0.5111533   0.2674258   0.4419177  )
       114        Ni     tau( 114) = (   0.7606326   0.2069438   0.1219670  )
       115        Ni     tau( 115) = (   0.5024065   1.0438304   0.2800540  )
       116        Ni     tau( 116) = (   0.7529977   0.5068070   0.2825815  )
       117        P      tau( 117) = (   0.2092944   0.9481267   0.1326007  )
       118        P      tau( 118) = (   0.4655727   0.6109705   0.4396407  )
       119        P      tau( 119) = (   0.2910699   0.0777534   0.4374945  )
       120        P      tau( 120) = (   0.0396216   0.4038566   0.1272204  )
       121        O      tau( 121) = (   0.1294378   0.8763430   0.2660424  )
       122        O      tau( 122) = (   0.3874505   0.6804944   0.3034039  )
       123        O      tau( 123) = (   0.3702540   0.1464970   0.3011014  )
       124        O      tau( 124) = (   0.1184398   0.3333129   0.2632689  )
       125        O      tau( 125) = (   0.1451572   0.8601051   0.0083464  )
       126        O      tau( 126) = (   0.4048762   0.6995756   0.5653550  )
       127        O      tau( 127) = (   0.3523506   0.1650749   0.5635298  )
       128        O      tau( 128) = (   0.1017610   0.3160655   0.0014470  )
       129        O      tau( 129) = (   0.0975396   0.5599458   0.1313120  )
       130        O      tau( 130) = (   0.3483552   1.0065115   0.4400720  )
       131        O      tau( 131) = (   0.3784305   0.3975288   0.1362114  )
       132        O      tau( 132) = (   0.1268237   0.0818115   0.4278298  )
       133        O      tau( 133) = (   0.1212267   0.6174340   0.4308146  )
       134        O      tau( 134) = (   0.4053315   0.4559557   0.4370420  )
       135        O      tau( 135) = (   0.1536621   0.0197088   0.1297656  )
       136        O      tau( 136) = (   0.3732349   0.9381887   0.1414400  )
       137        P      tau( 137) = (   0.7119823   0.9446144   0.1298032  )
       138        P      tau( 138) = (   0.9615208   0.6113562   0.4408111  )
       139        P      tau( 139) = (   0.7927710   0.0720230   0.4378878  )
       140        P      tau( 140) = (   0.5426404   0.4019845   0.1260304  )
       141        O      tau( 141) = (   0.6326879   0.8741353   0.2657802  )
       142        O      tau( 142) = (   0.8842163   0.6833376   0.3045887  )
       143        O      tau( 143) = (   0.8716178   0.1427921   0.3017538  )
       144        O      tau( 144) = (   0.6212010   0.3308836   0.2619957  )
       145        O      tau( 145) = (   0.6507714   0.8562512   0.0039320  )
       146        O      tau( 146) = (   0.9014054   0.7014628   0.5660366  )
       147        O      tau( 147) = (   0.8548963   0.1598079   0.5635571  )
       148        O      tau( 148) = (   0.6044469   0.3128877   0.0010676  )
       149        O      tau( 149) = (   0.6024424   0.5573310   0.1292027  )
       150        O      tau( 150) = (   0.8498940   1.0004653   0.4395886  )
       151        O      tau( 151) = (   0.8798395   0.3955995   0.1365272  )
       152        O      tau( 152) = (   0.6286921   0.0784807   0.4273696  )
       153        O      tau( 153) = (   0.6294973   0.6177923   0.4298489  )
       154        O      tau( 154) = (   0.9024339   0.4560482   0.4374624  )
       155        O      tau( 155) = (   0.6547812   0.0161158   0.1274406  )
       156        O      tau( 156) = (   0.8760507   0.9382775   0.1406535  )

     -------------------------------------------------
     Parameters for Dispersion (Grimme-D2) Correction:
     -------------------------------------------------
       atom      VdW radius       C_6     

        Ni         2.952        374.666
        Mn         2.952        374.666
        P          3.222        271.980
        O          2.536         24.284
        H          1.892          4.857

     number of k points=     1  Gaussian smearing, width (Ry)=  0.0100
                       cart. coord. in units 2pi/alat
        k(    1) = (   0.0000000   0.0000000   0.0000000), wk =   1.0000000

     Dense  grid:  1918138 G-vectors     FFT dimensions: ( 125, 135, 432)

     Smooth grid:   485265 G-vectors     FFT dimensions: (  80,  90, 288)

     Estimated max dynamical RAM per process >     318.42 MB

     Estimated total dynamical RAM >      19.90 GB
     Generating pointlists ...
     new r_m :   0.0866 (alat units)  1.5324 (a.u.) for type    1
     new r_m :   0.0869 (alat units)  1.5388 (a.u.) for type    2
     new r_m :   0.0650 (alat units)  1.1499 (a.u.) for type    3
     new r_m :   0.0650 (alat units)  1.1499 (a.u.) for type    4
     new r_m :   0.4125 (alat units)  7.3014 (a.u.) for type    5

     Initial potential from superposition of free atoms

     starting charge    1070.9862, renormalised to    1071.0000

     negative rho (up, down):  1.326E-03 2.650E-13
 
     Adding external electric field

     Computed dipole along edir(3) : 
        Dipole                0.0016 Ry au,          0.0041 Debye
        Dipole field          0.0000 Ry au, 
 
        Potential amp.       -0.0001 Ry
        Total length         54.2615 bohr
 
 
     Adding external electric field

     Computed dipole along edir(3) : 
        Dipole                0.0016 Ry au,          0.0041 Debye
        Dipole field          0.0000 Ry au, 
 
        Potential amp.       -0.0001 Ry
        Total length         54.2615 bohr
 
     Starting wfcs are  807 randomized atomic wfcs

     total cpu time spent up to now is        9.3 secs

     Self-consistent Calculation

     iteration #  1     ecut=    50.00 Ry     beta= 0.10
     Davidson diagonalization with overlap
     ethr =  1.00E-02,  avg # of iterations =  6.0

     negative rho (up, down):  3.299E-01 0.000E+00
 
     Adding external electric field

     Computed dipole along edir(3) : 
        Dipole               -1.6636 Ry au,         -4.2284 Debye
        Dipole field         -0.0010 Ry au, 
 
        Potential amp.        0.1116 Ry
        Total length         54.2615 bohr
 
 
     Adding external electric field

     Computed dipole along edir(3) : 
        Dipole               -1.6636 Ry au,         -4.2284 Debye
        Dipole field         -0.0010 Ry au, 
 
        Potential amp.        0.1116 Ry
        Total length         54.2615 bohr
 

     total cpu time spent up to now is       30.7 secs

     total energy              =   -7146.47262225 Ry
     estimated scf accuracy    <     260.77292429 Ry

     total magnetization       =   215.00 Bohr mag/cell
     absolute magnetization    =   300.06 Bohr mag/cell

     iteration #  2     ecut=    50.00 Ry     beta= 0.10
     Davidson diagonalization with overlap
     ethr =  1.00E-02,  avg # of iterations =  2.0

     negative rho (up, down):  3.164E-01 0.000E+00
 
     Adding external electric field

     Computed dipole along edir(3) : 
        Dipole               -1.2802 Ry au,         -3.2539 Debye
        Dipole field         -0.0008 Ry au, 
 
        Potential amp.        0.0859 Ry
        Total length         54.2615 bohr
 
 
     Adding external electric field

     Computed dipole along edir(3) : 
        Dipole               -1.2802 Ry au,         -3.2539 Debye
        Dipole field         -0.0008 Ry au, 
 
        Potential amp.        0.0859 Ry
        Total length         54.2615 bohr
 

     total cpu time spent up to now is       43.3 secs

     total energy              =   -7230.54906161 Ry
     estimated scf accuracy    <     147.74164177 Ry

     total magnetization       =   142.13 Bohr mag/cell
     absolute magnetization    =   194.05 Bohr mag/cell

     iteration #  3     ecut=    50.00 Ry     beta= 0.10
     Davidson diagonalization with overlap
     ethr =  1.00E-02,  avg # of iterations =  1.5

     negative rho (up, down):  2.960E-01 0.000E+00
 
     Adding external electric field

     Computed dipole along edir(3) : 
        Dipole               -0.7585 Ry au,         -1.9279 Debye
        Dipole field         -0.0005 Ry au, 
 
        Potential amp.        0.0509 Ry
        Total length         54.2615 bohr
 
 
     Adding external electric field

     Computed dipole along edir(3) : 
        Dipole               -0.7585 Ry au,         -1.9279 Debye
        Dipole field         -0.0005 Ry au, 
 
        Potential amp.        0.0509 Ry
        Total length         54.2615 bohr
 

     total cpu time spent up to now is       53.2 secs

     total energy              =   -7268.71593658 Ry
     estimated scf accuracy    <     102.84996569 Ry

     total magnetization       =   121.48 Bohr mag/cell
     absolute magnetization    =   174.19 Bohr mag/cell

     iteration #  4     ecut=    50.00 Ry     beta= 0.10
     Davidson diagonalization with overlap
     ethr =  9.60E-03,  avg # of iterations =  1.0

     negative rho (up, down):  2.531E-01 0.000E+00
 
     Adding external electric field

     Computed dipole along edir(3) : 
        Dipole               -0.7299 Ry au,         -1.8552 Debye
        Dipole field         -0.0005 Ry au, 
 
        Potential amp.        0.0490 Ry
        Total length         54.2615 bohr
 
 
     Adding external electric field

     Computed dipole along edir(3) : 
        Dipole               -0.7299 Ry au,         -1.8552 Debye
        Dipole field         -0.0005 Ry au, 
 
        Potential amp.        0.0490 Ry
        Total length         54.2615 bohr
 

     total cpu time spent up to now is       63.4 secs

     total energy              =   -7292.27534899 Ry
     estimated scf accuracy    <      74.30875377 Ry

     total magnetization       =   102.27 Bohr mag/cell
     absolute magnetization    =   157.26 Bohr mag/cell

     iteration #  5     ecut=    50.00 Ry     beta= 0.10
     Davidson diagonalization with overlap
     ethr =  6.94E-03,  avg # of iterations =  1.0

     negative rho (up, down):  1.046E-01 3.119E-04
 
     Adding external electric field

     Computed dipole along edir(3) : 
        Dipole                0.1387 Ry au,          0.3527 Debye
        Dipole field          0.0001 Ry au, 
 
        Potential amp.       -0.0093 Ry
        Total length         54.2615 bohr
 
 
     Adding external electric field

     Computed dipole along edir(3) : 
        Dipole                0.1387 Ry au,          0.3527 Debye
        Dipole field          0.0001 Ry au, 
 
        Potential amp.       -0.0093 Ry
        Total length         54.2615 bohr
 

     total cpu time spent up to now is       72.8 secs

     total energy              =   -7353.18048598 Ry
     estimated scf accuracy    <      63.78996649 Ry

     total magnetization       =    87.22 Bohr mag/cell
     absolute magnetization    =   143.45 Bohr mag/cell

     iteration #  6     ecut=    50.00 Ry     beta= 0.10
     Davidson diagonalization with overlap
     ethr =  5.96E-03,  avg # of iterations =  1.5

     negative rho (up, down):  5.386E-02 5.316E-02
 
     Adding external electric field

     Computed dipole along edir(3) : 
        Dipole                0.6841 Ry au,          1.7388 Debye
        Dipole field          0.0004 Ry au, 
 
        Potential amp.       -0.0459 Ry
        Total length         54.2615 bohr
 
 
     Adding external electric field

     Computed dipole along edir(3) : 
        Dipole                0.6841 Ry au,          1.7388 Debye
        Dipole field          0.0004 Ry au, 
 
        Potential amp.       -0.0459 Ry
        Total length         54.2615 bohr
 

     total cpu time spent up to now is       83.3 secs

     total energy              =   -7362.65938459 Ry
     estimated scf accuracy    <      11.78949010 Ry

     total magnetization       =    81.00 Bohr mag/cell
     absolute magnetization    =   113.11 Bohr mag/cell

     iteration #  7     ecut=    50.00 Ry     beta= 0.10
     Davidson diagonalization with overlap
     ethr =  1.10E-03,  avg # of iterations =  6.0

     negative rho (up, down):  5.391E-02 5.346E-02
 
     Adding external electric field

     Computed dipole along edir(3) : 
        Dipole                0.6823 Ry au,          1.7342 Debye
        Dipole field          0.0004 Ry au, 
 
        Potential amp.       -0.0458 Ry
        Total length         54.2615 bohr
 
 
     Adding external electric field

     Computed dipole along edir(3) : 
        Dipole                0.6823 Ry au,          1.7342 Debye
        Dipole field          0.0004 Ry au, 
 
        Potential amp.       -0.0458 Ry
        Total length         54.2615 bohr
 

     total cpu time spent up to now is      101.1 secs

     total energy              =   -7364.53915518 Ry
     estimated scf accuracy    <      12.66476204 Ry

     total magnetization       =    70.89 Bohr mag/cell
     absolute magnetization    =    87.09 Bohr mag/cell

     iteration #  8     ecut=    50.00 Ry     beta= 0.10
     Davidson diagonalization with overlap
     ethr =  1.10E-03,  avg # of iterations =  1.0

     negative rho (up, down):  5.517E-02 5.565E-02
 
     Adding external electric field

     Computed dipole along edir(3) : 
        Dipole                0.6724 Ry au,          1.7091 Debye
        Dipole field          0.0004 Ry au, 
 
        Potential amp.       -0.0451 Ry
        Total length         54.2615 bohr
 
 
     Adding external electric field

     Computed dipole along edir(3) : 
        Dipole                0.6724 Ry au,          1.7091 Debye
        Dipole field          0.0004 Ry au, 
 
        Potential amp.       -0.0451 Ry
        Total length         54.2615 bohr
 

     total cpu time spent up to now is      111.1 secs

     total energy              =   -7364.47773122 Ry
     estimated scf accuracy    <      12.49757137 Ry

     total magnetization       =    70.94 Bohr mag/cell
     absolute magnetization    =    86.87 Bohr mag/cell

     iteration #  9     ecut=    50.00 Ry     beta= 0.10
     Davidson diagonalization with overlap
     ethr =  1.10E-03,  avg # of iterations =  1.0

     negative rho (up, down):  5.896E-02 6.793E-02
 
     Adding external electric field

     Computed dipole along edir(3) : 
        Dipole                0.6010 Ry au,          1.5277 Debye
        Dipole field          0.0004 Ry au, 
 
        Potential amp.       -0.0403 Ry
        Total length         54.2615 bohr
 
 
     Adding external electric field

     Computed dipole along edir(3) : 
        Dipole                0.6010 Ry au,          1.5277 Debye
        Dipole field          0.0004 Ry au, 
 
        Potential amp.       -0.0403 Ry
        Total length         54.2615 bohr
 

     total cpu time spent up to now is      122.3 secs

     total energy              =   -7364.07158701 Ry
     estimated scf accuracy    <      10.83459356 Ry

     total magnetization       =    71.03 Bohr mag/cell
     absolute magnetization    =    86.14 Bohr mag/cell

     iteration # 10     ecut=    50.00 Ry     beta= 0.10
     Davidson diagonalization with overlap
     ethr =  1.01E-03,  avg # of iterations =  1.5

     negative rho (up, down):  5.182E-02 6.296E-02
 
     Adding external electric field

     Computed dipole along edir(3) : 
        Dipole                0.6536 Ry au,          1.6612 Debye
        Dipole field          0.0004 Ry au, 
 
        Potential amp.       -0.0439 Ry
        Total length         54.2615 bohr
 
 
     Adding external electric field

     Computed dipole along edir(3) : 
        Dipole                0.6536 Ry au,          1.6612 Debye
        Dipole field          0.0004 Ry au, 
 
        Potential amp.       -0.0439 Ry
        Total length         54.2615 bohr
 

     total cpu time spent up to now is      132.6 secs

     total energy              =   -7364.47327231 Ry
     estimated scf accuracy    <       0.90783431 Ry

     total magnetization       =    80.90 Bohr mag/cell
     absolute magnetization    =    91.30 Bohr mag/cell

     iteration # 11     ecut=    50.00 Ry     beta= 0.10
     Davidson diagonalization with overlap
     ethr =  8.48E-05,  avg # of iterations = 11.0

     negative rho (up, down):  4.781E-02 6.054E-02
 
     Adding external electric field

     Computed dipole along edir(3) : 
        Dipole                0.6562 Ry au,          1.6680 Debye
        Dipole field          0.0004 Ry au, 
 
        Potential amp.       -0.0440 Ry
        Total length         54.2615 bohr
 
 
     Adding external electric field

     Computed dipole along edir(3) : 
        Dipole                0.6562 Ry au,          1.6680 Debye
        Dipole field          0.0004 Ry au, 
 
        Potential amp.       -0.0440 Ry
        Total length         54.2615 bohr
 

     total cpu time spent up to now is      152.4 secs

     total energy              =   -7364.53157499 Ry
     estimated scf accuracy    <       0.79754492 Ry

     total magnetization       =    79.56 Bohr mag/cell
     absolute magnetization    =    89.36 Bohr mag/cell

     iteration # 12     ecut=    50.00 Ry     beta= 0.10
     Davidson diagonalization with overlap
     ethr =  7.45E-05,  avg # of iterations =  1.0

     negative rho (up, down):  2.306E-02 3.489E-02
 
     Adding external electric field

     Computed dipole along edir(3) : 
        Dipole                0.6677 Ry au,          1.6972 Debye
        Dipole field          0.0004 Ry au, 
 
        Potential amp.       -0.0448 Ry
        Total length         54.2615 bohr
 
 
     Adding external electric field

     Computed dipole along edir(3) : 
        Dipole                0.6677 Ry au,          1.6972 Debye
        Dipole field          0.0004 Ry au, 
 
        Potential amp.       -0.0448 Ry
        Total length         54.2615 bohr
 

     total cpu time spent up to now is      162.4 secs

     total energy              =   -7364.68522943 Ry
     estimated scf accuracy    <       0.63578385 Ry

     total magnetization       =    79.93 Bohr mag/cell
     absolute magnetization    =    88.93 Bohr mag/cell

     iteration # 13     ecut=    50.00 Ry     beta= 0.10
     Davidson diagonalization with overlap
     ethr =  5.94E-05,  avg # of iterations =  1.5

     negative rho (up, down):  2.340E-02 3.420E-02
 
     Adding external electric field

     Computed dipole along edir(3) : 
        Dipole                0.6689 Ry au,          1.7003 Debye
        Dipole field          0.0004 Ry au, 
 
        Potential amp.       -0.0449 Ry
        Total length         54.2615 bohr
 
 
     Adding external electric field

     Computed dipole along edir(3) : 
        Dipole                0.6689 Ry au,          1.7003 Debye
        Dipole field          0.0004 Ry au, 
 
        Potential amp.       -0.0449 Ry
        Total length         54.2615 bohr
 

     total cpu time spent up to now is      172.4 secs

     total energy              =   -7364.69811769 Ry
     estimated scf accuracy    <       0.51695071 Ry

     total magnetization       =    79.08 Bohr mag/cell
     absolute magnetization    =    84.84 Bohr mag/cell

     iteration # 14     ecut=    50.00 Ry     beta= 0.10
     Davidson diagonalization with overlap
     ethr =  4.83E-05,  avg # of iterations =  1.0

     negative rho (up, down):  2.389E-02 3.482E-02
 
     Adding external electric field

     Computed dipole along edir(3) : 
        Dipole                0.6502 Ry au,          1.6526 Debye
        Dipole field          0.0004 Ry au, 
 
        Potential amp.       -0.0436 Ry
        Total length         54.2615 bohr
 
 
     Adding external electric field

     Computed dipole along edir(3) : 
        Dipole                0.6502 Ry au,          1.6526 Debye
        Dipole field          0.0004 Ry au, 
 
        Potential amp.       -0.0436 Ry
        Total length         54.2615 bohr
 

     total cpu time spent up to now is      182.1 secs

     total energy              =   -7364.70475531 Ry
     estimated scf accuracy    <       0.78248469 Ry

     total magnetization       =    78.10 Bohr mag/cell
     absolute magnetization    =    84.22 Bohr mag/cell

     iteration # 15     ecut=    50.00 Ry     beta= 0.10
     Davidson diagonalization with overlap
     ethr =  4.83E-05,  avg # of iterations =  1.0

     negative rho (up, down):  2.859E-02 2.985E-02
 
     Adding external electric field

     Computed dipole along edir(3) : 
        Dipole                0.3458 Ry au,          0.8790 Debye
        Dipole field          0.0002 Ry au, 
 
        Potential amp.       -0.0232 Ry
        Total length         54.2615 bohr
 
 
     Adding external electric field

     Computed dipole along edir(3) : 
        Dipole                0.3458 Ry au,          0.8790 Debye
        Dipole field          0.0002 Ry au, 
 
        Potential amp.       -0.0232 Ry
        Total length         54.2615 bohr
 

     total cpu time spent up to now is      192.3 secs

     total energy              =   -7364.79473852 Ry
     estimated scf accuracy    <       0.67934010 Ry

     total magnetization       =    78.27 Bohr mag/cell
     absolute magnetization    =    84.31 Bohr mag/cell

     iteration # 16     ecut=    50.00 Ry     beta= 0.10
     Davidson diagonalization with overlap
     ethr =  4.83E-05,  avg # of iterations =  2.0

     negative rho (up, down):  4.197E-02 4.011E-02
 
     Adding external electric field

     Computed dipole along edir(3) : 
        Dipole                0.2369 Ry au,          0.6022 Debye
        Dipole field          0.0001 Ry au, 
 
        Potential amp.       -0.0159 Ry
        Total length         54.2615 bohr
 
 
     Adding external electric field

     Computed dipole along edir(3) : 
        Dipole                0.2369 Ry au,          0.6022 Debye
        Dipole field          0.0001 Ry au, 
 
        Potential amp.       -0.0159 Ry
        Total length         54.2615 bohr
 

     total cpu time spent up to now is      203.4 secs

     total energy              =   -7364.82962616 Ry
     estimated scf accuracy    <       0.26290376 Ry

     total magnetization       =    79.44 Bohr mag/cell
     absolute magnetization    =    83.77 Bohr mag/cell

     iteration # 17     ecut=    50.00 Ry     beta= 0.10
     Davidson diagonalization with overlap
     ethr =  2.45E-05,  avg # of iterations = 12.0

     negative rho (up, down):  3.713E-02 3.510E-02
 
     Adding external electric field

     Computed dipole along edir(3) : 
        Dipole                0.2660 Ry au,          0.6761 Debye
        Dipole field          0.0002 Ry au, 
 
        Potential amp.       -0.0179 Ry
        Total length         54.2615 bohr
 
 
     Adding external electric field

     Computed dipole along edir(3) : 
        Dipole                0.2660 Ry au,          0.6761 Debye
        Dipole field          0.0002 Ry au, 
 
        Potential amp.       -0.0179 Ry
        Total length         54.2615 bohr
 

     total cpu time spent up to now is      222.9 secs

     total energy              =   -7364.82853175 Ry
     estimated scf accuracy    <       0.20201770 Ry

     total magnetization       =    80.37 Bohr mag/cell
     absolute magnetization    =    84.09 Bohr mag/cell

     iteration # 18     ecut=    50.00 Ry     beta= 0.10
     Davidson diagonalization with overlap
     ethr =  1.89E-05,  avg # of iterations =  3.0

     negative rho (up, down):  2.106E-02 2.077E-02
 
     Adding external electric field

     Computed dipole along edir(3) : 
        Dipole                0.2192 Ry au,          0.5573 Debye
        Dipole field          0.0001 Ry au, 
 
        Potential amp.       -0.0147 Ry
        Total length         54.2615 bohr
 
 
     Adding external electric field

     Computed dipole along edir(3) : 
        Dipole                0.2192 Ry au,          0.5573 Debye
        Dipole field          0.0001 Ry au, 
 
        Potential amp.       -0.0147 Ry
        Total length         54.2615 bohr
 

     total cpu time spent up to now is      235.0 secs

     total energy              =   -7364.85411406 Ry
     estimated scf accuracy    <       0.24720310 Ry

     total magnetization       =    79.77 Bohr mag/cell
     absolute magnetization    =    83.55 Bohr mag/cell

     iteration # 19     ecut=    50.00 Ry     beta= 0.10
     Davidson diagonalization with overlap
     ethr =  1.89E-05,  avg # of iterations =  3.0

     negative rho (up, down):  1.396E-02 1.433E-02
 
     Adding external electric field

     Computed dipole along edir(3) : 
        Dipole                0.2517 Ry au,          0.6397 Debye
        Dipole field          0.0002 Ry au, 
 
        Potential amp.       -0.0169 Ry
        Total length         54.2615 bohr
 
 
     Adding external electric field

     Computed dipole along edir(3) : 
        Dipole                0.2517 Ry au,          0.6397 Debye
        Dipole field          0.0002 Ry au, 
 
        Potential amp.       -0.0169 Ry
        Total length         54.2615 bohr
 

     total cpu time spent up to now is      246.7 secs

     total energy              =   -7364.85135965 Ry
     estimated scf accuracy    <       0.17189709 Ry

     total magnetization       =    80.54 Bohr mag/cell
     absolute magnetization    =    83.55 Bohr mag/cell

     iteration # 20     ecut=    50.00 Ry     beta= 0.10
     Davidson diagonalization with overlap
     c_bands:  2 eigenvalues not converged
     ethr =  1.61E-05,  avg # of iterations = 29.0

     negative rho (up, down):  1.302E-02 1.545E-02
 
     Adding external electric field

     Computed dipole along edir(3) : 
        Dipole                0.3069 Ry au,          0.7800 Debye
        Dipole field          0.0002 Ry au, 
 
        Potential amp.       -0.0206 Ry
        Total length         54.2615 bohr
 
 
     Adding external electric field

     Computed dipole along edir(3) : 
        Dipole                0.3069 Ry au,          0.7800 Debye
        Dipole field          0.0002 Ry au, 
 
        Potential amp.       -0.0206 Ry
        Total length         54.2615 bohr
 

     total cpu time spent up to now is      273.0 secs

     total energy              =   -7364.84191143 Ry
     estimated scf accuracy    <       0.15008842 Ry

     total magnetization       =    80.12 Bohr mag/cell
     absolute magnetization    =    83.12 Bohr mag/cell

     iteration # 21     ecut=    50.00 Ry     beta= 0.10
     Davidson diagonalization with overlap
     c_bands:  2 eigenvalues not converged
     ethr =  1.40E-05,  avg # of iterations = 11.0

     negative rho (up, down):  2.713E-03 4.841E-03
 
     Adding external electric field

     Computed dipole along edir(3) : 
        Dipole                0.1870 Ry au,          0.4754 Debye
        Dipole field          0.0001 Ry au, 
 
        Potential amp.       -0.0126 Ry
        Total length         54.2615 bohr
 
 
     Adding external electric field

     Computed dipole along edir(3) : 
        Dipole                0.1870 Ry au,          0.4754 Debye
        Dipole field          0.0001 Ry au, 
 
        Potential amp.       -0.0126 Ry
        Total length         54.2615 bohr
 

     total cpu time spent up to now is      289.2 secs

     total energy              =   -7364.85264211 Ry
     estimated scf accuracy    <       0.13972297 Ry

     total magnetization       =    79.67 Bohr mag/cell
     absolute magnetization    =    82.60 Bohr mag/cell

     iteration # 22     ecut=    50.00 Ry     beta= 0.10
     Davidson diagonalization with overlap
     c_bands:  3 eigenvalues not converged
     ethr =  1.30E-05,  avg # of iterations = 11.0

     negative rho (up, down):  6.554E-04 9.819E-04
 
     Adding external electric field

     Computed dipole along edir(3) : 
        Dipole                0.0607 Ry au,          0.1544 Debye
        Dipole field          0.0000 Ry au, 
 
        Potential amp.       -0.0041 Ry
        Total length         54.2615 bohr
 
 
     Adding external electric field

     Computed dipole along edir(3) : 
        Dipole                0.0607 Ry au,          0.1544 Debye
        Dipole field          0.0000 Ry au, 
 
        Potential amp.       -0.0041 Ry
        Total length         54.2615 bohr
 

     total cpu time spent up to now is      306.0 secs

     total energy              =   -7364.85652814 Ry
     estimated scf accuracy    <       0.07063781 Ry

     total magnetization       =    79.74 Bohr mag/cell
     absolute magnetization    =    81.92 Bohr mag/cell

     iteration # 23     ecut=    50.00 Ry     beta= 0.10
     Davidson diagonalization with overlap
     c_bands:  3 eigenvalues not converged
     ethr =  6.60E-06,  avg # of iterations = 21.0

     negative rho (up, down):  3.053E-04 5.108E-04
 
     Adding external electric field

     Computed dipole along edir(3) : 
        Dipole                0.0506 Ry au,          0.1287 Debye
        Dipole field          0.0000 Ry au, 
 
        Potential amp.       -0.0034 Ry
        Total length         54.2615 bohr
 
 
     Adding external electric field

     Computed dipole along edir(3) : 
        Dipole                0.0506 Ry au,          0.1287 Debye
        Dipole field          0.0000 Ry au, 
 
        Potential amp.       -0.0034 Ry
        Total length         54.2615 bohr
 

     total cpu time spent up to now is      331.1 secs

     total energy              =   -7364.86016272 Ry
     estimated scf accuracy    <       0.10045632 Ry

     total magnetization       =    79.47 Bohr mag/cell
     absolute magnetization    =    81.30 Bohr mag/cell

     iteration # 24     ecut=    50.00 Ry     beta= 0.10
     Davidson diagonalization with overlap
     c_bands:  1 eigenvalues not converged
     ethr =  6.60E-06,  avg # of iterations = 12.5

     negative rho (up, down):  1.206E-04 2.266E-04
 
     Adding external electric field

     Computed dipole along edir(3) : 
        Dipole                0.0036 Ry au,          0.0092 Debye
        Dipole field          0.0000 Ry au, 
 
        Potential amp.       -0.0002 Ry
        Total length         54.2615 bohr
 
 
     Adding external electric field

     Computed dipole along edir(3) : 
        Dipole                0.0036 Ry au,          0.0092 Debye
        Dipole field          0.0000 Ry au, 
 
        Potential amp.       -0.0002 Ry
        Total length         54.2615 bohr
 

     total cpu time spent up to now is      348.6 secs

     total energy              =   -7364.86050678 Ry
     estimated scf accuracy    <       0.05397875 Ry

     total magnetization       =    80.18 Bohr mag/cell
     absolute magnetization    =    81.98 Bohr mag/cell

     iteration # 25     ecut=    50.00 Ry     beta= 0.10
     Davidson diagonalization with overlap
     ethr =  5.04E-06,  avg # of iterations =  3.5

     negative rho (up, down):  9.244E-05 1.611E-04
 
     Adding external electric field

     Computed dipole along edir(3) : 
        Dipole                0.0239 Ry au,          0.0607 Debye
        Dipole field          0.0000 Ry au, 
 
        Potential amp.       -0.0016 Ry
        Total length         54.2615 bohr
 
 
     Adding external electric field

     Computed dipole along edir(3) : 
        Dipole                0.0239 Ry au,          0.0607 Debye
        Dipole field          0.0000 Ry au, 
 
        Potential amp.       -0.0016 Ry
        Total length         54.2615 bohr
 

     total cpu time spent up to now is      362.0 secs

     total energy              =   -7364.86287386 Ry
     estimated scf accuracy    <       0.04023442 Ry

     total magnetization       =    79.98 Bohr mag/cell
     absolute magnetization    =    81.54 Bohr mag/cell

     iteration # 26     ecut=    50.00 Ry     beta= 0.10
     Davidson diagonalization with overlap
     ethr =  3.76E-06,  avg # of iterations =  2.0

     negative rho (up, down):  1.234E-03 1.546E-03
 
     Adding external electric field

     Computed dipole along edir(3) : 
        Dipole                0.0840 Ry au,          0.2136 Debye
        Dipole field          0.0001 Ry au, 
 
        Potential amp.       -0.0056 Ry
        Total length         54.2615 bohr
 
 
     Adding external electric field

     Computed dipole along edir(3) : 
        Dipole                0.0840 Ry au,          0.2136 Debye
        Dipole field          0.0001 Ry au, 
 
        Potential amp.       -0.0056 Ry
        Total length         54.2615 bohr
 

     total cpu time spent up to now is      373.2 secs

     total energy              =   -7364.86170361 Ry
     estimated scf accuracy    <       0.03181061 Ry

     total magnetization       =    80.14 Bohr mag/cell
     absolute magnetization    =    81.70 Bohr mag/cell

     iteration # 27     ecut=    50.00 Ry     beta= 0.10
     Davidson diagonalization with overlap
     ethr =  2.97E-06,  avg # of iterations =  2.0

     negative rho (up, down):  1.144E-04 1.714E-04
 
     Adding external electric field

     Computed dipole along edir(3) : 
        Dipole                0.0900 Ry au,          0.2286 Debye
        Dipole field          0.0001 Ry au, 
 
        Potential amp.       -0.0060 Ry
        Total length         54.2615 bohr
 
 
     Adding external electric field

     Computed dipole along edir(3) : 
        Dipole                0.0900 Ry au,          0.2286 Debye
        Dipole field          0.0001 Ry au, 
 
        Potential amp.       -0.0060 Ry
        Total length         54.2615 bohr
 

     total cpu time spent up to now is      385.7 secs

     total energy              =   -7364.86168733 Ry
     estimated scf accuracy    <       0.01213678 Ry

     total magnetization       =    79.80 Bohr mag/cell
     absolute magnetization    =    81.44 Bohr mag/cell

     iteration # 28     ecut=    50.00 Ry     beta= 0.10
     Davidson diagonalization with overlap
     ethr =  1.13E-06,  avg # of iterations = 33.0

     negative rho (up, down):  6.205E-04 6.211E-04
 
     Adding external electric field

     Computed dipole along edir(3) : 
        Dipole                0.0616 Ry au,          0.1566 Debye
        Dipole field          0.0000 Ry au, 
 
        Potential amp.       -0.0041 Ry
        Total length         54.2615 bohr
 
 
     Adding external electric field

     Computed dipole along edir(3) : 
        Dipole                0.0616 Ry au,          0.1566 Debye
        Dipole field          0.0000 Ry au, 
 
        Potential amp.       -0.0041 Ry
        Total length         54.2615 bohr
 

     total cpu time spent up to now is      423.5 secs

     total energy              =   -7364.86217404 Ry
     estimated scf accuracy    <       0.00834461 Ry

     total magnetization       =    79.44 Bohr mag/cell
     absolute magnetization    =    81.10 Bohr mag/cell

     iteration # 29     ecut=    50.00 Ry     beta= 0.10
     Davidson diagonalization with overlap
     ethr =  7.79E-07,  avg # of iterations =  2.0

     negative rho (up, down):  3.300E-05 1.831E-05
 
     Adding external electric field

     Computed dipole along edir(3) : 
        Dipole                0.0612 Ry au,          0.1556 Debye
        Dipole field          0.0000 Ry au, 
 
        Potential amp.       -0.0041 Ry
        Total length         54.2615 bohr
 
 
     Adding external electric field

     Computed dipole along edir(3) : 
        Dipole                0.0612 Ry au,          0.1556 Debye
        Dipole field          0.0000 Ry au, 
 
        Potential amp.       -0.0041 Ry
        Total length         54.2615 bohr
 

     total cpu time spent up to now is      435.7 secs

     total energy              =   -7364.86243311 Ry
     estimated scf accuracy    <       0.00333533 Ry

     total magnetization       =    79.71 Bohr mag/cell
     absolute magnetization    =    81.25 Bohr mag/cell

     iteration # 30     ecut=    50.00 Ry     beta= 0.10
     Davidson diagonalization with overlap
     ethr =  3.11E-07,  avg # of iterations =  1.5

     negative rho (up, down):  5.289E-06 3.776E-06
 
     Adding external electric field

     Computed dipole along edir(3) : 
        Dipole                0.0742 Ry au,          0.1887 Debye
        Dipole field          0.0000 Ry au, 
 
        Potential amp.       -0.0050 Ry
        Total length         54.2615 bohr
 
 
     Adding external electric field

     Computed dipole along edir(3) : 
        Dipole                0.0742 Ry au,          0.1887 Debye
        Dipole field          0.0000 Ry au, 
 
        Potential amp.       -0.0050 Ry
        Total length         54.2615 bohr
 

     total cpu time spent up to now is      447.2 secs

     total energy              =   -7364.86244720 Ry
     estimated scf accuracy    <       0.00636783 Ry

     total magnetization       =    79.56 Bohr mag/cell
     absolute magnetization    =    81.05 Bohr mag/cell

     iteration # 31     ecut=    50.00 Ry     beta= 0.10
     Davidson diagonalization with overlap
     ethr =  3.11E-07,  avg # of iterations =  2.0

     negative rho (up, down):  1.950E-05 1.989E-05
 
     Adding external electric field

     Computed dipole along edir(3) : 
        Dipole                0.0977 Ry au,          0.2483 Debye
        Dipole field          0.0001 Ry au, 
 
        Potential amp.       -0.0066 Ry
        Total length         54.2615 bohr
 
 
     Adding external electric field

     Computed dipole along edir(3) : 
        Dipole                0.0977 Ry au,          0.2483 Debye
        Dipole field          0.0001 Ry au, 
 
        Potential amp.       -0.0066 Ry
        Total length         54.2615 bohr
 

     total cpu time spent up to now is      459.2 secs

     total energy              =   -7364.86240970 Ry
     estimated scf accuracy    <       0.00241614 Ry

     total magnetization       =    79.60 Bohr mag/cell
     absolute magnetization    =    81.06 Bohr mag/cell

     iteration # 32     ecut=    50.00 Ry     beta= 0.10
     Davidson diagonalization with overlap
     ethr =  2.26E-07,  avg # of iterations =  2.0

     negative rho (up, down):  4.588E-06 2.471E-06
 
     Adding external electric field

     Computed dipole along edir(3) : 
        Dipole                0.0890 Ry au,          0.2262 Debye
        Dipole field          0.0001 Ry au, 
 
        Potential amp.       -0.0060 Ry
        Total length         54.2615 bohr
 
 
     Adding external electric field

     Computed dipole along edir(3) : 
        Dipole                0.0890 Ry au,          0.2262 Debye
        Dipole field          0.0001 Ry au, 
 
        Potential amp.       -0.0060 Ry
        Total length         54.2615 bohr
 

     total cpu time spent up to now is      471.9 secs

     total energy              =   -7364.86240596 Ry
     estimated scf accuracy    <       0.00238958 Ry

     total magnetization       =    79.63 Bohr mag/cell
     absolute magnetization    =    81.09 Bohr mag/cell

     iteration # 33     ecut=    50.00 Ry     beta= 0.10
     Davidson diagonalization with overlap
     ethr =  2.23E-07,  avg # of iterations =  2.0

     negative rho (up, down):  2.543E-05 1.321E-05
 
     Adding external electric field

     Computed dipole along edir(3) : 
        Dipole                0.1051 Ry au,          0.2673 Debye
        Dipole field          0.0001 Ry au, 
 
        Potential amp.       -0.0071 Ry
        Total length         54.2615 bohr
 
 
     Adding external electric field

     Computed dipole along edir(3) : 
        Dipole                0.1051 Ry au,          0.2673 Debye
        Dipole field          0.0001 Ry au, 
 
        Potential amp.       -0.0071 Ry
        Total length         54.2615 bohr
 

     total cpu time spent up to now is      483.8 secs

     total energy              =   -7364.86240954 Ry
     estimated scf accuracy    <       0.00120905 Ry

     total magnetization       =    79.72 Bohr mag/cell
     absolute magnetization    =    81.16 Bohr mag/cell

     iteration # 34     ecut=    50.00 Ry     beta= 0.10
     Davidson diagonalization with overlap
     ethr =  1.13E-07,  avg # of iterations =  2.0

     negative rho (up, down):  1.214E-05 4.168E-06
 
     Adding external electric field

     Computed dipole along edir(3) : 
        Dipole                0.1034 Ry au,          0.2627 Debye
        Dipole field          0.0001 Ry au, 
 
        Potential amp.       -0.0069 Ry
        Total length         54.2615 bohr
 
 
     Adding external electric field

     Computed dipole along edir(3) : 
        Dipole                0.1034 Ry au,          0.2627 Debye
        Dipole field          0.0001 Ry au, 
 
        Potential amp.       -0.0069 Ry
        Total length         54.2615 bohr
 

     total cpu time spent up to now is      495.9 secs

     total energy              =   -7364.86246851 Ry
     estimated scf accuracy    <       0.00114429 Ry

     total magnetization       =    79.62 Bohr mag/cell
     absolute magnetization    =    81.09 Bohr mag/cell

     iteration # 35     ecut=    50.00 Ry     beta= 0.10
     Davidson diagonalization with overlap
     ethr =  1.07E-07,  avg # of iterations =  1.0

     negative rho (up, down):  2.817E-06 2.324E-07
 
     Adding external electric field

     Computed dipole along edir(3) : 
        Dipole                0.1041 Ry au,          0.2646 Debye
        Dipole field          0.0001 Ry au, 
 
        Potential amp.       -0.0070 Ry
        Total length         54.2615 bohr
 
 
     Adding external electric field

     Computed dipole along edir(3) : 
        Dipole                0.1041 Ry au,          0.2646 Debye
        Dipole field          0.0001 Ry au, 
 
        Potential amp.       -0.0070 Ry
        Total length         54.2615 bohr
 

     total cpu time spent up to now is      507.0 secs

     total energy              =   -7364.86241839 Ry
     estimated scf accuracy    <       0.00075518 Ry

     total magnetization       =    79.65 Bohr mag/cell
     absolute magnetization    =    81.13 Bohr mag/cell

     iteration # 36     ecut=    50.00 Ry     beta= 0.10
     Davidson diagonalization with overlap
     ethr =  7.05E-08,  avg # of iterations =  2.0

     negative rho (up, down):  2.486E-06 1.833E-07
 
     Adding external electric field

     Computed dipole along edir(3) : 
        Dipole                0.1061 Ry au,          0.2697 Debye
        Dipole field          0.0001 Ry au, 
 
        Potential amp.       -0.0071 Ry
        Total length         54.2615 bohr
 
 
     Adding external electric field

     Computed dipole along edir(3) : 
        Dipole                0.1061 Ry au,          0.2697 Debye
        Dipole field          0.0001 Ry au, 
 
        Potential amp.       -0.0071 Ry
        Total length         54.2615 bohr
 

     total cpu time spent up to now is      519.4 secs

     total energy              =   -7364.86241590 Ry
     estimated scf accuracy    <       0.00044504 Ry

     total magnetization       =    79.67 Bohr mag/cell
     absolute magnetization    =    81.16 Bohr mag/cell

     iteration # 37     ecut=    50.00 Ry     beta= 0.10
     Davidson diagonalization with overlap
     ethr =  4.16E-08,  avg # of iterations =  1.0

     negative rho (up, down):  2.181E-06 1.648E-07
 
     Adding external electric field

     Computed dipole along edir(3) : 
        Dipole                0.1073 Ry au,          0.2728 Debye
        Dipole field          0.0001 Ry au, 
 
        Potential amp.       -0.0072 Ry
        Total length         54.2615 bohr
 
 
     Adding external electric field

     Computed dipole along edir(3) : 
        Dipole                0.1073 Ry au,          0.2728 Debye
        Dipole field          0.0001 Ry au, 
 
        Potential amp.       -0.0072 Ry
        Total length         54.2615 bohr
 

     total cpu time spent up to now is      530.3 secs

     total energy              =   -7364.86242438 Ry
     estimated scf accuracy    <       0.00041623 Ry

     total magnetization       =    79.68 Bohr mag/cell
     absolute magnetization    =    81.16 Bohr mag/cell

     iteration # 38     ecut=    50.00 Ry     beta= 0.10
     Davidson diagonalization with overlap
     ethr =  3.89E-08,  avg # of iterations =  2.0

     negative rho (up, down):  3.658E-06 5.415E-07
 
     Adding external electric field

     Computed dipole along edir(3) : 
        Dipole                0.1172 Ry au,          0.2979 Debye
        Dipole field          0.0001 Ry au, 
 
        Potential amp.       -0.0079 Ry
        Total length         54.2615 bohr
 
 
     Adding external electric field

     Computed dipole along edir(3) : 
        Dipole                0.1172 Ry au,          0.2979 Debye
        Dipole field          0.0001 Ry au, 
 
        Potential amp.       -0.0079 Ry
        Total length         54.2615 bohr
 

     total cpu time spent up to now is      541.8 secs

     total energy              =   -7364.86247076 Ry
     estimated scf accuracy    <       0.00036707 Ry

     total magnetization       =    79.68 Bohr mag/cell
     absolute magnetization    =    81.17 Bohr mag/cell

     iteration # 39     ecut=    50.00 Ry     beta= 0.10
     Davidson diagonalization with overlap
     ethr =  3.43E-08,  avg # of iterations =  1.0

     negative rho (up, down):  3.852E-06 5.979E-07
 
     Adding external electric field

     Computed dipole along edir(3) : 
        Dipole                0.1195 Ry au,          0.3037 Debye
        Dipole field          0.0001 Ry au, 
 
        Potential amp.       -0.0080 Ry
        Total length         54.2615 bohr
 
 
     Adding external electric field

     Computed dipole along edir(3) : 
        Dipole                0.1195 Ry au,          0.3037 Debye
        Dipole field          0.0001 Ry au, 
 
        Potential amp.       -0.0080 Ry
        Total length         54.2615 bohr
 

     total cpu time spent up to now is      553.0 secs

     total energy              =   -7364.86248672 Ry
     estimated scf accuracy    <       0.00033373 Ry

     total magnetization       =    79.67 Bohr mag/cell
     absolute magnetization    =    81.17 Bohr mag/cell

     iteration # 40     ecut=    50.00 Ry     beta= 0.10
     Davidson diagonalization with overlap
     ethr =  3.12E-08,  avg # of iterations =  1.5

     negative rho (up, down):  3.538E-06 3.305E-07
 
     Adding external electric field

     Computed dipole along edir(3) : 
        Dipole                0.1240 Ry au,          0.3151 Debye
        Dipole field          0.0001 Ry au, 
 
        Potential amp.       -0.0083 Ry
        Total length         54.2615 bohr
 
 
     Adding external electric field

     Computed dipole along edir(3) : 
        Dipole                0.1240 Ry au,          0.3151 Debye
        Dipole field          0.0001 Ry au, 
 
        Potential amp.       -0.0083 Ry
        Total length         54.2615 bohr
 

     total cpu time spent up to now is      565.0 secs

     total energy              =   -7364.86250763 Ry
     estimated scf accuracy    <       0.00031553 Ry

     total magnetization       =    79.67 Bohr mag/cell
     absolute magnetization    =    81.18 Bohr mag/cell

     iteration # 41     ecut=    50.00 Ry     beta= 0.10
     Davidson diagonalization with overlap
     ethr =  2.95E-08,  avg # of iterations =  1.0

     negative rho (up, down):  1.305E-05 1.779E-06
 
     Adding external electric field

     Computed dipole along edir(3) : 
        Dipole                0.1367 Ry au,          0.3476 Debye
        Dipole field          0.0001 Ry au, 
 
        Potential amp.       -0.0092 Ry
        Total length         54.2615 bohr
 
 
     Adding external electric field

     Computed dipole along edir(3) : 
        Dipole                0.1367 Ry au,          0.3476 Debye
        Dipole field          0.0001 Ry au, 
 
        Potential amp.       -0.0092 Ry
        Total length         54.2615 bohr
 

     total cpu time spent up to now is      576.1 secs

     total energy              =   -7364.86252507 Ry
     estimated scf accuracy    <       0.00028237 Ry

     total magnetization       =    79.68 Bohr mag/cell
     absolute magnetization    =    81.19 Bohr mag/cell

     iteration # 42     ecut=    50.00 Ry     beta= 0.10
     Davidson diagonalization with overlap
     ethr =  2.64E-08,  avg # of iterations =  2.0

     negative rho (up, down):  1.787E-05 2.971E-06
 
     Adding external electric field

     Computed dipole along edir(3) : 
        Dipole                0.1396 Ry au,          0.3548 Debye
        Dipole field          0.0001 Ry au, 
 
        Potential amp.       -0.0094 Ry
        Total length         54.2615 bohr
 
 
     Adding external electric field

     Computed dipole along edir(3) : 
        Dipole                0.1396 Ry au,          0.3548 Debye
        Dipole field          0.0001 Ry au, 
 
        Potential amp.       -0.0094 Ry
        Total length         54.2615 bohr
 

     total cpu time spent up to now is      588.0 secs

     total energy              =   -7364.86253120 Ry
     estimated scf accuracy    <       0.00027907 Ry

     total magnetization       =    79.68 Bohr mag/cell
     absolute magnetization    =    81.21 Bohr mag/cell

     iteration # 43     ecut=    50.00 Ry     beta= 0.10
     Davidson diagonalization with overlap
     ethr =  2.61E-08,  avg # of iterations =  1.0

     negative rho (up, down):  1.773E-05 2.853E-06
 
     Adding external electric field

     Computed dipole along edir(3) : 
        Dipole                0.1393 Ry au,          0.3540 Debye
        Dipole field          0.0001 Ry au, 
 
        Potential amp.       -0.0093 Ry
        Total length         54.2615 bohr
 
 
     Adding external electric field

     Computed dipole along edir(3) : 
        Dipole                0.1393 Ry au,          0.3540 Debye
        Dipole field          0.0001 Ry au, 
 
        Potential amp.       -0.0093 Ry
        Total length         54.2615 bohr
 

     total cpu time spent up to now is      599.4 secs

     total energy              =   -7364.86253148 Ry
     estimated scf accuracy    <       0.00026116 Ry

     total magnetization       =    79.68 Bohr mag/cell
     absolute magnetization    =    81.21 Bohr mag/cell

     iteration # 44     ecut=    50.00 Ry     beta= 0.10
     Davidson diagonalization with overlap
     ethr =  2.44E-08,  avg # of iterations =  1.0

     negative rho (up, down):  2.248E-05 5.257E-06
 
     Adding external electric field

     Computed dipole along edir(3) : 
        Dipole                0.1408 Ry au,          0.3580 Debye
        Dipole field          0.0001 Ry au, 
 
        Potential amp.       -0.0095 Ry
        Total length         54.2615 bohr
 
 
     Adding external electric field

     Computed dipole along edir(3) : 
        Dipole                0.1408 Ry au,          0.3580 Debye
        Dipole field          0.0001 Ry au, 
 
        Potential amp.       -0.0095 Ry
        Total length         54.2615 bohr
 

     total cpu time spent up to now is      609.5 secs

     total energy              =   -7364.86252385 Ry
     estimated scf accuracy    <       0.00026565 Ry

     total magnetization       =    79.68 Bohr mag/cell
     absolute magnetization    =    81.21 Bohr mag/cell

     iteration # 45     ecut=    50.00 Ry     beta= 0.10
     Davidson diagonalization with overlap
     ethr =  2.44E-08,  avg # of iterations =  2.0

     negative rho (up, down):  2.470E-05 6.151E-06
 
     Adding external electric field

     Computed dipole along edir(3) : 
        Dipole                0.1416 Ry au,          0.3599 Debye
        Dipole field          0.0001 Ry au, 
 
        Potential amp.       -0.0095 Ry
        Total length         54.2615 bohr
 
 
     Adding external electric field

     Computed dipole along edir(3) : 
        Dipole                0.1416 Ry au,          0.3599 Debye
        Dipole field          0.0001 Ry au, 
 
        Potential amp.       -0.0095 Ry
        Total length         54.2615 bohr
 

     total cpu time spent up to now is      621.1 secs

     total energy              =   -7364.86251632 Ry
     estimated scf accuracy    <       0.00024412 Ry

     total magnetization       =    79.68 Bohr mag/cell
     absolute magnetization    =    81.21 Bohr mag/cell

     iteration # 46     ecut=    50.00 Ry     beta= 0.10
     Davidson diagonalization with overlap
     ethr =  2.28E-08,  avg # of iterations =  1.0

     negative rho (up, down):  2.074E-05 4.117E-06
 
     Adding external electric field

     Computed dipole along edir(3) : 
        Dipole                0.1424 Ry au,          0.3619 Debye
        Dipole field          0.0001 Ry au, 
 
        Potential amp.       -0.0096 Ry
        Total length         54.2615 bohr
 
 
     Adding external electric field

     Computed dipole along edir(3) : 
        Dipole                0.1424 Ry au,          0.3619 Debye
        Dipole field          0.0001 Ry au, 
 
        Potential amp.       -0.0096 Ry
        Total length         54.2615 bohr
 

     total cpu time spent up to now is      631.1 secs

     total energy              =   -7364.86252554 Ry
     estimated scf accuracy    <       0.00023934 Ry

     total magnetization       =    79.68 Bohr mag/cell
     absolute magnetization    =    81.22 Bohr mag/cell

     iteration # 47     ecut=    50.00 Ry     beta= 0.10
     Davidson diagonalization with overlap
     ethr =  2.23E-08,  avg # of iterations =  2.0

     negative rho (up, down):  2.325E-05 4.239E-06
 
     Adding external electric field

     Computed dipole along edir(3) : 
        Dipole                0.1475 Ry au,          0.3750 Debye
        Dipole field          0.0001 Ry au, 
 
        Potential amp.       -0.0099 Ry
        Total length         54.2615 bohr
 
 
     Adding external electric field

     Computed dipole along edir(3) : 
        Dipole                0.1475 Ry au,          0.3750 Debye
        Dipole field          0.0001 Ry au, 
 
        Potential amp.       -0.0099 Ry
        Total length         54.2615 bohr
 

     total cpu time spent up to now is      643.5 secs

     total energy              =   -7364.86252832 Ry
     estimated scf accuracy    <       0.00022358 Ry

     total magnetization       =    79.68 Bohr mag/cell
     absolute magnetization    =    81.21 Bohr mag/cell

     iteration # 48     ecut=    50.00 Ry     beta= 0.10
     Davidson diagonalization with overlap
     ethr =  2.09E-08,  avg # of iterations =  1.0

     negative rho (up, down):  2.686E-05 4.991E-06
 
     Adding external electric field

     Computed dipole along edir(3) : 
        Dipole                0.1558 Ry au,          0.3959 Debye
        Dipole field          0.0001 Ry au, 
 
        Potential amp.       -0.0105 Ry
        Total length         54.2615 bohr
 
 
     Adding external electric field

     Computed dipole along edir(3) : 
        Dipole                0.1558 Ry au,          0.3959 Debye
        Dipole field          0.0001 Ry au, 
 
        Potential amp.       -0.0105 Ry
        Total length         54.2615 bohr
 

     total cpu time spent up to now is      654.1 secs

     total energy              =   -7364.86253005 Ry
     estimated scf accuracy    <       0.00020621 Ry

     total magnetization       =    79.68 Bohr mag/cell
     absolute magnetization    =    81.21 Bohr mag/cell

     iteration # 49     ecut=    50.00 Ry     beta= 0.10
     Davidson diagonalization with overlap
     ethr =  1.93E-08,  avg # of iterations =  2.0

     negative rho (up, down):  5.484E-05 1.105E-05
 
     Adding external electric field

     Computed dipole along edir(3) : 
        Dipole                0.1657 Ry au,          0.4211 Debye
        Dipole field          0.0001 Ry au, 
 
        Potential amp.       -0.0111 Ry
        Total length         54.2615 bohr
 
 
     Adding external electric field

     Computed dipole along edir(3) : 
        Dipole                0.1657 Ry au,          0.4211 Debye
        Dipole field          0.0001 Ry au, 
 
        Potential amp.       -0.0111 Ry
        Total length         54.2615 bohr
 

     total cpu time spent up to now is      666.5 secs

     total energy              =   -7364.86255576 Ry
     estimated scf accuracy    <       0.00017572 Ry

     total magnetization       =    79.67 Bohr mag/cell
     absolute magnetization    =    81.20 Bohr mag/cell

     iteration # 50     ecut=    50.00 Ry     beta= 0.10
     Davidson diagonalization with overlap
     ethr =  1.64E-08,  avg # of iterations =  1.0

     negative rho (up, down):  6.633E-05 1.487E-05
 
     Adding external electric field

     Computed dipole along edir(3) : 
        Dipole                0.1690 Ry au,          0.4295 Debye
        Dipole field          0.0001 Ry au, 
 
        Potential amp.       -0.0113 Ry
        Total length         54.2615 bohr
 
 
     Adding external electric field

     Computed dipole along edir(3) : 
        Dipole                0.1690 Ry au,          0.4295 Debye
        Dipole field          0.0001 Ry au, 
 
        Potential amp.       -0.0113 Ry
        Total length         54.2615 bohr
 

     total cpu time spent up to now is      677.1 secs

     total energy              =   -7364.86256067 Ry
     estimated scf accuracy    <       0.00015017 Ry

     total magnetization       =    79.67 Bohr mag/cell
     absolute magnetization    =    81.18 Bohr mag/cell

     iteration # 51     ecut=    50.00 Ry     beta= 0.10
     Davidson diagonalization with overlap
     ethr =  1.40E-08,  avg # of iterations =  1.5

     negative rho (up, down):  7.618E-05 1.646E-05
 
     Adding external electric field

     Computed dipole along edir(3) : 
        Dipole                0.1727 Ry au,          0.4391 Debye
        Dipole field          0.0001 Ry au, 
 
        Potential amp.       -0.0116 Ry
        Total length         54.2615 bohr
 
 
     Adding external electric field

     Computed dipole along edir(3) : 
        Dipole                0.1727 Ry au,          0.4391 Debye
        Dipole field          0.0001 Ry au, 
 
        Potential amp.       -0.0116 Ry
        Total length         54.2615 bohr
 

     total cpu time spent up to now is      688.5 secs

     total energy              =   -7364.86256107 Ry
     estimated scf accuracy    <       0.00013589 Ry

     total magnetization       =    79.67 Bohr mag/cell
     absolute magnetization    =    81.18 Bohr mag/cell

     iteration # 52     ecut=    50.00 Ry     beta= 0.10
     Davidson diagonalization with overlap
     ethr =  1.27E-08,  avg # of iterations =  1.0

     negative rho (up, down):  1.078E-04 1.946E-05
 
     Adding external electric field

     Computed dipole along edir(3) : 
        Dipole                0.1746 Ry au,          0.4437 Debye
        Dipole field          0.0001 Ry au, 
 
        Potential amp.       -0.0117 Ry
        Total length         54.2615 bohr
 
 
     Adding external electric field

     Computed dipole along edir(3) : 
        Dipole                0.1746 Ry au,          0.4437 Debye
        Dipole field          0.0001 Ry au, 
 
        Potential amp.       -0.0117 Ry
        Total length         54.2615 bohr
 

     total cpu time spent up to now is      699.6 secs

     total energy              =   -7364.86258268 Ry
     estimated scf accuracy    <       0.00010810 Ry

     total magnetization       =    79.67 Bohr mag/cell
     absolute magnetization    =    81.17 Bohr mag/cell

     iteration # 53     ecut=    50.00 Ry     beta= 0.10
     Davidson diagonalization with overlap
     ethr =  1.01E-08,  avg # of iterations =  2.0

     negative rho (up, down):  1.742E-04 5.010E-05
 
     Adding external electric field

     Computed dipole along edir(3) : 
        Dipole                0.1748 Ry au,          0.4444 Debye
        Dipole field          0.0001 Ry au, 
 
        Potential amp.       -0.0117 Ry
        Total length         54.2615 bohr
 
 
     Adding external electric field

     Computed dipole along edir(3) : 
        Dipole                0.1748 Ry au,          0.4444 Debye
        Dipole field          0.0001 Ry au, 
 
        Potential amp.       -0.0117 Ry
        Total length         54.2615 bohr
 

     total cpu time spent up to now is      711.5 secs

     total energy              =   -7364.86258750 Ry
     estimated scf accuracy    <       0.00007832 Ry

     total magnetization       =    79.67 Bohr mag/cell
     absolute magnetization    =    81.17 Bohr mag/cell

     iteration # 54     ecut=    50.00 Ry     beta= 0.10
     Davidson diagonalization with overlap
     ethr =  7.31E-09,  avg # of iterations =  1.0

     negative rho (up, down):  1.836E-04 5.188E-05
 
     Adding external electric field

     Computed dipole along edir(3) : 
        Dipole                0.1713 Ry au,          0.4354 Debye
        Dipole field          0.0001 Ry au, 
 
        Potential amp.       -0.0115 Ry
        Total length         54.2615 bohr
 
 
     Adding external electric field

     Computed dipole along edir(3) : 
        Dipole                0.1713 Ry au,          0.4354 Debye
        Dipole field          0.0001 Ry au, 
 
        Potential amp.       -0.0115 Ry
        Total length         54.2615 bohr
 

     total cpu time spent up to now is      722.3 secs

     total energy              =   -7364.86258983 Ry
     estimated scf accuracy    <       0.00005943 Ry

     total magnetization       =    79.67 Bohr mag/cell
     absolute magnetization    =    81.17 Bohr mag/cell

     iteration # 55     ecut=    50.00 Ry     beta= 0.10
     Davidson diagonalization with overlap
     ethr =  5.55E-09,  avg # of iterations =  2.0

     negative rho (up, down):  3.697E-04 1.975E-04
 
     Adding external electric field

     Computed dipole along edir(3) : 
        Dipole                0.1729 Ry au,          0.4395 Debye
        Dipole field          0.0001 Ry au, 
 
        Potential amp.       -0.0116 Ry
        Total length         54.2615 bohr
 
 
     Adding external electric field

     Computed dipole along edir(3) : 
        Dipole                0.1729 Ry au,          0.4395 Debye
        Dipole field          0.0001 Ry au, 
 
        Potential amp.       -0.0116 Ry
        Total length         54.2615 bohr
 

     total cpu time spent up to now is      734.3 secs

     total energy              =   -7364.86258992 Ry
     estimated scf accuracy    <       0.00005223 Ry

     total magnetization       =    79.67 Bohr mag/cell
     absolute magnetization    =    81.17 Bohr mag/cell

     iteration # 56     ecut=    50.00 Ry     beta= 0.10
     Davidson diagonalization with overlap
     ethr =  4.88E-09,  avg # of iterations =  1.0

     negative rho (up, down):  5.337E-04 2.824E-04
 
     Adding external electric field

     Computed dipole along edir(3) : 
        Dipole                0.1770 Ry au,          0.4500 Debye
        Dipole field          0.0001 Ry au, 
 
        Potential amp.       -0.0119 Ry
        Total length         54.2615 bohr
 
 
     Adding external electric field

     Computed dipole along edir(3) : 
        Dipole                0.1770 Ry au,          0.4500 Debye
        Dipole field          0.0001 Ry au, 
 
        Potential amp.       -0.0119 Ry
        Total length         54.2615 bohr
 

     total cpu time spent up to now is      745.1 secs

     total energy              =   -7364.86259985 Ry
     estimated scf accuracy    <       0.00003987 Ry

     total magnetization       =    79.67 Bohr mag/cell
     absolute magnetization    =    81.17 Bohr mag/cell

     iteration # 57     ecut=    50.00 Ry     beta= 0.10
     Davidson diagonalization with overlap
     ethr =  3.72E-09,  avg # of iterations =  2.0

     negative rho (up, down):  6.604E-04 3.150E-04
 
     Adding external electric field

     Computed dipole along edir(3) : 
        Dipole                0.1787 Ry au,          0.4541 Debye
        Dipole field          0.0001 Ry au, 
 
        Potential amp.       -0.0120 Ry
        Total length         54.2615 bohr
 
 
     Adding external electric field

     Computed dipole along edir(3) : 
        Dipole                0.1787 Ry au,          0.4541 Debye
        Dipole field          0.0001 Ry au, 
 
        Potential amp.       -0.0120 Ry
        Total length         54.2615 bohr
 

     total cpu time spent up to now is      756.9 secs

     total energy              =   -7364.86260510 Ry
     estimated scf accuracy    <       0.00002066 Ry

     total magnetization       =    79.67 Bohr mag/cell
     absolute magnetization    =    81.18 Bohr mag/cell

     iteration # 58     ecut=    50.00 Ry     beta= 0.10
     Davidson diagonalization with overlap
     ethr =  1.93E-09,  avg # of iterations =  2.0

     negative rho (up, down):  9.633E-04 5.938E-04
 
     Adding external electric field

     Computed dipole along edir(3) : 
[...]
     atom   95 type  4   force =    -0.00504976    0.01240656    0.00742450
     atom   96 type  4   force =     0.00411131    0.00525321    0.00990257
     atom   97 type  4   force =     0.00003622    0.00030128    0.00084082
     atom   98 type  4   force =     0.04002054   -0.14127318   -0.00431594
     atom   99 type  4   force =    -0.06671560    0.00004105    0.00652704
     atom  100 type  4   force =    -0.00147205    0.00334532   -0.00232753
     atom  101 type  4   force =    -0.00007198    0.00080364   -0.00062755
     atom  102 type  4   force =    -0.00605997    0.00403168   -0.00064726
     atom  103 type  4   force =    -0.04026803    0.13343276    0.00446411
     atom  104 type  4   force =    -0.00700303   -0.00983512   -0.00503873
     atom  105 type  2   force =     0.00410680   -0.00656974   -0.01829945
     atom  106 type  1   force =     0.02816476    0.01427300    0.01160055
     atom  107 type  1   force =     0.00870136   -0.00612262   -0.01414404
     atom  108 type  1   force =    -0.02839070    0.02166998    0.01862241
     atom  109 type  1   force =     0.00507239    0.01611392    0.00938182
     atom  110 type  1   force =    -0.00255801   -0.00878251   -0.00681017
     atom  111 type  1   force =    -0.00087153   -0.00950756   -0.01160271
     atom  112 type  1   force =     0.02918328    0.01753777    0.01130515
     atom  113 type  1   force =    -0.00070103   -0.00497212   -0.01398018
     atom  114 type  1   force =    -0.02963391    0.02072482    0.01842011
     atom  115 type  1   force =    -0.00719243    0.01852469    0.01211023
     atom  116 type  1   force =    -0.00556922   -0.00439320   -0.00299814
     atom  117 type  3   force =     0.01420903   -0.17395773   -0.10884031
     atom  118 type  3   force =     0.00510277   -0.00842745   -0.01292786
     atom  119 type  3   force =    -0.04466233    0.12474291   -0.00216566
     atom  120 type  3   force =     0.09508194   -0.04106257   -0.07981595
     atom  121 type  4   force =     0.00610990   -0.01704401    0.03719103
     atom  122 type  4   force =    -0.00339052    0.00358763    0.00454070
     atom  123 type  4   force =    -0.00086734    0.00260750   -0.00276390
     atom  124 type  4   force =     0.00847183    0.00216099    0.02704538
     atom  125 type  4   force =     0.00988374   -0.01690141    0.01590779
     atom  126 type  4   force =    -0.00739076    0.00094462   -0.00288720
     atom  127 type  4   force =     0.00397486    0.00976114    0.00067357
     atom  128 type  4   force =    -0.00062908   -0.00108718    0.03016706
     atom  129 type  4   force =    -0.00764718    0.02551256    0.00120382
     atom  130 type  4   force =     0.04342510   -0.14575924   -0.00182241
     atom  131 type  4   force =    -0.01743774   -0.00039272    0.00287801
     atom  132 type  4   force =     0.00341032    0.00269663    0.00208366
     atom  133 type  4   force =     0.06960327    0.00359497   -0.00184578
     atom  134 type  4   force =     0.00096310    0.00360771    0.00282061
     atom  135 type  4   force =    -0.02757803    0.17226552    0.00607363
     atom  136 type  4   force =     0.01961320   -0.00859930    0.00402177
     atom  137 type  3   force =     0.00907596   -0.16688767   -0.09435646
     atom  138 type  3   force =    -0.06455667   -0.00211586   -0.00521513
     atom  139 type  3   force =    -0.04875329    0.11817073    0.00122533
     atom  140 type  3   force =     0.03144880   -0.04322451   -0.07378219
     atom  141 type  4   force =     0.00467781   -0.01331779    0.03219264
     atom  142 type  4   force =    -0.00543336   -0.00033856    0.00439160
     atom  143 type  4   force =    -0.00822267    0.00811245   -0.00340808
     atom  144 type  4   force =     0.00381965    0.00135968    0.02765251
     atom  145 type  4   force =     0.00692116   -0.01299439    0.03232392
     atom  146 type  4   force =    -0.00876161   -0.00176178   -0.00287826
     atom  147 type  4   force =     0.00031634    0.00994026    0.00286386
     atom  148 type  4   force =    -0.00791680    0.00121511    0.02907960
     atom  149 type  4   force =    -0.01314829    0.02941433    0.00050992
     atom  150 type  4   force =     0.03977876   -0.13829568   -0.00130262
     atom  151 type  4   force =    -0.08618699   -0.00173052    0.00917690
     atom  152 type  4   force =     0.00124362    0.00391811    0.00151975
     atom  153 type  4   force =    -0.00351449    0.00084153    0.00305253
     atom  154 type  4   force =    -0.00589799    0.00598366    0.00141721
     atom  155 type  4   force =    -0.02798195    0.16646567    0.00485766
     atom  156 type  4   force =     0.01058474   -0.00971167   -0.00135460

     Total force =     0.004574     Total SCF correction =     0.000367
     Energy error            =      3.3E-05 Ry
     Gradient error          =      8.3E-04 Ry/Bohr

     bfgs converged in  31 scf cycles and  30 bfgs steps
     (criteria: energy <  1.0E-04 Ry, force <  1.0E-03 Ry/Bohr)

     End of BFGS Geometry Optimization

     Final energy             =   -7364.9815090911 Ry

     File ./tmp/pwscf.bfgs deleted, as requested
Begin final coordinates

ATOMIC_POSITIONS (angstrom)
Mn               2.3541076927        7.8364829124       15.9066895071
Ni               4.6592915025        7.2346416553       12.8337302279
Ni              -0.0154891551        2.7762280442       15.7027910772
Ni               2.4392792351        2.2250768239       12.8149564333
Ni               9.3236625095       10.0749865614       14.3807195687
Ni               2.4069025723        5.0219530994       14.3578632625
Ni               7.0660473212        7.8105965907       15.7025930018
Ni               9.2944437931        7.2450112378       12.8499248513
Ni               4.6969121921        2.7690972737       15.6985609806
Ni               7.1232670223        2.2070193569       12.8037420018
Ni               4.6570687988       10.0612814949       14.3738107258
Ni               7.0897886096        5.0053623351       14.3394512204
P                1.9635866839        9.0999057633       12.9333411968
P                4.4118695433        6.0239428203       15.8290386931
P                2.6668255169        1.0785760406       15.8830753080
P                0.4172421686        4.0465115772       12.8456911237
O                1.2498433824        8.4326782398       14.2084168035
O                3.6775134931        6.6074555268       14.4945858064
O                3.4085743473        1.5919745014       14.5069359290
O                1.1437126074        3.3856856600       14.1255233521
O                1.3839020794        8.2588594995       11.7695794793
O                3.8587951917        6.9244019396       16.9370479828
O                3.2266819339        2.0062964695       16.9458109409
O                0.9791797937        3.2253146503       11.6601072923
O                0.9720433555        5.5018588045       12.8866042298
O                3.1825174845        9.6708929489       15.9235800024
O                3.5694266592        3.9807886201       12.9549236214
O                1.1205902063        1.0801714402       15.7482680178
O                1.2277844357        6.0677800392       15.7594678184
O                3.8672370602        4.5594494315       15.8348189353
O                1.4115961402        0.4725816026       12.9268066293
O                3.4991833669        9.0130632871       13.0117969782
P                6.6457149604        9.0901868468       12.8587379564
P                9.0425774461        6.0363371892       15.8667181794
P                7.3521761256        1.0210016102       15.8642390061
P                5.1051860596        4.0340286840       12.8341666289
O                5.9181210901        8.4180655828       14.1334671237
O                8.3311694026        6.6116459215       14.4979611457
O                8.0831595745        1.5888243159       14.4969822968
O                5.8312551440        3.3633789019       14.1091385381
O                6.0837546681        8.2635147328       11.6742273917
O                8.4979524796        6.9660081382       16.9407762599
O                7.9121024742        1.9392535530       16.9380247691
O                5.6712000451        3.2070481233       11.6528098239
O                5.6749676263        5.4833559931       12.8677278371
O                7.8836514172        9.6205354551       15.8568663874
O                8.2484949557        3.9744772166       12.9570831902
O                5.8042939225        1.0419298591       15.7347061861
O                5.9537635555        6.0671990581       15.7146260507
O                8.5116138476        4.5658910506       15.8465146562
O                6.0822466224        0.4622362788       12.8890198761
O                8.1811428944        9.0207525430       12.9804426246
Mn               2.2524368768        7.7240452976       10.0236323639    0   0   0
Ni               4.6534647676        7.1202901005        6.9822425005    0   0   0
Ni               0.0619603813        2.6337384440        9.9556760802    0   0   0
Ni               2.4219525798        2.0896438093        6.9510492594    0   0   0
Ni               9.3547912696        9.9019397956        8.4440186395    0   0   0
Ni               2.3579554440        4.8758940102        8.4680010131    0   0   0
Ni               6.9796879716        7.6924726712        9.9737552430    0   0   0
Ni               9.3096730862        7.1316559318        6.9896902714    0   0   0
Ni               4.7877892837        2.6218843324        9.9455480718    0   0   0
Ni               7.1245715506        2.0553708916        6.9486854554    0   0   0
Ni               4.7058610954        9.8941863400        8.4294293279    0   0   0
Ni               7.0530582306        4.8640817481        8.4531033399    0   0   0
P                1.9603854589        8.9977651159        7.0482873394    0   0   0
P                4.3608513788        5.8397436861        9.9242203128    0   0   0
P                2.7263470654        0.8452909389        9.9041174682    0   0   0
P                0.3711210654        3.8997822466        6.9978917740    0   0   0
O                1.2123972175        8.3253929520        8.2981876587    0   0   0
O                3.6291095674        6.4909496873        8.6481394006    0   0   0
O                3.4680363025        1.4891875754        8.6265731291    0   0   0
O                1.1093829690        3.2390247331        8.2722091938    0   0   0
O                1.3596349964        8.1732983076        5.8844425164    0   0   0
O                3.7923299398        6.6696755998       11.1017409419    0   0   0
O                3.3003412998        1.6632003659       11.0846454462    0   0   0
O                0.9531584297        3.0774745500        5.8198181531    0   0   0
O                0.9136186619        5.3618137311        7.0362164392    0   0   0
O                3.2629172638        9.5446340885        9.9282608343    0   0   0
O                3.5446225228        3.8405128423        7.0821078828    0   0   0
O                1.1879123926        0.8833017255        9.8135924863    0   0   0
O                1.1354873087        5.9002852466        9.8415499985    0   0   0
O                3.7965946052        4.3877760984        9.8998794461    0   0   0
O                1.4392974591        0.3016087220        7.0217319728    0   0   0
O                3.4959570534        8.9046787901        7.1310821586    0   0   0
P                6.6688818178        8.9648664905        7.0220839690    0   0   0
P                9.0062189322        5.8433568154        9.9351828548    0   0   0
P                7.4256001189        0.7916169815        9.9078014654    0   0   0
P                5.0827169838        3.8822476802        6.9867459032    0   0   0
O                5.9261601580        8.3047134747        8.2957315165    0   0   0
O                8.2821359139        6.5175804600        8.6592372243    0   0   0
O                8.1641303211        1.4544857869        8.6326835892    0   0   0
O                5.8185662143        3.2162709709        8.2602842260    0   0   0
O                6.0955409502        8.1372002858        5.8430941221    0   0   0
O                8.4431397248        6.6873528892       11.1081253718    0   0   0
O                8.0075057281        1.6138667826       11.0849006204    0   0   0
O                5.6616365268        3.0477094258        5.8162644606    0   0   0
O                5.6428606763        5.3373221456        7.0164591929    0   0   0
O                7.9606510584        9.4880010964        9.9237323917    0   0   0
O                8.2411397074        3.8224416068        7.0850651702    0   0   0
O                5.8887324813        0.8521033415        9.8092820433    0   0   0
O                5.8962744512        5.9036412465        9.8325045456    0   0   0
O                8.4527730620        4.3886428208        9.9038173381    0   0   0
O                6.1330998669        0.2679537444        6.9999548578    0   0   0
O                8.2056512655        8.9055106833        7.1237153000    0   0   0
Mn               2.2524368768        7.6070420221        4.2173679033    0   0   0
Ni               4.6534647676        7.0032868250        1.1759780399    0   0   0
Ni               0.0619603813        2.5167351685        4.1494116195    0   0   0
Ni               2.4219525798        1.9726405338        1.1447847987    0   0   0
Ni               9.3547912696        9.7849365202        2.6377541788    0   0   0
Ni               2.3579554440        4.7588907347        2.6617365524    0   0   0
Ni               6.9796879716        7.5754693957        4.1674907823    0   0   0
Ni               9.3096730862        7.0146526563        1.1834258107    0   0   0
Ni               4.7877892837        2.5048810569        4.1392836112    0   0   0
Ni               7.1245715506        1.9383676161        1.1424209947    0   0   0
Ni               4.7058610954        9.7771830645        2.6231648672    0   0   0
Ni               7.0530582306        4.7470784726        2.6468388792    0   0   0
P                1.9603854589        8.8807618404        1.2420228787    0   0   0
P                4.3608513788        5.7227404107        4.1179558521    0   0   0
P                2.7263470654        0.7282876635        4.0978530075    0   0   0
P                0.3711210654        3.7827789711        1.1916273134    0   0   0
O                1.2123972175        8.2083896765        2.4919231980    0   0   0
O                3.6291095674        6.3739464118        2.8418749399    0   0   0
O                3.4680363025        1.3721842999        2.8203086685    0   0   0
O                1.1093829690        3.1220214576        2.4659447331    0   0   0
O                1.3596349964        8.0562950321        0.0781780558    0   0   0
O                3.7923299398        6.5526723243        5.2954764813    0   0   0
O                3.3003412998        1.5461970904        5.2783809855    0   0   0
O                0.9531584297        2.9604712745        0.0135536924    0   0   0
O                0.9136186619        5.2448104556        1.2299519786    0   0   0
O                3.2629172638        9.4276308131        4.1219963736    0   0   0
O                3.5446225228        3.7235095668        1.2758434221    0   0   0
O                1.1879123926        0.7662984500        4.0073280256    0   0   0
O                1.1354873087        5.7832819711        4.0352855378    0   0   0
O                3.7965946052        4.2707728229        4.0936149854    0   0   0
O                1.4392974591        0.1846054465        1.2154675122    0   0   0
O                3.4959570534        8.7876755146        1.3248176979    0   0   0
P                6.6688818178        8.8478632150        1.2158195084    0   0   0
P                9.0062189322        5.7263535399        4.1289183942    0   0   0
P                7.4256001189        0.6746137060        4.1015370047    0   0   0
P                5.0827169838        3.7652444047        1.1804814425    0   0   0
O                5.9261601580        8.1877101992        2.4894670559    0   0   0
O                8.2821359139        6.4005771845        2.8529727636    0   0   0
O                8.1641303211        1.3374825114        2.8264191286    0   0   0
O                5.8185662143        3.0992676954        2.4540197653    0   0   0
O                6.0955409502        8.0201970103        0.0368296614    0   0   0
O                8.4431397248        6.5703496137        5.3018609112    0   0   0
O                8.0075057281        1.4968635071        5.2786361598    0   0   0
O                5.6616365268        2.9307061503        0.0100000000    0   0   0
O                5.6428606763        5.2203188701        1.2101947322    0   0   0
O                7.9606510584        9.3709978209        4.1174679311    0   0   0
O                8.2411397074        3.7054383313        1.2788007096    0   0   0
O                5.8887324813        0.7351000660        4.0030175826    0   0   0
O                5.8962744512        5.7866379710        4.0262400850    0   0   0
O                8.4527730620        4.2716395453        4.0975528774    0   0   0
O                6.1330998669        0.1509504689        1.1936903972    0   0   0
O                8.2056512655        8.7885074078        1.3174508394    0   0   0
End final coordinates



     Writing all to output data dir ./tmp/pwscf.save/
 
     init_run     :      6.41s CPU      7.06s WALL (       1 calls)
     electrons    :   8844.75s CPU   9330.03s WALL (      31 calls)
     update_pot   :     11.13s CPU     13.79s WALL (      30 calls)
     forces       :    117.26s CPU    133.30s WALL (      31 calls)
     force_london :      2.81s CPU      2.81s WALL (      31 calls)

     Called by init_run:
     wfcinit      :      3.60s CPU      3.73s WALL (       1 calls)
     potinit      :      0.74s CPU      0.97s WALL (       1 calls)
     hinit0       :      1.18s CPU      1.28s WALL (       1 calls)

     Called by electrons:
     c_bands      :   6849.16s CPU   7044.22s WALL (     714 calls)
     sum_band     :   1233.29s CPU   1337.01s WALL (     714 calls)
     v_of_rho     :    213.62s CPU    295.15s WALL (     733 calls)
     newd         :    383.26s CPU    466.87s WALL (     733 calls)
     mix_rho      :    171.00s CPU    171.96s WALL (     714 calls)
     energy_londo :      2.65s CPU      2.66s WALL (      31 calls)

     Called by c_bands:
     init_us_2    :     16.95s CPU     17.40s WALL (    2920 calls)
     init_us_2:cp :     16.93s CPU     17.39s WALL (    2920 calls)
     regterg      :   6701.37s CPU   6894.18s WALL (    1433 calls)

     Called by *egterg:
     rdiaghg      :   1701.96s CPU   1786.68s WALL (    4731 calls)
     h_psi        :   2644.00s CPU   2691.35s WALL (    4817 calls)
     s_psi        :    439.37s CPU    439.70s WALL (    4817 calls)
     g_psi        :      3.38s CPU      3.41s WALL (    3382 calls)

     Called by h_psi:
     h_psi:calbec :    700.63s CPU    737.64s WALL (    4817 calls)
     vloc_psi     :   1497.11s CPU   1502.97s WALL (    4817 calls)
     add_vuspsi   :    441.32s CPU    445.70s WALL (    4817 calls)

     General routines
     calbec       :   1078.22s CPU   1135.54s WALL (    6493 calls)
     fft          :    325.52s CPU    419.85s WALL (   13639 calls)
     ffts         :    104.89s CPU    105.17s WALL (   84713 calls)
     fftw         :   1739.01s CPU   1745.47s WALL ( 2405258 calls)
     interpolate  :     13.82s CPU     14.35s WALL (    1466 calls)
 
     Parallel routines
 
     PWSCF        :      2h30m CPU      2h39m WALL

 
   This run was terminated on:  13: 6:53  17Nov2025            

=------------------------------------------------------------------------------=
   JOB DONE.
=------------------------------------------------------------------------------=
