
     Program PWSCF v.7.2 starts on 10Nov2025 at 18:40:20 

     This program is part of the open-source Quantum ESPRESSO suite
     for quantum simulation of materials; please cite
         "P. Giannozzi et al., J. Phys.:Condens. Matter 21 395502 (2009);
         "P. Giannozzi et al., J. Phys.:Condens. Matter 29 465901 (2017);
         "P. Giannozzi et al., J. Chem. Phys. 152 154105 (2020);
          URL http://www.quantum-espresso.org", 
     in publications or presentations arising from this work. More details at
     http://www.quantum-espresso.org/quote

     Parallel version (MPI), running on    64 processors

     MPI processes distributed on     4 nodes
     456673 MiB available memory on the printing compute node when the environment starts
 
     Reading input from ./3/H1_removed/PW.in

     Current dimensions of program PWSCF are:
     Max number of different atomic species (ntypx) = 10
     Max number of k-points (npk) =  40000
     Max angular momentum in pseudopotentials (lmaxx) =  4
     Presently no symmetry can be used with electric field

     Presently stress not available with electric field and gates

     file Ni.pbe-n-rrkjus_psl.1.0.0.UPF: wavefunction(s)  3D renormalized
     file Mn.pbe-spn-rrkjus_psl.0.3.1.UPF: wavefunction(s)  3D renormalized
     file O.pbe-rrkjus.UPF: wavefunction(s)  2S renormalized
     file H.pbe-rrkjus.UPF: wavefunction(s)  1S renormalized

     gamma-point specific algorithms are used
 
     R & G space division:  proc/nbgrp/npool/nimage =      64
     Subspace diagonalization in iterative solution of the eigenvalue problem:
     one sub-group per band group will be used
     custom distributed-memory algorithm (size of sub-group:  7*  7 procs)

 
     Parallelization info
     --------------------
     sticks:   dense  smooth     PW     G-vecs:    dense   smooth      PW
     Min         214      85     20                61830    15614    1928
     Max         216      86     22                61864    15658    1982
     Sum       13727    5503   1375              3958051  1001255  125211
 
     Using Slab Decomposition
 


     bravais-lattice index     =            0
     lattice parameter (alat)  =      17.8532  a.u.
     unit-cell volume          =   20962.6682 (a.u.)^3
     number of atoms/cell      =          158
     number of atomic types    =            5
     number of electrons       =      1108.00
     number of Kohn-Sham states=          665
     kinetic-energy cutoff     =      50.0000  Ry
     charge density cutoff     =     500.0000  Ry
     scf convergence threshold =      1.0E-06
     mixing beta               =       0.1000
     number of iterations used =            8  local-TF  mixing
     energy convergence thresh.=      1.0E-04
     force convergence thresh. =      1.0E-03
     Exchange-correlation=  SLA  PW   PBE  PBE
                           (   1   4   3   4   0   0   0)
     nstep                     =         1000


     celldm(1)=  17.853155  celldm(2)=   0.000000  celldm(3)=   0.000000
     celldm(4)=   0.000000  celldm(5)=   0.000000  celldm(6)=   0.000000

     crystal axes: (cart. coord. in units of alat)
               a(1) = (   1.000000   0.000000   0.000000 )  
               a(2) = (   0.003237   1.081997   0.000000 )  
               a(3) = (   0.000000   0.000000   3.404673 )  

     reciprocal axes: (cart. coord. in units 2 pi/alat)
               b(1) = (  1.000000 -0.002992  0.000000 )  
               b(2) = (  0.000000  0.924217  0.000000 )  
               b(3) = (  0.000000  0.000000  0.293714 )  


     PseudoPot. # 1 for Ni read from file:
     ~/PSEUDO/Ni.pbe-n-rrkjus_psl.1.0.0.UPF
     MD5 check sum: Not computed, couldn't open file
     Pseudo is Ultrasoft + core correction, Zval = 10.0
     Generated using "atomic" code by A. Dal Corso  v.5.1.2
     Using radial grid of 1195 points,  6 beta functions with: 
                l(1) =   0
                l(2) =   0
                l(3) =   1
                l(4) =   1
                l(5) =   2
                l(6) =   2
     Q(r) pseudized with 0 coefficients 


     PseudoPot. # 2 for Mn read from file:
     ~/PSEUDO/Mn.pbe-spn-rrkjus_psl.0.3.1.UPF
     MD5 check sum: Not computed, couldn't open file
     Pseudo is Ultrasoft + core correction, Zval = 15.0
     Generated using &quot;atomic&quot; code by A. Dal Corso  v.6.2.2
     Using radial grid of 1187 points,  6 beta functions with: 
                l(1) =   0
                l(2) =   0
                l(3) =   1
                l(4) =   1
                l(5) =   2
                l(6) =   2
     Q(r) pseudized with 0 coefficients 


     PseudoPot. # 3 for P  read from file:
     ~/PSEUDO/P.pbe-n-rrkjus_psl.1.0.0.UPF
     MD5 check sum: Not computed, couldn't open file
     Pseudo is Ultrasoft + core correction, Zval =  5.0
     Generated using "atomic" code by A. Dal Corso  v.5.1
     Using radial grid of 1147 points,  6 beta functions with: 
                l(1) =   0
                l(2) =   0
                l(3) =   1
                l(4) =   1
                l(5) =   2
                l(6) =   2
     Q(r) pseudized with 0 coefficients 


     PseudoPot. # 4 for O  read from file:
     ~/PSEUDO/O.pbe-rrkjus.UPF
     MD5 check sum: Not computed, couldn't open file
     Pseudo is Ultrasoft, Zval =  6.0
     Generated by new atomic code, or converted to UPF format
     Using radial grid of 1269 points,  4 beta functions with: 
                l(1) =   0
                l(2) =   0
                l(3) =   1
                l(4) =   1
     Q(r) pseudized with 0 coefficients 


     PseudoPot. # 5 for H  read from file:
     ~/PSEUDO/H.pbe-rrkjus.UPF
     MD5 check sum: Not computed, couldn't open file
     Pseudo is Ultrasoft, Zval =  1.0
     Generated by new atomic code, or converted to UPF format
     Using radial grid of 1061 points,  2 beta functions with: 
                l(1) =   0
                l(2) =   0
     Q(r) pseudized with 0 coefficients 


     atomic species   valence    mass     pseudopotential
     Ni               10.00    58.69300     Ni( 1.00)
     Mn               15.00    54.93800     Mn( 1.00)
     P                 5.00    30.97300     P ( 1.00)
     O                 6.00    15.99900     O ( 1.00)
     H                 1.00     1.00790     H ( 1.00)

     Starting magnetic structure 
     atomic species   magnetization
     Ni              1.000
     Mn              1.000
     P               1.000
     O               1.000
     H               0.000

     No symmetry found



   Cartesian axes

     site n.     atom                  positions (alat units)
         1        Ni     tau(   1) = (   0.2448189   0.8359134   1.6973663  )
         2        Ni     tau(   2) = (   0.4920952   0.7731948   1.3751709  )
         3        Mn     tau(   3) = (   0.0113021   0.2918949   1.7030146  )
         4        Ni     tau(   4) = (   0.2586115   0.2268566   1.3773031  )
         5        Ni     tau(   5) = (   1.0019827   1.0705803   1.5355036  )
         6        Ni     tau(   6) = (   0.2518099   0.5339061   1.5367175  )
         7        Ni     tau(   7) = (   0.7400999   0.8349186   1.6965034  )
         8        Mn     tau(   8) = (   0.9886961   0.7700845   1.3698484  )
         9        Mn     tau(   9) = (   0.5113421   0.2944667   1.7031766  )
        10        Ni     tau(  10) = (   0.7560857   0.2263843   1.3767860  )
        11        Ni     tau(  11) = (   0.5009386   1.0712238   1.5368048  )
        12        Ni     tau(  12) = (   0.7496978   0.5336600   1.5356262  )
        13        P      tau(  13) = (   0.2147792   0.9686896   1.3807994  )
        14        P      tau(  14) = (   0.4607377   0.6441916   1.6925325  )
        15        P      tau(  15) = (   0.2883218   0.0913464   1.6924906  )
        16        P      tau(  16) = (   0.0408981   0.4221836   1.3835698  )
        17        O      tau(  17) = (   0.1380864   0.9007819   1.5167438  )
        18        O      tau(  18) = (   0.3817439   0.7113683   1.5566049  )
        19        O      tau(  19) = (   0.3638364   0.1608547   1.5566241  )
        20        O      tau(  20) = (   0.1207568   0.3545755   1.5169439  )
        21        O      tau(  21) = (   0.1552194   0.8797563   1.2565499  )
        22        O      tau(  22) = (   0.4022820   0.7317969   1.8180074  )
        23        O      tau(  23) = (   0.3454844   0.1823965   1.8164323  )
        24        O      tau(  24) = (   0.1017019   0.3344979   1.2595801  )
        25        O      tau(  25) = (   0.0970074   0.5770714   1.3844204  )
        26        O      tau(  26) = (   0.3534166   1.0203677   1.6919952  )
        27        O      tau(  27) = (   0.3778024   0.4172402   1.3929630  )
        28        O      tau(  28) = (   0.1256171   0.0954063   1.6818505  )
        29        O      tau(  29) = (   0.1232168   0.6482422   1.6805486  )
        30        O      tau(  30) = (   0.4028533   0.4897833   1.6900940  )
        31        O      tau(  31) = (   0.1511050   0.0405554   1.3820680  )
        32        O      tau(  32) = (   0.3776556   0.9624293   1.3902499  )
        33        P      tau(  33) = (   0.7084770   0.9682119   1.3796107  )
        34        P      tau(  34) = (   0.9603154   0.6409658   1.6898190  )
        35        P      tau(  35) = (   0.7875734   0.0899770   1.6916560  )
        36        P      tau(  36) = (   0.5405152   0.4272620   1.3826203  )
        37        O      tau(  37) = (   0.6323583   0.8977630   1.5153988  )
        38        O      tau(  38) = (   0.8809646   0.7091921   1.5563547  )
        39        O      tau(  39) = (   0.8631054   0.1587239   1.5554172  )
        40        O      tau(  40) = (   0.6202581   0.3578380   1.5156420  )
        41        O      tau(  41) = (   0.6499160   0.8772596   1.2559747  )
        42        O      tau(  42) = (   0.8990171   0.7283464   1.8136232  )
        43        O      tau(  43) = (   0.8448361   0.1806154   1.8160000  )
        44        O      tau(  44) = (   0.6023096   0.3392612   1.2590189  )
        45        O      tau(  45) = (   0.5960222   0.5826131   1.3844319  )
        46        O      tau(  46) = (   0.8515023   1.0184215   1.6909026  )
        47        O      tau(  47) = (   0.8779640   0.4148900   1.3929675  )
        48        O      tau(  48) = (   0.6251159   0.0957170   1.6813763  )
        49        O      tau(  49) = (   0.6237654   0.6481585   1.6812289  )
        50        O      tau(  50) = (   0.9038046   0.4863338   1.6883304  )
        51        O      tau(  51) = (   0.6458737   0.0402574   1.3812679  )
        52        O      tau(  52) = (   0.8712434   0.9635255   1.3905021  )
        53        Ni     tau(  53) = (   0.2420320   0.8169913   1.0699082  )
        54        Ni     tau(  54) = (   0.4893084   0.7542727   0.7477128  )
        55        Mn     tau(  55) = (   0.0085152   0.2729728   1.0755565  )
        56        Ni     tau(  56) = (   0.2558246   0.2079345   0.7498450  )
        57        Ni     tau(  57) = (   0.9991959   1.0516583   0.9080455  )
        58        Ni     tau(  58) = (   0.2490231   0.5149840   0.9092594  )
        59        Ni     tau(  59) = (   0.7373131   0.8159965   1.0690453  )
        60        Mn     tau(  60) = (   0.9859093   0.7511625   0.7423903  )
        61        Mn     tau(  61) = (   0.5085552   0.2755447   1.0757185  )
        62        Ni     tau(  62) = (   0.7532989   0.2074622   0.7493279  )
        63        Ni     tau(  63) = (   0.4981517   1.0523018   0.9093468  )
        64        Ni     tau(  64) = (   0.7469109   0.5147379   0.9081681  )
        65        P      tau(  65) = (   0.2119924   0.9497675   0.7533413  )
        66        P      tau(  66) = (   0.4579509   0.6252695   1.0650744  )
        67        P      tau(  67) = (   0.2855349   0.0724244   1.0650326  )
        68        P      tau(  68) = (   0.0381112   0.4032615   0.7561117  )
        69        O      tau(  69) = (   0.1352995   0.8818598   0.8892857  )
        70        O      tau(  70) = (   0.3789570   0.6924463   0.9291468  )
        71        O      tau(  71) = (   0.3610496   0.1419327   0.9291660  )
        72        O      tau(  72) = (   0.1179700   0.3356534   0.8894858  )
        73        O      tau(  73) = (   0.1524325   0.8608343   0.6290918  )
        74        O      tau(  74) = (   0.3994952   0.7128748   1.1905493  )
        75        O      tau(  75) = (   0.3426976   0.1634744   1.1889742  )
        76        O      tau(  76) = (   0.0989151   0.3155758   0.6321220  )
        77        O      tau(  77) = (   0.0942206   0.5581494   0.7569623  )
        78        O      tau(  78) = (   0.3506297   1.0014456   1.0645371  )
        79        O      tau(  79) = (   0.3750155   0.3983181   0.7655049  )
        80        O      tau(  80) = (   0.1228303   0.0764842   1.0543924  )
        81        O      tau(  81) = (   0.1204299   0.6293201   1.0530905  )
        82        O      tau(  82) = (   0.4000664   0.4708612   1.0626359  )
        83        O      tau(  83) = (   0.1483182   0.0216333   0.7546099  )
        84        O      tau(  84) = (   0.3748687   0.9435072   0.7627918  )
        85        P      tau(  85) = (   0.7056901   0.9492898   0.7521526  )
        86        P      tau(  86) = (   0.9575286   0.6220438   1.0623609  )
        87        P      tau(  87) = (   0.7847866   0.0710549   1.0641979  )
        88        P      tau(  88) = (   0.5377283   0.4083400   0.7551622  )
        89        O      tau(  89) = (   0.6295714   0.8788409   0.8879407  )
        90        O      tau(  90) = (   0.8781778   0.6902700   0.9288966  )
        91        O      tau(  91) = (   0.8603186   0.1398018   0.9279591  )
        92        O      tau(  92) = (   0.6174712   0.3389159   0.8881839  )
        93        O      tau(  93) = (   0.6471291   0.8583376   0.6285166  )
        94        O      tau(  94) = (   0.8962302   0.7094244   1.1861651  )
        95        O      tau(  95) = (   0.8420493   0.1616933   1.1885419  )
        96        O      tau(  96) = (   0.5995227   0.3203391   0.6315608  )
        97        O      tau(  97) = (   0.5932354   0.5636910   0.7569738  )
        98        O      tau(  98) = (   0.8487155   0.9994995   1.0634446  )
        99        O      tau(  99) = (   0.8751772   0.3959680   0.7655094  )
       100        O      tau( 100) = (   0.6223291   0.0767949   1.0539182  )
       101        O      tau( 101) = (   0.6209785   0.6292365   1.0537708  )
       102        O      tau( 102) = (   0.9010178   0.4674118   1.0608723  )
       103        O      tau( 103) = (   0.6430869   0.0213354   0.7538098  )
       104        O      tau( 104) = (   0.8684566   0.9446034   0.7630440  )
       105        Ni     tau( 105) = (   0.2392451   0.7980692   0.4424501  )
       106        Ni     tau( 106) = (   0.4865215   0.7353506   0.1202547  )
       107        Mn     tau( 107) = (   0.0057284   0.2540508   0.4480984  )
       108        Ni     tau( 108) = (   0.2530377   0.1890124   0.1223869  )
       109        Ni     tau( 109) = (   0.9964090   1.0327362   0.2805874  )
       110        Ni     tau( 110) = (   0.2462362   0.4960619   0.2818013  )
       111        Ni     tau( 111) = (   0.7345262   0.7970744   0.4415872  )
       112        Mn     tau( 112) = (   0.9831224   0.7322404   0.1149322  )
       113        Mn     tau( 113) = (   0.5057684   0.2566226   0.4482604  )
       114        Ni     tau( 114) = (   0.7505120   0.1885401   0.1218698  )
       115        Ni     tau( 115) = (   0.4953648   1.0333797   0.2818887  )
       116        Ni     tau( 116) = (   0.7441241   0.4958159   0.2807100  )
       117        P      tau( 117) = (   0.2092055   0.9308455   0.1258832  )
       118        P      tau( 118) = (   0.4551640   0.6063475   0.4376163  )
       119        P      tau( 119) = (   0.2827481   0.0535023   0.4375745  )
       120        P      tau( 120) = (   0.0353243   0.3843395   0.1286536  )
       121        O      tau( 121) = (   0.1325127   0.8629378   0.2618276  )
       122        O      tau( 122) = (   0.3761702   0.6735242   0.3016887  )
       123        O      tau( 123) = (   0.3582627   0.1230106   0.3017079  )
       124        O      tau( 124) = (   0.1151831   0.3167313   0.2620277  )
       125        O      tau( 125) = (   0.1496456   0.8419122   0.0016337  )
       126        O      tau( 126) = (   0.3967083   0.6939527   0.5630912  )
       127        O      tau( 127) = (   0.3399107   0.1445523   0.5615161  )
       128        O      tau( 128) = (   0.0961282   0.2966537   0.0046639  )
       129        O      tau( 129) = (   0.0914337   0.5392273   0.1295042  )
       130        O      tau( 130) = (   0.3478428   0.9825235   0.4370790  )
       131        O      tau( 131) = (   0.3722287   0.3793961   0.1380469  )
       132        O      tau( 132) = (   0.1200434   0.0575621   0.4269343  )
       133        O      tau( 133) = (   0.1176431   0.6103980   0.4256324  )
       134        O      tau( 134) = (   0.3972796   0.4519391   0.4351778  )
       135        O      tau( 135) = (   0.1455313   0.0027113   0.1271518  )
       136        O      tau( 136) = (   0.3720819   0.9245852   0.1353338  )
       137        P      tau( 137) = (   0.7029032   0.9303678   0.1246945  )
       138        P      tau( 138) = (   0.9547417   0.6031217   0.4349028  )
       139        P      tau( 139) = (   0.7819997   0.0521328   0.4367398  )
       140        P      tau( 140) = (   0.5349415   0.3894179   0.1277041  )
       141        O      tau( 141) = (   0.6267846   0.8599188   0.2604826  )
       142        O      tau( 142) = (   0.8753909   0.6713480   0.3014385  )
       143        O      tau( 143) = (   0.8575317   0.1208797   0.3005010  )
       144        O      tau( 144) = (   0.6146843   0.3199938   0.2607258  )
       145        O      tau( 145) = (   0.6443422   0.8394155   0.0010585  )
       146        O      tau( 146) = (   0.8934434   0.6905023   0.5587070  )
       147        O      tau( 147) = (   0.8392624   0.1427713   0.5610838  )
       148        O      tau( 148) = (   0.5967359   0.3014171   0.0041027  )
       149        O      tau( 149) = (   0.5904485   0.5447689   0.1295157  )
       150        O      tau( 150) = (   0.8459286   0.9805774   0.4359865  )
       151        O      tau( 151) = (   0.8723903   0.3770459   0.1380513  )
       152        O      tau( 152) = (   0.6195422   0.0578729   0.4264602  )
       153        O      tau( 153) = (   0.6181917   0.6103144   0.4263127  )
       154        O      tau( 154) = (   0.8982309   0.4484897   0.4334142  )
       155        O      tau( 155) = (   0.6403000   0.0024133   0.1263517  )
       156        O      tau( 156) = (   0.8656697   0.9256814   0.1355859  )
       157        O      tau( 157) = (   0.1153321   0.3820748   1.8758060  )
       158        H      tau( 158) = (   0.2011585   0.3210125   1.8818733  )

     -------------------------------------------------
     Parameters for Dispersion (Grimme-D2) Correction:
     -------------------------------------------------
       atom      VdW radius       C_6     

        Ni         2.952        374.666
        Mn         2.952        374.666
        P          3.222        271.980
        O          2.536         24.284
        H          1.892          4.857

     number of k points=     1  Gaussian smearing, width (Ry)=  0.0100
                       cart. coord. in units 2pi/alat
        k(    1) = (   0.0000000   0.0000000   0.0000000), wk =   1.0000000

     Dense  grid:  1979026 G-vectors     FFT dimensions: ( 128, 144, 450)

     Smooth grid:   500628 G-vectors     FFT dimensions: (  81,  90, 288)

     Estimated max dynamical RAM per process >     333.40 MB

     Estimated total dynamical RAM >      20.84 GB

     Check: negative core charge=   -0.000002
     Generating pointlists ...
     new r_m :   0.0883 (alat units)  1.5768 (a.u.) for type    1
     new r_m :   0.0884 (alat units)  1.5790 (a.u.) for type    2
     new r_m :   0.0672 (alat units)  1.1995 (a.u.) for type    3
     new r_m :   0.0435 (alat units)  0.7770 (a.u.) for type    4
     new r_m :   0.0435 (alat units)  0.7770 (a.u.) for type    5

     Initial potential from superposition of free atoms

     starting charge    1107.8886, renormalised to    1108.0000

     negative rho (up, down):  1.496E-03 4.664E-04
 
     Adding external electric field

     Computed dipole along edir(3) : 
        Dipole                1.6563 Ry au,          4.2099 Debye
        Dipole field          0.0010 Ry au, 
 
        Potential amp.       -0.1086 Ry
        Total length         54.7057 bohr
 
 
     Adding external electric field

     Computed dipole along edir(3) : 
        Dipole                1.6563 Ry au,          4.2099 Debye
        Dipole field          0.0010 Ry au, 
 
        Potential amp.       -0.1086 Ry
        Total length         54.7057 bohr
 
     Starting wfcs are  818 randomized atomic wfcs

     total cpu time spent up to now is       12.8 secs

     Self-consistent Calculation

     iteration #  1     ecut=    50.00 Ry     beta= 0.10
     Davidson diagonalization with overlap
     ethr =  1.00E-02,  avg # of iterations =  5.5

     negative rho (up, down):  4.542E-01 2.371E-07
 
     Adding external electric field

     Computed dipole along edir(3) : 
        Dipole               -3.3779 Ry au,         -8.5857 Debye
        Dipole field         -0.0020 Ry au, 
 
        Potential amp.        0.2215 Ry
        Total length         54.7057 bohr
 
 
     Adding external electric field

     Computed dipole along edir(3) : 
        Dipole               -3.3779 Ry au,         -8.5857 Debye
        Dipole field         -0.0020 Ry au, 
 
        Potential amp.        0.2215 Ry
        Total length         54.7057 bohr
 

     total cpu time spent up to now is       50.6 secs

     total energy              =   -7855.59811761 Ry
     estimated scf accuracy    <     701.46031539 Ry

     total magnetization       =   222.00 Bohr mag/cell
     absolute magnetization    =   320.69 Bohr mag/cell

     iteration #  2     ecut=    50.00 Ry     beta= 0.10
     Davidson diagonalization with overlap
     ethr =  1.00E-02,  avg # of iterations =  2.0

     negative rho (up, down):  4.265E-01 1.218E-07
 
     Adding external electric field

     Computed dipole along edir(3) : 
        Dipole               -2.2802 Ry au,         -5.7957 Debye
        Dipole field         -0.0014 Ry au, 
 
        Potential amp.        0.1496 Ry
        Total length         54.7057 bohr
 
 
     Adding external electric field

     Computed dipole along edir(3) : 
        Dipole               -2.2802 Ry au,         -5.7957 Debye
        Dipole field         -0.0014 Ry au, 
 
        Potential amp.        0.1496 Ry
        Total length         54.7057 bohr
 

     total cpu time spent up to now is       71.2 secs

     total energy              =   -7939.50483885 Ry
     estimated scf accuracy    <     204.89137524 Ry

     total magnetization       =   170.49 Bohr mag/cell
     absolute magnetization    =   216.25 Bohr mag/cell

     iteration #  3     ecut=    50.00 Ry     beta= 0.10
     Davidson diagonalization with overlap
     ethr =  1.00E-02,  avg # of iterations =  1.5

     negative rho (up, down):  3.828E-01 9.960E-08
 
     Adding external electric field

     Computed dipole along edir(3) : 
        Dipole               -2.0315 Ry au,         -5.1636 Debye
        Dipole field         -0.0012 Ry au, 
 
        Potential amp.        0.1332 Ry
        Total length         54.7057 bohr
 
 
     Adding external electric field

     Computed dipole along edir(3) : 
        Dipole               -2.0315 Ry au,         -5.1636 Debye
        Dipole field         -0.0012 Ry au, 
 
        Potential amp.        0.1332 Ry
        Total length         54.7057 bohr
 

     total cpu time spent up to now is       87.4 secs

     total energy              =   -7967.89933779 Ry
     estimated scf accuracy    <     102.70412635 Ry

     total magnetization       =   144.97 Bohr mag/cell
     absolute magnetization    =   193.32 Bohr mag/cell

     iteration #  4     ecut=    50.00 Ry     beta= 0.10
     Davidson diagonalization with overlap
     ethr =  9.27E-03,  avg # of iterations =  1.0

     negative rho (up, down):  2.999E-01 2.808E-08
 
     Adding external electric field

     Computed dipole along edir(3) : 
        Dipole               -1.8468 Ry au,         -4.6941 Debye
        Dipole field         -0.0011 Ry au, 
 
        Potential amp.        0.1211 Ry
        Total length         54.7057 bohr
 
 
     Adding external electric field

     Computed dipole along edir(3) : 
        Dipole               -1.8468 Ry au,         -4.6941 Debye
        Dipole field         -0.0011 Ry au, 
 
        Potential amp.        0.1211 Ry
        Total length         54.7057 bohr
 

     total cpu time spent up to now is      102.5 secs

     total energy              =   -8002.54955866 Ry
     estimated scf accuracy    <      86.71782297 Ry

     total magnetization       =   129.68 Bohr mag/cell
     absolute magnetization    =   179.46 Bohr mag/cell

     iteration #  5     ecut=    50.00 Ry     beta= 0.10
     Davidson diagonalization with overlap
     ethr =  7.83E-03,  avg # of iterations =  1.0

     negative rho (up, down):  6.768E-02 5.435E-08
 
     Adding external electric field

     Computed dipole along edir(3) : 
        Dipole               -1.5031 Ry au,         -3.8204 Debye
        Dipole field         -0.0009 Ry au, 
 
        Potential amp.        0.0986 Ry
        Total length         54.7057 bohr
 
 
     Adding external electric field

     Computed dipole along edir(3) : 
        Dipole               -1.5031 Ry au,         -3.8204 Debye
        Dipole field         -0.0009 Ry au, 
 
        Potential amp.        0.0986 Ry
        Total length         54.7057 bohr
 

     total cpu time spent up to now is      119.2 secs

     total energy              =   -8059.87863865 Ry
     estimated scf accuracy    <      68.99941721 Ry

     total magnetization       =   106.19 Bohr mag/cell
     absolute magnetization    =   159.33 Bohr mag/cell

     iteration #  6     ecut=    50.00 Ry     beta= 0.10
     Davidson diagonalization with overlap
     ethr =  6.23E-03,  avg # of iterations =  1.0

     negative rho (up, down):  2.346E-03 5.036E-03
 
     Adding external electric field

     Computed dipole along edir(3) : 
        Dipole               -1.1440 Ry au,         -2.9077 Debye
        Dipole field         -0.0007 Ry au, 
 
        Potential amp.        0.0750 Ry
        Total length         54.7057 bohr
 
 
     Adding external electric field

     Computed dipole along edir(3) : 
        Dipole               -1.1440 Ry au,         -2.9077 Debye
        Dipole field         -0.0007 Ry au, 
 
        Potential amp.        0.0750 Ry
        Total length         54.7057 bohr
 

     total cpu time spent up to now is      135.6 secs

     total energy              =   -8076.04013854 Ry
     estimated scf accuracy    <      18.92954806 Ry

     total magnetization       =   100.00 Bohr mag/cell
     absolute magnetization    =   133.97 Bohr mag/cell

     iteration #  7     ecut=    50.00 Ry     beta= 0.10
     Davidson diagonalization with overlap
     ethr =  1.71E-03,  avg # of iterations =  6.5

     negative rho (up, down):  2.357E-03 5.027E-03
 
     Adding external electric field

     Computed dipole along edir(3) : 
        Dipole               -1.1379 Ry au,         -2.8922 Debye
        Dipole field         -0.0007 Ry au, 
 
        Potential amp.        0.0746 Ry
        Total length         54.7057 bohr
 
 
     Adding external electric field

     Computed dipole along edir(3) : 
        Dipole               -1.1379 Ry au,         -2.8922 Debye
        Dipole field         -0.0007 Ry au, 
 
        Potential amp.        0.0746 Ry
        Total length         54.7057 bohr
 

     total cpu time spent up to now is      164.1 secs

     total energy              =   -8079.09178561 Ry
     estimated scf accuracy    <      43.41330167 Ry

     total magnetization       =    63.14 Bohr mag/cell
     absolute magnetization    =    80.83 Bohr mag/cell

     iteration #  8     ecut=    50.00 Ry     beta= 0.10
     Davidson diagonalization with overlap
     ethr =  1.71E-03,  avg # of iterations =  1.0

     negative rho (up, down):  2.356E-03 5.127E-03
 
     Adding external electric field

     Computed dipole along edir(3) : 
        Dipole               -1.1424 Ry au,         -2.9037 Debye
        Dipole field         -0.0007 Ry au, 
 
        Potential amp.        0.0749 Ry
        Total length         54.7057 bohr
 
 
     Adding external electric field

     Computed dipole along edir(3) : 
        Dipole               -1.1424 Ry au,         -2.9037 Debye
        Dipole field         -0.0007 Ry au, 
 
        Potential amp.        0.0749 Ry
        Total length         54.7057 bohr
 

     total cpu time spent up to now is      179.9 secs

     total energy              =   -8079.19848650 Ry
     estimated scf accuracy    <      42.86066367 Ry

     total magnetization       =    63.45 Bohr mag/cell
     absolute magnetization    =    80.69 Bohr mag/cell

     iteration #  9     ecut=    50.00 Ry     beta= 0.10
     Davidson diagonalization with overlap
     ethr =  1.71E-03,  avg # of iterations =  1.0

     negative rho (up, down):  2.089E-03 4.528E-03
 
     Adding external electric field

     Computed dipole along edir(3) : 
        Dipole               -1.0879 Ry au,         -2.7651 Debye
        Dipole field         -0.0007 Ry au, 
 
        Potential amp.        0.0714 Ry
        Total length         54.7057 bohr
 
 
     Adding external electric field

     Computed dipole along edir(3) : 
        Dipole               -1.0879 Ry au,         -2.7651 Debye
        Dipole field         -0.0007 Ry au, 
 
        Potential amp.        0.0714 Ry
        Total length         54.7057 bohr
 

     total cpu time spent up to now is      195.7 secs

     total energy              =   -8079.04137921 Ry
     estimated scf accuracy    <      44.51175265 Ry

     total magnetization       =    62.71 Bohr mag/cell
     absolute magnetization    =    79.70 Bohr mag/cell

     iteration # 10     ecut=    50.00 Ry     beta= 0.10
     Davidson diagonalization with overlap
     ethr =  1.71E-03,  avg # of iterations =  1.0

     negative rho (up, down):  1.409E-03 2.909E-03
 
     Adding external electric field

     Computed dipole along edir(3) : 
        Dipole               -0.9797 Ry au,         -2.4901 Debye
        Dipole field         -0.0006 Ry au, 
 
        Potential amp.        0.0643 Ry
        Total length         54.7057 bohr
 
 
     Adding external electric field

     Computed dipole along edir(3) : 
        Dipole               -0.9797 Ry au,         -2.4901 Debye
        Dipole field         -0.0006 Ry au, 
 
        Potential amp.        0.0643 Ry
        Total length         54.7057 bohr
 

     total cpu time spent up to now is      210.4 secs

     total energy              =   -8078.64911625 Ry
     estimated scf accuracy    <      36.05731976 Ry

     total magnetization       =    65.73 Bohr mag/cell
     absolute magnetization    =    81.88 Bohr mag/cell

     iteration # 11     ecut=    50.00 Ry     beta= 0.10
     Davidson diagonalization with overlap
     ethr =  1.71E-03,  avg # of iterations =  1.0

     negative rho (up, down):  1.369E-03 2.588E-03
 
     Adding external electric field

     Computed dipole along edir(3) : 
        Dipole               -0.9476 Ry au,         -2.4086 Debye
        Dipole field         -0.0006 Ry au, 
 
        Potential amp.        0.0622 Ry
        Total length         54.7057 bohr
 
 
     Adding external electric field

     Computed dipole along edir(3) : 
        Dipole               -0.9476 Ry au,         -2.4086 Debye
        Dipole field         -0.0006 Ry au, 
 
        Potential amp.        0.0622 Ry
        Total length         54.7057 bohr
 

     total cpu time spent up to now is      223.9 secs

     total energy              =   -8078.56705187 Ry
     estimated scf accuracy    <      23.24942489 Ry

     total magnetization       =    72.31 Bohr mag/cell
     absolute magnetization    =    86.38 Bohr mag/cell

     iteration # 12     ecut=    50.00 Ry     beta= 0.10
     Davidson diagonalization with overlap
     ethr =  1.71E-03,  avg # of iterations =  1.0

     negative rho (up, down):  1.331E-03 2.999E-03
 
     Adding external electric field

     Computed dipole along edir(3) : 
        Dipole               -0.8413 Ry au,         -2.1383 Debye
        Dipole field         -0.0005 Ry au, 
 
        Potential amp.        0.0552 Ry
        Total length         54.7057 bohr
 
 
     Adding external electric field

     Computed dipole along edir(3) : 
        Dipole               -0.8413 Ry au,         -2.1383 Debye
        Dipole field         -0.0005 Ry au, 
 
        Potential amp.        0.0552 Ry
        Total length         54.7057 bohr
 

     total cpu time spent up to now is      237.7 secs

     total energy              =   -8078.48974755 Ry
     estimated scf accuracy    <      20.43397935 Ry

     total magnetization       =    75.47 Bohr mag/cell
     absolute magnetization    =    88.23 Bohr mag/cell

     iteration # 13     ecut=    50.00 Ry     beta= 0.10
     Davidson diagonalization with overlap
     ethr =  1.71E-03,  avg # of iterations =  1.0

     negative rho (up, down):  1.406E-03 3.927E-03
 
     Adding external electric field

     Computed dipole along edir(3) : 
        Dipole               -0.7731 Ry au,         -1.9649 Debye
        Dipole field         -0.0005 Ry au, 
 
        Potential amp.        0.0507 Ry
        Total length         54.7057 bohr
 
 
     Adding external electric field

     Computed dipole along edir(3) : 
        Dipole               -0.7731 Ry au,         -1.9649 Debye
        Dipole field         -0.0005 Ry au, 
 
        Potential amp.        0.0507 Ry
        Total length         54.7057 bohr
 

     total cpu time spent up to now is      251.9 secs

     total energy              =   -8078.47218021 Ry
     estimated scf accuracy    <      16.70609838 Ry

     total magnetization       =    77.41 Bohr mag/cell
     absolute magnetization    =    89.02 Bohr mag/cell

     iteration # 14     ecut=    50.00 Ry     beta= 0.10
     Davidson diagonalization with overlap
     ethr =  1.51E-03,  avg # of iterations =  1.0

     negative rho (up, down):  2.108E-03 4.673E-03
 
     Adding external electric field

     Computed dipole along edir(3) : 
        Dipole               -0.5400 Ry au,         -1.3727 Debye
        Dipole field         -0.0003 Ry au, 
 
        Potential amp.        0.0354 Ry
        Total length         54.7057 bohr
 
 
     Adding external electric field

     Computed dipole along edir(3) : 
        Dipole               -0.5400 Ry au,         -1.3727 Debye
        Dipole field         -0.0003 Ry au, 
 
        Potential amp.        0.0354 Ry
        Total length         54.7057 bohr
 

     total cpu time spent up to now is      267.4 secs

     total energy              =   -8078.12323039 Ry
     estimated scf accuracy    <      16.27086516 Ry

     total magnetization       =    76.49 Bohr mag/cell
     absolute magnetization    =    87.59 Bohr mag/cell

     iteration # 15     ecut=    50.00 Ry     beta= 0.10
     Davidson diagonalization with overlap
     ethr =  1.47E-03,  avg # of iterations =  1.0

     negative rho (up, down):  1.903E-03 2.381E-03
 
     Adding external electric field

     Computed dipole along edir(3) : 
        Dipole               -0.6260 Ry au,         -1.5911 Debye
        Dipole field         -0.0004 Ry au, 
 
        Potential amp.        0.0411 Ry
        Total length         54.7057 bohr
 
 
     Adding external electric field

     Computed dipole along edir(3) : 
        Dipole               -0.6260 Ry au,         -1.5911 Debye
        Dipole field         -0.0004 Ry au, 
 
        Potential amp.        0.0411 Ry
        Total length         54.7057 bohr
 

     total cpu time spent up to now is      282.8 secs

     total energy              =   -8078.34925742 Ry
     estimated scf accuracy    <       7.73127400 Ry

     total magnetization       =    90.30 Bohr mag/cell
     absolute magnetization    =    98.46 Bohr mag/cell

     iteration # 16     ecut=    50.00 Ry     beta= 0.10
     Davidson diagonalization with overlap
     ethr =  6.98E-04,  avg # of iterations =  1.0

     negative rho (up, down):  1.507E-03 1.994E-03
 
     Adding external electric field

     Computed dipole along edir(3) : 
        Dipole               -0.6931 Ry au,         -1.7617 Debye
        Dipole field         -0.0004 Ry au, 
 
        Potential amp.        0.0455 Ry
        Total length         54.7057 bohr
 
 
     Adding external electric field

     Computed dipole along edir(3) : 
        Dipole               -0.6931 Ry au,         -1.7617 Debye
        Dipole field         -0.0004 Ry au, 
 
        Potential amp.        0.0455 Ry
        Total length         54.7057 bohr
 

     total cpu time spent up to now is      298.3 secs

     total energy              =   -8078.40325431 Ry
     estimated scf accuracy    <       7.25562800 Ry

     total magnetization       =    90.70 Bohr mag/cell
     absolute magnetization    =    99.58 Bohr mag/cell

     iteration # 17     ecut=    50.00 Ry     beta= 0.10
     Davidson diagonalization with overlap
     ethr =  6.55E-04,  avg # of iterations =  1.0

     negative rho (up, down):  1.570E-03 1.438E-03
 
     Adding external electric field

     Computed dipole along edir(3) : 
        Dipole               -0.6327 Ry au,         -1.6081 Debye
        Dipole field         -0.0004 Ry au, 
 
        Potential amp.        0.0415 Ry
        Total length         54.7057 bohr
 
 
     Adding external electric field

     Computed dipole along edir(3) : 
        Dipole               -0.6327 Ry au,         -1.6081 Debye
        Dipole field         -0.0004 Ry au, 
 
        Potential amp.        0.0415 Ry
        Total length         54.7057 bohr
 

     total cpu time spent up to now is      313.8 secs

     total energy              =   -8078.29701463 Ry
     estimated scf accuracy    <       9.75677637 Ry

     total magnetization       =    88.67 Bohr mag/cell
     absolute magnetization    =    98.07 Bohr mag/cell

     iteration # 18     ecut=    50.00 Ry     beta= 0.10
     Davidson diagonalization with overlap
     ethr =  6.55E-04,  avg # of iterations =  1.0

     negative rho (up, down):  3.342E-03 6.428E-03
 
     Adding external electric field

     Computed dipole along edir(3) : 
        Dipole               -0.3739 Ry au,         -0.9503 Debye
        Dipole field         -0.0002 Ry au, 
 
        Potential amp.        0.0245 Ry
        Total length         54.7057 bohr
 
 
     Adding external electric field

     Computed dipole along edir(3) : 
        Dipole               -0.3739 Ry au,         -0.9503 Debye
        Dipole field         -0.0002 Ry au, 
 
        Potential amp.        0.0245 Ry
        Total length         54.7057 bohr
 

     total cpu time spent up to now is      328.8 secs

     total energy              =   -8078.27701919 Ry
     estimated scf accuracy    <       6.56092819 Ry

     total magnetization       =    91.43 Bohr mag/cell
     absolute magnetization    =   100.38 Bohr mag/cell

     iteration # 19     ecut=    50.00 Ry     beta= 0.10
     Davidson diagonalization with overlap
     ethr =  5.92E-04,  avg # of iterations =  1.0

     negative rho (up, down):  2.796E-03 5.443E-03
 
     Adding external electric field

     Computed dipole along edir(3) : 
        Dipole               -0.4546 Ry au,         -1.1555 Debye
        Dipole field         -0.0003 Ry au, 
 
        Potential amp.        0.0298 Ry
        Total length         54.7057 bohr
 
 
     Adding external electric field

     Computed dipole along edir(3) : 
        Dipole               -0.4546 Ry au,         -1.1555 Debye
        Dipole field         -0.0003 Ry au, 
 
        Potential amp.        0.0298 Ry
        Total length         54.7057 bohr
 

     total cpu time spent up to now is      343.3 secs

     total energy              =   -8078.35330876 Ry
     estimated scf accuracy    <       3.34270134 Ry

     total magnetization       =    96.24 Bohr mag/cell
     absolute magnetization    =   102.18 Bohr mag/cell

     iteration # 20     ecut=    50.00 Ry     beta= 0.10
     Davidson diagonalization with overlap
     ethr =  3.02E-04,  avg # of iterations =  1.5

     negative rho (up, down):  3.196E-03 6.563E-03
 
     Adding external electric field

     Computed dipole along edir(3) : 
        Dipole               -0.4898 Ry au,         -1.2450 Debye
        Dipole field         -0.0003 Ry au, 
 
        Potential amp.        0.0321 Ry
        Total length         54.7057 bohr
 
 
     Adding external electric field

     Computed dipole along edir(3) : 
        Dipole               -0.4898 Ry au,         -1.2450 Debye
        Dipole field         -0.0003 Ry au, 
 
        Potential amp.        0.0321 Ry
        Total length         54.7057 bohr
 

     total cpu time spent up to now is      358.3 secs

     total energy              =   -8078.36533023 Ry
     estimated scf accuracy    <       3.63520364 Ry

     total magnetization       =    93.67 Bohr mag/cell
     absolute magnetization    =    99.86 Bohr mag/cell

     iteration # 21     ecut=    50.00 Ry     beta= 0.10
     Davidson diagonalization with overlap
     ethr =  3.02E-04,  avg # of iterations =  1.0

     negative rho (up, down):  3.031E-03 5.609E-03
 
     Adding external electric field

     Computed dipole along edir(3) : 
        Dipole               -0.5185 Ry au,         -1.3179 Debye
        Dipole field         -0.0003 Ry au, 
 
        Potential amp.        0.0340 Ry
        Total length         54.7057 bohr
 
 
     Adding external electric field

     Computed dipole along edir(3) : 
        Dipole               -0.5185 Ry au,         -1.3179 Debye
        Dipole field         -0.0003 Ry au, 
 
        Potential amp.        0.0340 Ry
        Total length         54.7057 bohr
 

     total cpu time spent up to now is      372.5 secs

     total energy              =   -8078.39847817 Ry
     estimated scf accuracy    <       1.38907807 Ry

     total magnetization       =    94.52 Bohr mag/cell
     absolute magnetization    =   100.30 Bohr mag/cell

     iteration # 22     ecut=    50.00 Ry     beta= 0.10
     Davidson diagonalization with overlap
     ethr =  1.25E-04,  avg # of iterations =  1.5

     negative rho (up, down):  2.065E-03 2.841E-03
 
     Adding external electric field

     Computed dipole along edir(3) : 
        Dipole               -0.6769 Ry au,         -1.7204 Debye
        Dipole field         -0.0004 Ry au, 
 
        Potential amp.        0.0444 Ry
        Total length         54.7057 bohr
 
 
     Adding external electric field

     Computed dipole along edir(3) : 
        Dipole               -0.6769 Ry au,         -1.7204 Debye
        Dipole field         -0.0004 Ry au, 
 
        Potential amp.        0.0444 Ry
        Total length         54.7057 bohr
 

     total cpu time spent up to now is      387.9 secs

     total energy              =   -8078.41417912 Ry
     estimated scf accuracy    <       1.22573566 Ry

     total magnetization       =    95.63 Bohr mag/cell
     absolute magnetization    =   100.93 Bohr mag/cell

     iteration # 23     ecut=    50.00 Ry     beta= 0.10
     Davidson diagonalization with overlap
     ethr =  1.11E-04,  avg # of iterations =  1.5

     negative rho (up, down):  1.810E-03 3.076E-03
 
     Adding external electric field

     Computed dipole along edir(3) : 
        Dipole               -0.7492 Ry au,         -1.9043 Debye
        Dipole field         -0.0004 Ry au, 
 
        Potential amp.        0.0491 Ry
        Total length         54.7057 bohr
 
 
     Adding external electric field

     Computed dipole along edir(3) : 
        Dipole               -0.7492 Ry au,         -1.9043 Debye
        Dipole field         -0.0004 Ry au, 
 
        Potential amp.        0.0491 Ry
        Total length         54.7057 bohr
 

     total cpu time spent up to now is      404.0 secs

     total energy              =   -8078.45808117 Ry
     estimated scf accuracy    <       0.55203086 Ry

     total magnetization       =    95.85 Bohr mag/cell
     absolute magnetization    =   100.30 Bohr mag/cell

     iteration # 24     ecut=    50.00 Ry     beta= 0.10
     Davidson diagonalization with overlap
     c_bands:  2 eigenvalues not converged
     ethr =  4.98E-05,  avg # of iterations = 11.0

     negative rho (up, down):  1.916E-03 3.205E-03
 
     Adding external electric field

     Computed dipole along edir(3) : 
        Dipole               -0.7094 Ry au,         -1.8032 Debye
        Dipole field         -0.0004 Ry au, 
 
        Potential amp.        0.0465 Ry
        Total length         54.7057 bohr
 
 
     Adding external electric field

     Computed dipole along edir(3) : 
        Dipole               -0.7094 Ry au,         -1.8032 Debye
        Dipole field         -0.0004 Ry au, 
 
        Potential amp.        0.0465 Ry
        Total length         54.7057 bohr
 

     total cpu time spent up to now is      432.9 secs

     total energy              =   -8078.47909207 Ry
     estimated scf accuracy    <       0.47488954 Ry

     total magnetization       =    94.49 Bohr mag/cell
     absolute magnetization    =    97.42 Bohr mag/cell

     iteration # 25     ecut=    50.00 Ry     beta= 0.10
     Davidson diagonalization with overlap
     ethr =  4.29E-05,  avg # of iterations =  1.5

     negative rho (up, down):  1.672E-03 2.230E-03
 
     Adding external electric field

     Computed dipole along edir(3) : 
        Dipole               -0.7466 Ry au,         -1.8976 Debye
        Dipole field         -0.0004 Ry au, 
 
        Potential amp.        0.0490 Ry
        Total length         54.7057 bohr
 
 
     Adding external electric field

     Computed dipole along edir(3) : 
        Dipole               -0.7466 Ry au,         -1.8976 Debye
        Dipole field         -0.0004 Ry au, 
 
        Potential amp.        0.0490 Ry
        Total length         54.7057 bohr
 

     total cpu time spent up to now is      449.7 secs

     total energy              =   -8078.48094928 Ry
     estimated scf accuracy    <       0.25477077 Ry

     total magnetization       =    95.48 Bohr mag/cell
     absolute magnetization    =    98.21 Bohr mag/cell

     iteration # 26     ecut=    50.00 Ry     beta= 0.10
     Davidson diagonalization with overlap
     ethr =  2.30E-05,  avg # of iterations = 12.0

     negative rho (up, down):  1.076E-03 1.392E-03
 
     Adding external electric field

     Computed dipole along edir(3) : 
        Dipole               -0.7389 Ry au,         -1.8782 Debye
        Dipole field         -0.0004 Ry au, 
 
        Potential amp.        0.0485 Ry
        Total length         54.7057 bohr
 
 
     Adding external electric field

     Computed dipole along edir(3) : 
        Dipole               -0.7389 Ry au,         -1.8782 Debye
        Dipole field         -0.0004 Ry au, 
 
        Potential amp.        0.0485 Ry
        Total length         54.7057 bohr
 

     total cpu time spent up to now is      480.3 secs

     total energy              =   -8078.49873395 Ry
     estimated scf accuracy    <       0.09345449 Ry

     total magnetization       =    96.11 Bohr mag/cell
     absolute magnetization    =    97.70 Bohr mag/cell

     iteration # 27     ecut=    50.00 Ry     beta= 0.10
     Davidson diagonalization with overlap
     ethr =  8.43E-06,  avg # of iterations =  8.5

     negative rho (up, down):  3.278E-04 3.666E-04
 
     Adding external electric field

     Computed dipole along edir(3) : 
        Dipole               -0.7217 Ry au,         -1.8344 Debye
        Dipole field         -0.0004 Ry au, 
 
        Potential amp.        0.0473 Ry
        Total length         54.7057 bohr
 
 
     Adding external electric field

     Computed dipole along edir(3) : 
        Dipole               -0.7217 Ry au,         -1.8344 Debye
        Dipole field         -0.0004 Ry au, 
 
        Potential amp.        0.0473 Ry
        Total length         54.7057 bohr
 

     total cpu time spent up to now is      501.6 secs

     total energy              =   -8078.49848040 Ry
     estimated scf accuracy    <       0.06917360 Ry

     total magnetization       =    95.92 Bohr mag/cell
     absolute magnetization    =    97.49 Bohr mag/cell

     iteration # 28     ecut=    50.00 Ry     beta= 0.10
     Davidson diagonalization with overlap
     ethr =  6.24E-06,  avg # of iterations =  2.0

     negative rho (up, down):  2.364E-04 2.200E-04
 
     Adding external electric field

     Computed dipole along edir(3) : 
        Dipole               -0.7233 Ry au,         -1.8383 Debye
        Dipole field         -0.0004 Ry au, 
 
        Potential amp.        0.0474 Ry
        Total length         54.7057 bohr
 
 
     Adding external electric field

     Computed dipole along edir(3) : 
        Dipole               -0.7233 Ry au,         -1.8383 Debye
        Dipole field         -0.0004 Ry au, 
 
        Potential amp.        0.0474 Ry
        Total length         54.7057 bohr
 

     total cpu time spent up to now is      518.3 secs

     total energy              =   -8078.49831196 Ry
     estimated scf accuracy    <       0.06152430 Ry

     total magnetization       =    95.80 Bohr mag/cell
     absolute magnetization    =    97.32 Bohr mag/cell

     iteration # 29     ecut=    50.00 Ry     beta= 0.10
     Davidson diagonalization with overlap
     ethr =  5.55E-06,  avg # of iterations =  1.5

     negative rho (up, down):  9.196E-05 4.211E-05
 
     Adding external electric field

     Computed dipole along edir(3) : 
        Dipole               -0.7177 Ry au,         -1.8243 Debye
        Dipole field         -0.0004 Ry au, 
 
        Potential amp.        0.0471 Ry
        Total length         54.7057 bohr
 
 
     Adding external electric field

     Computed dipole along edir(3) : 
        Dipole               -0.7177 Ry au,         -1.8243 Debye
        Dipole field         -0.0004 Ry au, 
 
        Potential amp.        0.0471 Ry
        Total length         54.7057 bohr
 

     total cpu time spent up to now is      534.2 secs

     total energy              =   -8078.49684502 Ry
     estimated scf accuracy    <       0.04113480 Ry

     total magnetization       =    95.79 Bohr mag/cell
     absolute magnetization    =    97.26 Bohr mag/cell

     iteration # 30     ecut=    50.00 Ry     beta= 0.10
     Davidson diagonalization with overlap
     ethr =  3.71E-06,  avg # of iterations =  2.0

     negative rho (up, down):  7.652E-05 8.480E-05
 
     Adding external electric field

     Computed dipole along edir(3) : 
        Dipole               -0.6946 Ry au,         -1.7655 Debye
        Dipole field         -0.0004 Ry au, 
 
        Potential amp.        0.0456 Ry
        Total length         54.7057 bohr
 
 
     Adding external electric field

     Computed dipole along edir(3) : 
        Dipole               -0.6946 Ry au,         -1.7655 Debye
        Dipole field         -0.0004 Ry au, 
 
        Potential amp.        0.0456 Ry
        Total length         54.7057 bohr
 

     total cpu time spent up to now is      552.3 secs

     total energy              =   -8078.49486302 Ry
     estimated scf accuracy    <       0.02597498 Ry

     total magnetization       =    95.80 Bohr mag/cell
     absolute magnetization    =    97.28 Bohr mag/cell

     iteration # 31     ecut=    50.00 Ry     beta= 0.10
     Davidson diagonalization with overlap
     c_bands:  2 eigenvalues not converged
     ethr =  2.34E-06,  avg # of iterations = 26.0

     negative rho (up, down):  1.854E-04 2.321E-04
 
     Adding external electric field

     Computed dipole along edir(3) : 
        Dipole               -0.6813 Ry au,         -1.7316 Debye
        Dipole field         -0.0004 Ry au, 
 
        Potential amp.        0.0447 Ry
        Total length         54.7057 bohr
 
 
     Adding external electric field

     Computed dipole along edir(3) : 
        Dipole               -0.6813 Ry au,         -1.7316 Debye
        Dipole field         -0.0004 Ry au, 
 
        Potential amp.        0.0447 Ry
        Total length         54.7057 bohr
 

     total cpu time spent up to now is      597.6 secs

     total energy              =   -8078.49460942 Ry
     estimated scf accuracy    <       0.02066210 Ry

     total magnetization       =    95.86 Bohr mag/cell
     absolute magnetization    =    97.37 Bohr mag/cell

     iteration # 32     ecut=    50.00 Ry     beta= 0.10
     Davidson diagonalization with overlap
     ethr =  1.86E-06,  avg # of iterations =  2.0

     negative rho (up, down):  1.847E-04 2.482E-04
 
     Adding external electric field

     Computed dipole along edir(3) : 
        Dipole               -0.6785 Ry au,         -1.7245 Debye
        Dipole field         -0.0004 Ry au, 
 
        Potential amp.        0.0445 Ry
        Total length         54.7057 bohr
 
 
     Adding external electric field

     Computed dipole along edir(3) : 
        Dipole               -0.6785 Ry au,         -1.7245 Debye
        Dipole field         -0.0004 Ry au, 
 
        Potential amp.        0.0445 Ry
        Total length         54.7057 bohr
 

     total cpu time spent up to now is      615.0 secs

     total energy              =   -8078.49475035 Ry
     estimated scf accuracy    <       0.01941226 Ry

     total magnetization       =    95.96 Bohr mag/cell
     absolute magnetization    =    97.46 Bohr mag/cell

     iteration # 33     ecut=    50.00 Ry     beta= 0.10
     Davidson diagonalization with overlap
     ethr =  1.75E-06,  avg # of iterations =  1.0

     negative rho (up, down):  1.752E-04 2.870E-04
 
     Adding external electric field

     Computed dipole along edir(3) : 
        Dipole               -0.6541 Ry au,         -1.6624 Debye
        Dipole field         -0.0004 Ry au, 
 
        Potential amp.        0.0429 Ry
        Total length         54.7057 bohr
 
 
     Adding external electric field

     Computed dipole along edir(3) : 
        Dipole               -0.6541 Ry au,         -1.6624 Debye
        Dipole field         -0.0004 Ry au, 
 
        Potential amp.        0.0429 Ry
        Total length         54.7057 bohr
 

     total cpu time spent up to now is      629.5 secs

     total energy              =   -8078.49476810 Ry
     estimated scf accuracy    <       0.01853345 Ry

     total magnetization       =    95.92 Bohr mag/cell
     absolute magnetization    =    97.41 Bohr mag/cell

     iteration # 34     ecut=    50.00 Ry     beta= 0.10
     Davidson diagonalization with overlap
     ethr =  1.67E-06,  avg # of iterations =  2.5

     negative rho (up, down):  5.372E-04 6.962E-04
 
     Adding external electric field

     Computed dipole along edir(3) : 
        Dipole               -0.6111 Ry au,         -1.5532 Debye
        Dipole field         -0.0004 Ry au, 
 
        Potential amp.        0.0401 Ry
        Total length         54.7057 bohr
 
 
     Adding external electric field

     Computed dipole along edir(3) : 
        Dipole               -0.6111 Ry au,         -1.5532 Debye
        Dipole field         -0.0004 Ry au, 
 
        Potential amp.        0.0401 Ry
        Total length         54.7057 bohr
 

     total cpu time spent up to now is      646.8 secs

     total energy              =   -8078.49564432 Ry
     estimated scf accuracy    <       0.01700173 Ry

     total magnetization       =    95.88 Bohr mag/cell
     absolute magnetization    =    97.36 Bohr mag/cell

     iteration # 35     ecut=    50.00 Ry     beta= 0.10
     Davidson diagonalization with overlap
     ethr =  1.53E-06,  avg # of iterations =  3.0

     negative rho (up, down):  2.640E-04 3.154E-04
 
     Adding external electric field

     Computed dipole along edir(3) : 
        Dipole               -0.6187 Ry au,         -1.5725 Debye
        Dipole field         -0.0004 Ry au, 
 
        Potential amp.        0.0406 Ry
        Total length         54.7057 bohr
 
 
     Adding external electric field

     Computed dipole along edir(3) : 
        Dipole               -0.6187 Ry au,         -1.5725 Debye
        Dipole field         -0.0004 Ry au, 
 
        Potential amp.        0.0406 Ry
        Total length         54.7057 bohr
 

     total cpu time spent up to now is      664.7 secs

     total energy              =   -8078.49583729 Ry
     estimated scf accuracy    <       0.01582065 Ry

     total magnetization       =    95.79 Bohr mag/cell
     absolute magnetization    =    97.34 Bohr mag/cell

     iteration # 36     ecut=    50.00 Ry     beta= 0.10
     Davidson diagonalization with overlap
     ethr =  1.43E-06,  avg # of iterations =  1.5

     negative rho (up, down):  4.226E-04 5.178E-04
 
     Adding external electric field

     Computed dipole along edir(3) : 
        Dipole               -0.6137 Ry au,         -1.5599 Debye
        Dipole field         -0.0004 Ry au, 
 
        Potential amp.        0.0403 Ry
        Total length         54.7057 bohr
 
 
     Adding external electric field

     Computed dipole along edir(3) : 
        Dipole               -0.6137 Ry au,         -1.5599 Debye
        Dipole field         -0.0004 Ry au, 
 
        Potential amp.        0.0403 Ry
        Total length         54.7057 bohr
 

     total cpu time spent up to now is      680.0 secs

     total energy              =   -8078.49576574 Ry
     estimated scf accuracy    <       0.01555346 Ry

     total magnetization       =    95.87 Bohr mag/cell
     absolute magnetization    =    97.42 Bohr mag/cell

     iteration # 37     ecut=    50.00 Ry     beta= 0.10
     Davidson diagonalization with overlap
     ethr =  1.40E-06,  avg # of iterations =  2.0

     negative rho (up, down):  2.993E-04 3.799E-04
 
     Adding external electric field

     Computed dipole along edir(3) : 
        Dipole               -0.6099 Ry au,         -1.5501 Debye
        Dipole field         -0.0004 Ry au, 
 
        Potential amp.        0.0400 Ry
        Total length         54.7057 bohr
 
 
     Adding external electric field

     Computed dipole along edir(3) : 
        Dipole               -0.6099 Ry au,         -1.5501 Debye
        Dipole field         -0.0004 Ry au, 
 
        Potential amp.        0.0400 Ry
        Total length         54.7057 bohr
 

     total cpu time spent up to now is      697.5 secs

     total energy              =   -8078.49603910 Ry
     estimated scf accuracy    <       0.01490326 Ry

     total magnetization       =    95.86 Bohr mag/cell
     absolute magnetization    =    97.41 Bohr mag/cell

     iteration # 38     ecut=    50.00 Ry     beta= 0.10
     Davidson diagonalization with overlap
     ethr =  1.35E-06,  avg # of iterations =  1.5

     negative rho (up, down):  4.161E-05 7.693E-05
 
     Adding external electric field

     Computed dipole along edir(3) : 
        Dipole               -0.5963 Ry au,         -1.5157 Debye
        Dipole field         -0.0004 Ry au, 
 
        Potential amp.        0.0391 Ry
        Total length         54.7057 bohr
 
 
     Adding external electric field

     Computed dipole along edir(3) : 
        Dipole               -0.5963 Ry au,         -1.5157 Debye
        Dipole field         -0.0004 Ry au, 
 
        Potential amp.        0.0391 Ry
        Total length         54.7057 bohr
 

     total cpu time spent up to now is      713.7 secs

     total energy              =   -8078.49655887 Ry
     estimated scf accuracy    <       0.01454243 Ry

     total magnetization       =    95.86 Bohr mag/cell
     absolute magnetization    =    97.42 Bohr mag/cell

     iteration # 39     ecut=    50.00 Ry     beta= 0.10
     Davidson diagonalization with overlap
     ethr =  1.31E-06,  avg # of iterations =  2.0

     negative rho (up, down):  1.707E-04 2.569E-04
 
     Adding external electric field

     Computed dipole along edir(3) : 
        Dipole               -0.5831 Ry au,         -1.4820 Debye
        Dipole field         -0.0003 Ry au, 
 
        Potential amp.        0.0382 Ry
        Total length         54.7057 bohr
 
 
     Adding external electric field

     Computed dipole along edir(3) : 
        Dipole               -0.5831 Ry au,         -1.4820 Debye
        Dipole field         -0.0003 Ry au, 
 
        Potential amp.        0.0382 Ry
        Total length         54.7057 bohr
 

     total cpu time spent up to now is      730.9 secs

     total energy              =   -8078.49667805 Ry
     estimated scf accuracy    <       0.01414618 Ry

     total magnetization       =    95.85 Bohr mag/cell
     absolute magnetization    =    97.45 Bohr mag/cell

     iteration # 40     ecut=    50.00 Ry     beta= 0.10
     Davidson diagonalization with overlap
     ethr =  1.28E-06,  avg # of iterations =  1.5

     negative rho (up, down):  3.052E-05 3.582E-05
 
     Adding external electric field

     Computed dipole along edir(3) : 
        Dipole               -0.6052 Ry au,         -1.5382 Debye
        Dipole field         -0.0004 Ry au, 
 
        Potential amp.        0.0397 Ry
        Total length         54.7057 bohr
 
 
     Adding external electric field

     Computed dipole along edir(3) : 
        Dipole               -0.6052 Ry au,         -1.5382 Debye
        Dipole field         -0.0004 Ry au, 
 
        Potential amp.        0.0397 Ry
        Total length         54.7057 bohr
 

     total cpu time spent up to now is      746.8 secs

     total energy              =   -8078.49692470 Ry
     estimated scf accuracy    <       0.01522855 Ry

     total magnetization       =    95.89 Bohr mag/cell
     absolute magnetization    =    97.52 Bohr mag/cell

     iteration # 41     ecut=    50.00 Ry     beta= 0.10
     Davidson diagonalization with overlap
     ethr =  1.28E-06,  avg # of iterations =  1.0

     negative rho (up, down):  2.492E-05 4.208E-05
 
     Adding external electric field

     Computed dipole along edir(3) : 
        Dipole               -0.5961 Ry au,         -1.5151 Debye
        Dipole field         -0.0004 Ry au, 
 
        Potential amp.        0.0391 Ry
        Total length         54.7057 bohr
 
 
     Adding external electric field

     Computed dipole along edir(3) : 
        Dipole               -0.5961 Ry au,         -1.5151 Debye
        Dipole field         -0.0004 Ry au, 
 
        Potential amp.        0.0391 Ry
        Total length         54.7057 bohr
 

     total cpu time spent up to now is      761.0 secs

     total energy              =   -8078.49683131 Ry
     estimated scf accuracy    <       0.01603302 Ry

     total magnetization       =    95.90 Bohr mag/cell
     absolute magnetization    =    97.55 Bohr mag/cell

     iteration # 42     ecut=    50.00 Ry     beta= 0.10
     Davidson diagonalization with overlap
     ethr =  1.28E-06,  avg # of iterations =  1.5

     negative rho (up, down):  3.205E-07 2.485E-07
 
     Adding external electric field

     Computed dipole along edir(3) : 
        Dipole               -0.5919 Ry au,         -1.5045 Debye
        Dipole field         -0.0004 Ry au, 
 
        Potential amp.        0.0388 Ry
        Total length         54.7057 bohr
 
 
     Adding external electric field

     Computed dipole along edir(3) : 
        Dipole               -0.5919 Ry au,         -1.5045 Debye
        Dipole field         -0.0004 Ry au, 
 
        Potential amp.        0.0388 Ry
        Total length         54.7057 bohr
 

     total cpu time spent up to now is      777.0 secs

     total energy              =   -8078.49653798 Ry
     estimated scf accuracy    <       0.01485450 Ry

     total magnetization       =    95.86 Bohr mag/cell
     absolute magnetization    =    97.49 Bohr mag/cell

     iteration # 43     ecut=    50.00 Ry     beta= 0.10
     Davidson diagonalization with overlap
     ethr =  1.28E-06,  avg # of iterations =  1.0

     negative rho (up, down):  6.555E-05 6.547E-05
 
     Adding external electric field

     Computed dipole along edir(3) : 
        Dipole               -0.5976 Ry au,         -1.5190 Debye
        Dipole field         -0.0004 Ry au, 
 
        Potential amp.        0.0392 Ry
        Total length         54.7057 bohr
 
 
     Adding external electric field

     Computed dipole along edir(3) : 
        Dipole               -0.5976 Ry au,         -1.5190 Debye
        Dipole field         -0.0004 Ry au, 
 
        Potential amp.        0.0392 Ry
        Total length         54.7057 bohr
 

     total cpu time spent up to now is      792.1 secs

     total energy              =   -8078.49708280 Ry
     estimated scf accuracy    <       0.01526403 Ry

     total magnetization       =    95.86 Bohr mag/cell
     absolute magnetization    =    97.46 Bohr mag/cell

     iteration # 44     ecut=    50.00 Ry     beta= 0.10
     Davidson diagonalization with overlap
     ethr =  1.28E-06,  avg # of iterations =  2.0

     negative rho (up, down):  1.228E-05 3.975E-05
 
     Adding external electric field

     Computed dipole along edir(3) : 
        Dipole               -0.5916 Ry au,         -1.5038 Debye
        Dipole field         -0.0004 Ry au, 
 
        Potential amp.        0.0388 Ry
        Total length         54.7057 bohr
 
 
     Adding external electric field

     Computed dipole along edir(3) : 
        Dipole               -0.5916 Ry au,         -1.5038 Debye
        Dipole field         -0.0004 Ry au, 
 
        Potential amp.        0.0388 Ry
        Total length         54.7057 bohr
 

     total cpu time spent up to now is      809.5 secs

     total energy              =   -8078.49682960 Ry
     estimated scf accuracy    <       0.01602295 Ry

     total magnetization       =    95.86 Bohr mag/cell
     absolute magnetization    =    97.53 Bohr mag/cell

     iteration # 45     ecut=    50.00 Ry     beta= 0.10
     Davidson diagonalization with overlap
     ethr =  1.28E-06,  avg # of iterations =  1.5

     negative rho (up, down):  1.080E-06 2.143E-06
 
     Adding external electric field

     Computed dipole along edir(3) : 
        Dipole               -0.6012 Ry au,         -1.5282 Debye
        Dipole field         -0.0004 Ry au, 
 
        Potential amp.        0.0394 Ry
        Total length         54.7057 bohr
 
 
     Adding external electric field

     Computed dipole along edir(3) : 
        Dipole               -0.6012 Ry au,         -1.5282 Debye
        Dipole field         -0.0004 Ry au, 
 
        Potential amp.        0.0394 Ry
        Total length         54.7057 bohr
 

     total cpu time spent up to now is      825.5 secs

     total energy              =   -8078.49701105 Ry
     estimated scf accuracy    <       0.01543990 Ry

     total magnetization       =    95.88 Bohr mag/cell
     absolute magnetization    =    97.52 Bohr mag/cell

     iteration # 46     ecut=    50.00 Ry     beta= 0.10
     Davidson diagonalization with overlap
     ethr =  1.28E-06,  avg # of iterations =  2.0

     negative rho (up, down):  5.565E-06 2.182E-05
 
     Adding external electric field

     Computed dipole along edir(3) : 
        Dipole               -0.6012 Ry au,         -1.5280 Debye
        Dipole field         -0.0004 Ry au, 
 
        Potential amp.        0.0394 Ry
        Total length         54.7057 bohr
 
 
     Adding external electric field

     Computed dipole along edir(3) : 
        Dipole               -0.6012 Ry au,         -1.5280 Debye
        Dipole field         -0.0004 Ry au, 
 
        Potential amp.        0.0394 Ry
        Total length         54.7057 bohr
 

     total cpu time spent up to now is      842.5 secs

     total energy              =   -8078.49704181 Ry
     estimated scf accuracy    <       0.01417372 Ry

     total magnetization       =    95.88 Bohr mag/cell
     absolute magnetization    =    97.51 Bohr mag/cell

     iteration # 47     ecut=    50.00 Ry     beta= 0.10
     Davidson diagonalization with overlap
     ethr =  1.28E-06,  avg # of iterations =  1.0

     negative rho (up, down):  6.080E-05 1.235E-04
 
     Adding external electric field

     Computed dipole along edir(3) : 
        Dipole               -0.6106 Ry au,         -1.5520 Debye
        Dipole field         -0.0004 Ry au, 
 
        Potential amp.        0.0400 Ry
        Total length         54.7057 bohr
 
 
     Adding external electric field

     Computed dipole along edir(3) : 
        Dipole               -0.6106 Ry au,         -1.5520 Debye
        Dipole field         -0.0004 Ry au, 
 
        Potential amp.        0.0400 Ry
        Total length         54.7057 bohr
 

     total cpu time spent up to now is      857.6 secs

     total energy              =   -8078.49676028 Ry
     estimated scf accuracy    <       0.01376077 Ry

     total magnetization       =    95.86 Bohr mag/cell
     absolute magnetization    =    97.49 Bohr mag/cell

     iteration # 48     ecut=    50.00 Ry     beta= 0.10
     Davidson diagonalization with overlap
     ethr =  1.24E-06,  avg # of iterations =  1.0

     negative rho (up, down):  1.413E-06 3.631E-06
 
     Adding external electric field

     Computed dipole along edir(3) : 
        Dipole               -0.5954 Ry au,         -1.5133 Debye
        Dipole field         -0.0004 Ry au, 
 
        Potential amp.        0.0390 Ry
        Total length         54.7057 bohr
 
 
     Adding external electric field

     Computed dipole along edir(3) : 
        Dipole               -0.5954 Ry au,         -1.5133 Debye
        Dipole field         -0.0004 Ry au, 
 
        Potential amp.        0.0390 Ry
        Total length         54.7057 bohr
 

     total cpu time spent up to now is      873.0 secs

     total energy              =   -8078.49701070 Ry
     estimated scf accuracy    <       0.01418629 Ry

     total magnetization       =    95.86 Bohr mag/cell
     absolute magnetization    =    97.46 Bohr mag/cell

     iteration # 49     ecut=    50.00 Ry     beta= 0.10
     Davidson diagonalization with overlap
     ethr =  1.24E-06,  avg # of iterations =  1.5

     negative rho (up, down):  1.042E-06 1.891E-06
 
     Adding external electric field

     Computed dipole along edir(3) : 
        Dipole               -0.5998 Ry au,         -1.5245 Debye
        Dipole field         -0.0004 Ry au, 
 
        Potential amp.        0.0393 Ry
        Total length         54.7057 bohr
 
 
     Adding external electric field

     Computed dipole along edir(3) : 
        Dipole               -0.5998 Ry au,         -1.5245 Debye
        Dipole field         -0.0004 Ry au, 
 
        Potential amp.        0.0393 Ry
        Total length         54.7057 bohr
 

     total cpu time spent up to now is      888.7 secs

     total energy              =   -8078.49704725 Ry
     estimated scf accuracy    <       0.01382039 Ry

     total magnetization       =    95.87 Bohr mag/cell
     absolute magnetization    =    97.50 Bohr mag/cell

     iteration # 50     ecut=    50.00 Ry     beta= 0.10
     Davidson diagonalization with overlap
     ethr =  1.24E-06,  avg # of iterations =  1.0

     negative rho (up, down):  3.329E-07 1.997E-07
 
     Adding external electric field

     Computed dipole along edir(3) : 
        Dipole               -0.6145 Ry au,         -1.5619 Debye
        Dipole field         -0.0004 Ry au, 
 
        Potential amp.        0.0403 Ry
        Total length         54.7057 bohr
 
 
     Adding external electric field

     Computed dipole along edir(3) : 
        Dipole               -0.6145 Ry au,         -1.5619 Debye
        Dipole field         -0.0004 Ry au, 
 
        Potential amp.        0.0403 Ry
        Total length         54.7057 bohr
 

     total cpu time spent up to now is      902.7 secs

     total energy              =   -8078.49735959 Ry
     estimated scf accuracy    <       0.01387252 Ry

     total magnetization       =    95.88 Bohr mag/cell
     absolute magnetization    =    97.50 Bohr mag/cell

     iteration # 51     ecut=    50.00 Ry     beta= 0.10
     Davidson diagonalization with overlap
     ethr =  1.24E-06,  avg # of iterations =  1.5

     negative rho (up, down):  2.713E-07 5.166E-07
 
     Adding external electric field

     Computed dipole along edir(3) : 
        Dipole               -0.5950 Ry au,         -1.5123 Debye
        Dipole field         -0.0004 Ry au, 
 
        Potential amp.        0.0390 Ry
        Total length         54.7057 bohr
 
 
     Adding external electric field

     Computed dipole along edir(3) : 
        Dipole               -0.5950 Ry au,         -1.5123 Debye
        Dipole field         -0.0004 Ry au, 
 
        Potential amp.        0.0390 Ry
        Total length         54.7057 bohr
 

     total cpu time spent up to now is      919.1 secs

     total energy              =   -8078.49710279 Ry
     estimated scf accuracy    <       0.01415021 Ry

     total magnetization       =    95.87 Bohr mag/cell
     absolute magnetization    =    97.50 Bohr mag/cell

     iteration # 52     ecut=    50.00 Ry     beta= 0.10
     Davidson diagonalization with overlap
     ethr =  1.24E-06,  avg # of iterations =  1.0

     negative rho (up, down):  1.495E-05 2.555E-05
 
     Adding external electric field

     Computed dipole along edir(3) : 
        Dipole               -0.6064 Ry au,         -1.5414 Debye
        Dipole field         -0.0004 Ry au, 
 
        Potential amp.        0.0398 Ry
        Total length         54.7057 bohr
 
 
     Adding external electric field

     Computed dipole along edir(3) : 
        Dipole               -0.6064 Ry au,         -1.5414 Debye
        Dipole field         -0.0004 Ry au, 
 
        Potential amp.        0.0398 Ry
        Total length         54.7057 bohr
 

     total cpu time spent up to now is      934.8 secs

     total energy              =   -8078.49723310 Ry
     estimated scf accuracy    <       0.01519845 Ry

     total magnetization       =    95.85 Bohr mag/cell
     absolute magnetization    =    97.51 Bohr mag/cell

     iteration # 53     ecut=    50.00 Ry     beta= 0.10
     Davidson diagonalization with overlap
     ethr =  1.24E-06,  avg # of iterations =  1.5

     negative rho (up, down):  3.587E-06 6.502E-06
 
     Adding external electric field

     Computed dipole along edir(3) : 
        Dipole               -0.6085 Ry au,         -1.5466 Debye
        Dipole field         -0.0004 Ry au, 
 
        Potential amp.        0.0399 Ry
        Total length         54.7057 bohr
 
 
     Adding external electric field

     Computed dipole along edir(3) : 
        Dipole               -0.6085 Ry au,         -1.5466 Debye
        Dipole field         -0.0004 Ry au, 
 
        Potential amp.        0.0399 Ry
        Total length         54.7057 bohr
 

     total cpu time spent up to now is      950.9 secs

     total energy              =   -8078.49693445 Ry
     estimated scf accuracy    <       0.01478299 Ry

     total magnetization       =    95.89 Bohr mag/cell
     absolute magnetization    =    97.57 Bohr mag/cell

     iteration # 54     ecut=    50.00 Ry     beta= 0.10
     Davidson diagonalization with overlap
     ethr =  1.24E-06,  avg # of iterations =  1.0

     negative rho (up, down):  8.320E-07 3.057E-06
 
     Adding external electric field

     Computed dipole along edir(3) : 
        Dipole               -0.5849 Ry au,         -1.4867 Debye
        Dipole field         -0.0004 Ry au, 
 
        Potential amp.        0.0384 Ry
        Total length         54.7057 bohr
 
 
     Adding external electric field

     Computed dipole along edir(3) : 
        Dipole               -0.5849 Ry au,         -1.4867 Debye
        Dipole field         -0.0004 Ry au, 
 
        Potential amp.        0.0384 Ry
        Total length         54.7057 bohr
 

     total cpu time spent up to now is      966.0 secs

     total energy              =   -8078.49678977 Ry
     estimated scf accuracy    <       0.01384911 Ry

     total magnetization       =    95.91 Bohr mag/cell
     absolute magnetization    =    97.53 Bohr mag/cell

     iteration # 55     ecut=    50.00 Ry     beta= 0.10
     Davidson diagonalization with overlap
     ethr =  1.24E-06,  avg # of iterations =  1.0

     negative rho (up, down):  6.624E-06 2.987E-05
 
     Adding external electric field

     Computed dipole along edir(3) : 
        Dipole               -0.6046 Ry au,         -1.5367 Debye
        Dipole field         -0.0004 Ry au, 
 
        Potential amp.        0.0397 Ry
        Total length         54.7057 bohr
 
 
     Adding external electric field

     Computed dipole along edir(3) : 
        Dipole               -0.6046 Ry au,         -1.5367 Debye
        Dipole field         -0.0004 Ry au, 
 
        Potential amp.        0.0397 Ry
        Total length         54.7057 bohr
 

     total cpu time spent up to now is      980.8 secs

     total energy              =   -8078.49698678 Ry
     estimated scf accuracy    <       0.01452563 Ry

     total magnetization       =    95.88 Bohr mag/cell
     absolute magnetization    =    97.50 Bohr mag/cell

     iteration # 56     ecut=    50.00 Ry     beta= 0.10
     Davidson diagonalization with overlap
     ethr =  1.24E-06,  avg # of iterations =  1.0

     negative rho (up, down):  2.647E-06 2.133E-06
 
     Adding external electric field

     Computed dipole along edir(3) : 
        Dipole               -0.6046 Ry au,         -1.5367 Debye
        Dipole field         -0.0004 Ry au, 
 
        Potential amp.        0.0397 Ry
        Total length         54.7057 bohr
 
 
     Adding external electric field

     Computed dipole along edir(3) : 
        Dipole               -0.6046 Ry au,         -1.5367 Debye
        Dipole field         -0.0004 Ry au, 
 
        Potential amp.        0.0397 Ry
        Total length         54.7057 bohr
 

     total cpu time spent up to now is      995.4 secs

     total energy              =   -8078.49678597 Ry
     estimated scf accuracy    <       0.01388190 Ry

     total magnetization       =    95.84 Bohr mag/cell
     absolute magnetization    =    97.46 Bohr mag/cell

     iteration # 57     ecut=    50.00 Ry     beta= 0.10
     Davidson diagonalization with overlap
     ethr =  1.24E-06,  avg # of iterations =  1.0

     negative rho (up, down):  1.036E-06 8.308E-07
 
     Adding external electric field

     Computed dipole along edir(3) : 
        Dipole               -0.5974 Ry au,         -1.5186 Debye
        Dipole field         -0.0004 Ry au, 
 
        Potential amp.        0.0392 Ry
        Total length         54.7057 bohr
 
 
     Adding external electric field

     Computed dipole along edir(3) : 
        Dipole               -0.5974 Ry au,         -1.5186 Debye
        Dipole field         -0.0004 Ry au, 
 
        Potential amp.        0.0392 Ry
        Total length         54.7057 bohr
 

     total cpu time spent up to now is     1010.5 secs

     total energy              =   -8078.49701441 Ry
     estimated scf accuracy    <       0.01382464 Ry

     total magnetization       =    95.90 Bohr mag/cell
     absolute magnetization    =    97.49 Bohr mag/cell

     iteration # 58     ecut=    50.00 Ry     beta= 0.10
     Davidson diagonalization with overlap
     ethr =  1.24E-06,  avg # of iterations =  1.0

     negative rho (up, down):  1.350E-05 2.955E-05
 
[...]
     atom   99 type  4   force =     0.00073311   -0.00009380    0.00066336
     atom  100 type  4   force =     0.00018542    0.00045014   -0.00040083
     atom  101 type  4   force =    -0.00058009    0.00000462   -0.00021382
     atom  102 type  4   force =     0.00131617   -0.00100841   -0.00046505
     atom  103 type  4   force =     0.00037462    0.00016239    0.00035540
     atom  104 type  4   force =    -0.00011563   -0.00061242   -0.00014022
     atom  105 type  1   force =    -0.00073212    0.00203938   -0.00655046
     atom  106 type  1   force =     0.02819490    0.01367715    0.02204328
     atom  107 type  2   force =     0.00167813    0.00023190   -0.01036246
     atom  108 type  1   force =    -0.03103576    0.02295350    0.01680173
     atom  109 type  1   force =     0.00410144   -0.00290431   -0.00328610
     atom  110 type  1   force =    -0.00129093   -0.00643887   -0.00536473
     atom  111 type  1   force =    -0.00377553    0.00238057   -0.00576214
     atom  112 type  2   force =     0.03228978    0.01649769   -0.01033984
     atom  113 type  2   force =     0.00150220    0.00101359   -0.00993375
     atom  114 type  1   force =    -0.03188221    0.02424151    0.01773365
     atom  115 type  1   force =     0.00355585   -0.00481961   -0.00424899
     atom  116 type  1   force =    -0.00489038   -0.00806252   -0.00650832
     atom  117 type  3   force =    -0.02900041   -0.03571195   -0.06277298
     atom  118 type  3   force =     0.00317485    0.00035703   -0.00698840
     atom  119 type  3   force =     0.00071667   -0.00068673   -0.00916883
     atom  120 type  3   force =     0.02798300   -0.05775376   -0.08373371
     atom  121 type  4   force =    -0.00652670   -0.00321725    0.03050378
     atom  122 type  4   force =    -0.00142521   -0.00113467    0.00260401
     atom  123 type  4   force =     0.00159501   -0.00099655    0.00488022
     atom  124 type  4   force =     0.00355851    0.00313799    0.03402809
     atom  125 type  4   force =    -0.00225603   -0.00226643    0.03406722
     atom  126 type  4   force =    -0.00084623    0.00067358    0.00299793
     atom  127 type  4   force =     0.00216945    0.00309272    0.00434075
     atom  128 type  4   force =    -0.00315422   -0.00172279    0.02227230
     atom  129 type  4   force =    -0.01248066    0.03641029    0.00495394
     atom  130 type  4   force =    -0.00150039    0.00037441    0.00239467
     atom  131 type  4   force =    -0.01946803    0.00356782    0.00994098
     atom  132 type  4   force =    -0.00104821    0.00353375    0.00436815
     atom  133 type  4   force =    -0.00291124    0.00063703    0.00243782
     atom  134 type  4   force =     0.00146978   -0.00435787    0.00355485
     atom  135 type  4   force =     0.01378949    0.02360902   -0.00090662
     atom  136 type  4   force =     0.01322108   -0.00064379    0.00240390
     atom  137 type  3   force =    -0.03818630   -0.04127312   -0.06618252
     atom  138 type  3   force =     0.00646277   -0.00302374   -0.00142542
     atom  139 type  3   force =     0.00028457   -0.00157522   -0.00940694
     atom  140 type  3   force =     0.02906487   -0.05119568   -0.08329114
     atom  141 type  4   force =    -0.00103210    0.00274462    0.02935976
     atom  142 type  4   force =     0.00046462    0.00236526   -0.00626707
     atom  143 type  4   force =     0.00165069   -0.00085430    0.00427028
     atom  144 type  4   force =     0.00422666    0.00182059    0.03462302
     atom  145 type  4   force =     0.00898824    0.00384444    0.03122830
     atom  146 type  4   force =    -0.00029239    0.00054438    0.00174825
     atom  147 type  4   force =     0.00267577    0.00341813    0.00398960
     atom  148 type  4   force =    -0.00395104   -0.00137627    0.02220208
     atom  149 type  4   force =    -0.00995452    0.03019289    0.00424794
     atom  150 type  4   force =    -0.00192027    0.00043363    0.00282634
     atom  151 type  4   force =    -0.01855799    0.00503824    0.00990523
     atom  152 type  4   force =    -0.00081436    0.00343597    0.00434964
     atom  153 type  4   force =    -0.00131804    0.00026726    0.00300105
     atom  154 type  4   force =     0.00212993   -0.00253389    0.00286055
     atom  155 type  4   force =     0.01473708    0.02463352    0.00016024
     atom  156 type  4   force =     0.02238330   -0.00366660    0.00144249
     atom  157 type  4   force =     0.00014063   -0.00001710   -0.00009746
     atom  158 type  5   force =    -0.00059219   -0.00052234   -0.00019327

     Total force =     0.003492     Total SCF correction =     0.000259
     Energy error            =      2.2E-05 Ry
     Gradient error          =      6.9E-04 Ry/Bohr

     bfgs converged in  26 scf cycles and  25 bfgs steps
     (criteria: energy <  1.0E-04 Ry, force <  1.0E-03 Ry/Bohr)

     End of BFGS Geometry Optimization

     Final energy             =   -8078.5962969306 Ry

     File ./tmp/pwscf.bfgs deleted, as requested
Begin final coordinates

ATOMIC_POSITIONS (angstrom)
Ni               2.3791222700        7.8374280804       15.8662034228
Ni               4.6552287704        7.2870677205       12.9933804753
Mn              -0.0180489358        2.7331953878       16.1661657304
Ni               2.4282827690        2.1336866913       13.0208019531
Ni               9.4317371596       10.1386397272       14.5237376727
Ni               2.3957475825        4.9917589259       14.5827019520
Ni               7.1119317436        7.8431674023       15.8800585874
Mn               9.3434948884        7.2502593438       12.9637369814
Mn               4.7274594389        2.7645570627       16.0886066843
Ni               7.1592104531        2.1432862424       13.0369576114
Ni               4.7048978988       10.1209669610       14.5427731099
Ni               7.1225567988        5.0277498625       14.5326637212
P                2.0015963415        9.1582954084       13.0313040064
P                4.4027895160        6.1209912599       16.0220477363
P                2.6755750381        0.8777142244       16.0096688601
P                0.3950867935        3.9749882757       13.1062958995
O                1.2628041216        8.5158345446       14.3087716715
O                3.6467844679        6.6212382027       14.6466848704
O                3.4008853513        1.4920244829       14.6883567967
O                1.1225313517        3.3266829602       14.3740300466
O                1.4446811378        8.3167251077       11.8545960465
O                3.8418789833        7.0552771807       17.0806958758
O                3.2219491801        1.7560438410       17.1436553225
O                0.9560540851        3.1424251685       11.9253239693
O                0.9368009673        5.4324904910       13.1001777994
O                3.2450671849        9.6377382649       16.0065679902
O                3.5800829119        3.9250820376       13.2051281365
O                1.1276475725        0.9414632294       15.9086646918
O                1.2055629661        6.1196581037       15.8817728953
O                3.9007844252        4.6344632662       16.0807380368
O                1.3966477980        0.3872195579       13.0500222961
O                3.5388418794        9.0860295031       13.1465475926
P                6.6840507443        9.1594817238       13.0299694899
P                9.1104123639        6.0727006348       16.0538574512
P                7.4052057792        0.8921901335       16.0625237872
P                5.1174906833        4.0251402949       13.0901079937
O                5.9583764689        8.4785916662       14.3013935016
O                8.3653767848        6.6510715282       14.7017637290
O                8.1702473610        1.5873272983       14.7807340019
O                5.8631311983        3.3799540821       14.3589968719
O                6.1249266276        8.3241820022       11.8473791925
O                8.5413563923        6.9816423368       17.1316309240
O                7.9331568586        1.7394856932       17.2177128853
O                5.6822371506        3.1744136814       11.9239933139
O                5.6585685704        5.4850996308       13.0719404693
O                7.9692102653        9.6487141418       15.9798914586
O                8.2993335880        3.9161167904       13.1737667993
O                5.8640060231        0.9544785800       15.9206690858
O                5.9503678370        6.1447402326       15.8781335105
O                8.5521122973        4.5977984361       15.9856377868
O                6.1111626515        0.3977018274       13.0875510534
O                8.2213178257        9.0992865841       13.1443383649
Ni               2.2865932276        7.7185113740       10.1079392575    0   0   0
Ni               4.6227323024        7.1259782878        7.0640042782    0   0   0
Mn               0.0804473868        2.5789062059       10.1613020121    0   0   0
Ni               2.4168985750        1.9644574775        7.0841475609    0   0   0
Ni               9.4398858074        9.9355235468        8.5787441720    0   0   0
Ni               2.3526410507        4.8653024081        8.5902128070    0   0   0
Ni               6.9657525885        7.7091129798       10.0997874733    0   0   0
Mn               9.3143611083        7.0965945418        7.0137194507    0   0   0
Mn               4.8045666521        2.6032034357       10.1628320820    0   0   0
Ni               7.1167782512        1.9599956345        7.0792628603    0   0   0
Ni               4.7062796372        9.9416029950        8.5910379236    0   0   0
Ni               7.0564283985        4.8629777039        8.5799029064    0   0   0
P                2.0027943491        8.9729125273        7.1171786542    0   0   0
P                4.3264829709        5.9072233150       10.0622718687    0   0   0
P                2.6975864721        0.6842279838       10.0618768477    0   0   0
P                0.3600548718        3.8098064712        7.1433522946    0   0   0
O                1.2782399310        8.3313556485        8.4015115952    0   0   0
O                3.5801899233        6.5418743157        8.7780981808    0   0   0
O                3.4110096246        1.3409065578        8.7782800461    0   0   0
O                1.1145193192        3.1710799061        8.4034019657    0   0   0
O                1.4401034437        8.1327170307        5.9433336368    0   0   0
O                3.7742239617        6.7348726356       11.2476937640    0   0   0
O                3.2376292769        1.5444217644       11.2328131654    0   0   0
O                0.9344982929        2.9813971073        5.9719616593    0   0   0
O                0.8901473601        5.2731065912        7.1513881205    0   0   0
O                3.3125681011        9.4611400544       10.0571958355    0   0   0
O                3.5429527111        3.7631038396        7.2320949309    0   0   0
O                1.1604369075        0.7225831644        9.9613544840    0   0   0
O                1.1377598861        5.9454910082        9.9490547382    0   0   0
O                3.7796208059        4.4484532944       10.0392347111    0   0   0
O                1.4012333057        0.2043804807        7.1291638066    0   0   0
O                3.5415658549        8.9137683769        7.2064629609    0   0   0
P                6.6669951488        8.9683994847        7.1059492519    0   0   0
P                9.0462348336        5.8767477338       10.0366362681    0   0   0
P                7.4142576596        0.6712898237       10.0539918676    0   0   0
P                5.0801790915        3.8577847517        7.1343820182    0   0   0
O                5.9478651911        8.3028344013        8.3888049168    0   0   0
O                8.2965696935        6.5213144144        8.7757352159    0   0   0
O                8.1278450387        1.3207749553        8.7668774475    0   0   0
O                5.8335486583        3.2019020614        8.3911018344    0   0   0
O                6.1137410786        8.1091295162        5.9378996613    0   0   0
O                8.4671197812        6.7022746701       11.2062748158    0   0   0
O                7.9552460155        1.5275949478       11.2287293825    0   0   0
O                5.6639807711        3.0263983758        5.9666597727    0   0   0
O                5.6045809997        5.3254612392        7.1514967461    0   0   0
O                8.0182247949        9.4427540480       10.0468742363    0   0   0
O                8.2682212747        3.7409006891        7.2321369546    0   0   0
O                5.8794433210        0.7255188143        9.9568746669    0   0   0
O                5.8666840775        5.9447008142        9.9554812069    0   0   0
O                8.5123498573        4.4158645464       10.0225730984    0   0   0
O                6.0755523873        0.2015656283        7.1216053633    0   0   0
O                8.2047287207        8.9241247327        7.2088447974    0   0   0
Ni               2.2602644412        7.5397454508        4.1800395962    0   0   0
Ni               4.5964035161        6.9472123645        1.1361046169    0   0   0
Mn               0.0541186005        2.4001402826        4.2334023508    0   0   0
Ni               2.3905697887        1.7856915542        1.1562478996    0   0   0
Ni               9.4135570211        9.7567576235        2.6508445106    0   0   0
Ni               2.3263122643        4.6865364848        2.6623131457    0   0   0
Ni               6.9394238022        7.5303470565        4.1718878120    0   0   0
Mn               9.2880323220        6.9178286185        1.0858197893    0   0   0
Mn               4.7782378658        2.4244375125        4.2349324206    0   0   0
Ni               7.0904494649        1.7812297112        1.1513631990    0   0   0
Ni               4.6799508509        9.7628370717        2.6631382623    0   0   0
Ni               7.0300996122        4.6842117806        2.6520032451    0   0   0
P                1.9764655628        8.7941466040        1.1892789928    0   0   0
P                4.3001541846        5.7284573917        4.1343722074    0   0   0
P                2.6712576858        0.5054620606        4.1339771864    0   0   0
P                0.3337260855        3.6310405479        1.2154526333    0   0   0
O                1.2519111447        8.1525897252        2.4736119339    0   0   0
O                3.5538611370        6.3631083924        2.8501985194    0   0   0
O                3.3846808383        1.1621406345        2.8503803848    0   0   0
O                1.0881905329        2.9923139828        2.4755023044    0   0   0
O                1.4137746574        7.9539511074        0.0154339755    0   0   0
O                3.7478951754        6.5561067123        5.3197941026    0   0   0
O                3.2113004906        1.3656558411        5.3049135041    0   0   0
O                0.9081695066        2.8026311840        0.0440619979    0   0   0
O                0.8638185738        5.0943406679        1.2234884592    0   0   0
O                3.2862393148        9.2823741311        4.1292961742    0   0   0
O                3.5166239248        3.5843379163        1.3041952696    0   0   0
O                1.1341081212        0.5438172412        4.0334548227    0   0   0
O                1.1114310998        5.7667250849        4.0211550768    0   0   0
O                3.7532920196        4.2696873711        4.1113350498    0   0   0
O                1.3749045194        0.0256145574        1.2012641453    0   0   0
O                3.5152370686        8.7350024536        1.2785632995    0   0   0
P                6.6406663624        8.7896335614        1.1780495906    0   0   0
P                9.0199060473        5.6979818105        4.1087366067    0   0   0
P                7.3879288733        0.4925239004        4.1260922063    0   0   0
P                5.0538503052        3.6790188284        1.2064823569    0   0   0
O                5.9215364048        8.1240684780        2.4609052555    0   0   0
O                8.2702409072        6.3425484912        2.8478355546    0   0   0
O                8.1015162524        1.1420090320        2.8389777861    0   0   0
O                5.8072198720        3.0231361382        2.4632021730    0   0   0
O                6.0874122923        7.9303635929        0.0100000000    0   0   0
O                8.4407909948        6.5235087468        5.2783751545    0   0   0
O                7.9289172292        1.3488290245        5.3008297212    0   0   0
O                5.6376519848        2.8476324525        0.0387601113    0   0   0
O                5.5782522134        5.1466953159        1.2235970847    0   0   0
O                7.9918960086        9.2639881247        4.1189745750    0   0   0
O                8.2418924884        3.5621347659        1.3042372932    0   0   0
O                5.8531145347        0.5467528910        4.0289750056    0   0   0
O                5.8403552912        5.7659348909        4.0275815455    0   0   0
O                8.4860210710        4.2370986231        4.0946734371    0   0   0
O                6.0492236010        0.0227997050        1.1937057019    0   0   0
O                8.1783999343        8.7453588095        1.2809451361    0   0   0
O                1.0121365048        3.3939968029       17.4379681814
H                1.8457738133        2.8734372401       17.5864084948
End final coordinates



     Writing all to output data dir ./tmp/pwscf.save/
 
     init_run     :      9.47s CPU     10.21s WALL (       1 calls)
     electrons    :  10044.80s CPU  10706.32s WALL (      26 calls)
     update_pot   :     10.41s CPU     12.37s WALL (      25 calls)
     forces       :    106.63s CPU    125.16s WALL (      26 calls)
     force_london :      2.32s CPU      2.35s WALL (      26 calls)

     Called by init_run:
     wfcinit      :      5.78s CPU      5.98s WALL (       1 calls)
     potinit      :      0.66s CPU      0.85s WALL (       1 calls)
     hinit0       :      1.39s CPU      1.51s WALL (       1 calls)

     Called by electrons:
     c_bands      :   7838.87s CPU   8123.08s WALL (     668 calls)
     sum_band     :   1339.74s CPU   1472.77s WALL (     668 calls)
     v_of_rho     :    241.93s CPU    346.07s WALL (     683 calls)
     newd         :    412.13s CPU    519.74s WALL (     683 calls)
     mix_rho      :    212.21s CPU    214.84s WALL (     668 calls)
     energy_londo :      2.19s CPU      2.19s WALL (      26 calls)

     Called by c_bands:
     init_us_2    :     25.49s CPU     25.92s WALL (    2726 calls)
     init_us_2:cp :     25.47s CPU     25.91s WALL (    2726 calls)
     regterg      :   7684.37s CPU   7963.14s WALL (    1339 calls)

     Called by *egterg:
     rdiaghg      :   1889.37s CPU   2001.96s WALL (    4518 calls)
     h_psi        :   3144.02s CPU   3210.76s WALL (    4592 calls)
     s_psi        :    513.66s CPU    514.29s WALL (    4592 calls)
     g_psi        :      3.77s CPU      3.80s WALL (    3251 calls)

     Called by h_psi:
     h_psi:calbec :    719.43s CPU    771.47s WALL (    4592 calls)
     vloc_psi     :   1898.35s CPU   1906.51s WALL (    4592 calls)
     add_vuspsi   :    517.23s CPU    523.62s WALL (    4592 calls)

     General routines
     calbec       :   1100.12s CPU   1180.26s WALL (    6136 calls)
     fft          :    268.45s CPU    389.67s WALL (   12668 calls)
     ffts         :    119.89s CPU    120.30s WALL (   79647 calls)
     fftw         :   2120.63s CPU   2129.22s WALL ( 2303570 calls)
     interpolate  :     14.00s CPU     14.56s WALL (    1366 calls)
 
     Parallel routines
 
     PWSCF        :      2h50m CPU      3h 2m WALL

 
   This run was terminated on:  21:42:43  10Nov2025            

=------------------------------------------------------------------------------=
   JOB DONE.
=------------------------------------------------------------------------------=
