
     Program PWSCF v.7.2 starts on  9Nov2025 at  0:52: 8 

     This program is part of the open-source Quantum ESPRESSO suite
     for quantum simulation of materials; please cite
         "P. Giannozzi et al., J. Phys.:Condens. Matter 21 395502 (2009);
         "P. Giannozzi et al., J. Phys.:Condens. Matter 29 465901 (2017);
         "P. Giannozzi et al., J. Chem. Phys. 152 154105 (2020);
          URL http://www.quantum-espresso.org", 
     in publications or presentations arising from this work. More details at
     http://www.quantum-espresso.org/quote

     Parallel version (MPI), running on    64 processors

     MPI processes distributed on     4 nodes
     461793 MiB available memory on the printing compute node when the environment starts
 
     Reading input from ./1/H2_removed/PW.in

     Current dimensions of program PWSCF are:
     Max number of different atomic species (ntypx) = 10
     Max number of k-points (npk) =  40000
     Max angular momentum in pseudopotentials (lmaxx) =  4
     Presently no symmetry can be used with electric field

     Presently stress not available with electric field and gates

     file Ni.pbe-n-rrkjus_psl.1.0.0.UPF: wavefunction(s)  3D renormalized
     file Mn.pbe-spn-rrkjus_psl.0.3.1.UPF: wavefunction(s)  3D renormalized
     file O.pbe-rrkjus.UPF: wavefunction(s)  2S renormalized
     file H.pbe-rrkjus.UPF: wavefunction(s)  1S renormalized

     gamma-point specific algorithms are used
 
     R & G space division:  proc/nbgrp/npool/nimage =      64
     Subspace diagonalization in iterative solution of the eigenvalue problem:
     one sub-group per band group will be used
     custom distributed-memory algorithm (size of sub-group:  7*  7 procs)

 
     Parallelization info
     --------------------
     sticks:   dense  smooth     PW     G-vecs:    dense   smooth      PW
     Min         207      82     20                60552    15302    1896
     Max         210      84     22                60574    15336    1950
     Sum       13325    5345   1333              3876045   980655  122653
 
     Using Slab Decomposition
 


     bravais-lattice index     =            0
     lattice parameter (alat)  =      17.4067  a.u.
     unit-cell volume          =   20529.8182 (a.u.)^3
     number of atoms/cell      =          158
     number of atomic types    =            5
     number of electrons       =      1093.00
     number of Kohn-Sham states=          656
     kinetic-energy cutoff     =      50.0000  Ry
     charge density cutoff     =     500.0000  Ry
     scf convergence threshold =      1.0E-06
     mixing beta               =       0.1000
     number of iterations used =            8  local-TF  mixing
     energy convergence thresh.=      1.0E-04
     force convergence thresh. =      1.0E-03
     Exchange-correlation=  SLA  PW   PBE  PBE
                           (   1   4   3   4   0   0   0)
     nstep                     =         1000


     celldm(1)=  17.406729  celldm(2)=   0.000000  celldm(3)=   0.000000
     celldm(4)=   0.000000  celldm(5)=   0.000000  celldm(6)=   0.000000

     crystal axes: (cart. coord. in units of alat)
               a(1) = (   1.000000   0.000000   0.000000 )  
               a(2) = (  -0.001404   1.105696   0.000000 )  
               a(3) = (   0.000000   0.000000   3.520448 )  

     reciprocal axes: (cart. coord. in units 2 pi/alat)
               b(1) = (  1.000000  0.001270  0.000000 )  
               b(2) = (  0.000000  0.904408  0.000000 )  
               b(3) = (  0.000000  0.000000  0.284055 )  


     PseudoPot. # 1 for Ni read from file:
     ~/PSEUDO/Ni.pbe-n-rrkjus_psl.1.0.0.UPF
     MD5 check sum: Not computed, couldn't open file
     Pseudo is Ultrasoft + core correction, Zval = 10.0
     Generated using "atomic" code by A. Dal Corso  v.5.1.2
     Using radial grid of 1195 points,  6 beta functions with: 
                l(1) =   0
                l(2) =   0
                l(3) =   1
                l(4) =   1
                l(5) =   2
                l(6) =   2
     Q(r) pseudized with 0 coefficients 


     PseudoPot. # 2 for Mn read from file:
     ~/PSEUDO/Mn.pbe-spn-rrkjus_psl.0.3.1.UPF
     MD5 check sum: Not computed, couldn't open file
     Pseudo is Ultrasoft + core correction, Zval = 15.0
     Generated using &quot;atomic&quot; code by A. Dal Corso  v.6.2.2
     Using radial grid of 1187 points,  6 beta functions with: 
                l(1) =   0
                l(2) =   0
                l(3) =   1
                l(4) =   1
                l(5) =   2
                l(6) =   2
     Q(r) pseudized with 0 coefficients 


     PseudoPot. # 3 for P  read from file:
     ~/PSEUDO/P.pbe-n-rrkjus_psl.1.0.0.UPF
     MD5 check sum: Not computed, couldn't open file
     Pseudo is Ultrasoft + core correction, Zval =  5.0
     Generated using "atomic" code by A. Dal Corso  v.5.1
     Using radial grid of 1147 points,  6 beta functions with: 
                l(1) =   0
                l(2) =   0
                l(3) =   1
                l(4) =   1
                l(5) =   2
                l(6) =   2
     Q(r) pseudized with 0 coefficients 


     PseudoPot. # 4 for O  read from file:
     ~/PSEUDO/O.pbe-rrkjus.UPF
     MD5 check sum: Not computed, couldn't open file
     Pseudo is Ultrasoft, Zval =  6.0
     Generated by new atomic code, or converted to UPF format
     Using radial grid of 1269 points,  4 beta functions with: 
                l(1) =   0
                l(2) =   0
                l(3) =   1
                l(4) =   1
     Q(r) pseudized with 0 coefficients 


     PseudoPot. # 5 for H  read from file:
     ~/PSEUDO/H.pbe-rrkjus.UPF
     MD5 check sum: Not computed, couldn't open file
     Pseudo is Ultrasoft, Zval =  1.0
     Generated by new atomic code, or converted to UPF format
     Using radial grid of 1061 points,  2 beta functions with: 
                l(1) =   0
                l(2) =   0
     Q(r) pseudized with 0 coefficients 


     atomic species   valence    mass     pseudopotential
     Ni               10.00    58.69300     Ni( 1.00)
     Mn               15.00    54.93800     Mn( 1.00)
     P                 5.00    30.97300     P ( 1.00)
     O                 6.00    15.99900     O ( 1.00)
     H                 1.00     1.00790     H ( 1.00)

     Starting magnetic structure 
     atomic species   magnetization
     Ni              1.000
     Mn              1.000
     P               1.000
     O               1.000
     H               0.000

     No symmetry found



   Cartesian axes

     site n.     atom                  positions (alat units)
         1        Ni     tau(   1) = (   0.2421002   0.8609138   1.7639572  )
         2        Mn     tau(   2) = (   0.4924481   0.7886602   1.4286360  )
         3        Ni     tau(   3) = (   0.0052341   0.3031820   1.7657208  )
         4        Ni     tau(   4) = (   0.2570603   0.2374878   1.4323851  )
         5        Ni     tau(   5) = (   0.4976584   1.1048203   1.5977343  )
         6        Ni     tau(   6) = (   0.2495781   0.5440308   1.5987947  )
         7        P      tau(   7) = (   0.2083492   0.9982113   1.4353607  )
         8        P      tau(   8) = (   0.4584476   0.6559264   1.7594663  )
         9        P      tau(   9) = (   0.2889394   0.1031966   1.7622405  )
        10        P      tau(  10) = (   0.0400379   0.4338094   1.4355470  )
        11        O      tau(  11) = (   0.1314218   0.9248062   1.5751781  )
        12        O      tau(  12) = (   0.3797244   0.7272031   1.6198878  )
        13        O      tau(  13) = (   0.3662315   0.1762062   1.6220864  )
        14        O      tau(  14) = (   0.1171240   0.3646150   1.5772412  )
        15        O      tau(  15) = (   0.1510364   0.9068326   1.3059819  )
        16        O      tau(  16) = (   0.3981989   0.7453439   1.8888257  )
        17        O      tau(  17) = (   0.3490561   0.1888693   1.8930896  )
        18        O      tau(  18) = (   0.0982395   0.3475583   1.3047310  )
        19        O      tau(  19) = (   0.0992163   0.5918099   1.4399248  )
        20        O      tau(  20) = (   0.3467441   1.0504690   1.7536753  )
        21        O      tau(  21) = (   0.3739183   0.4303319   1.4463782  )
        22        O      tau(  22) = (   0.1230967   0.1088895   1.7518793  )
        23        O      tau(  23) = (   0.1242901   0.6635968   1.7498824  )
        24        O      tau(  24) = (   0.4011802   0.4971632   1.7565472  )
        25        O      tau(  25) = (   0.1484006   0.0497464   1.4390787  )
        26        O      tau(  26) = (   0.3736100   0.9942556   1.4449594  )
        27        Ni     tau(  27) = (   0.2413539   0.8509941   1.1121345  )
        28        Mn     tau(  28) = (   0.4917018   0.7787406   0.7768134  )
        29        Ni     tau(  29) = (   0.0044877   0.2932623   1.1138982  )
        30        Ni     tau(  30) = (   0.2563139   0.2275682   0.7805625  )
        31        Ni     tau(  31) = (   0.4969120   1.0949007   0.9459116  )
        32        Ni     tau(  32) = (   0.2488318   0.5341111   0.9469721  )
        33        P      tau(  33) = (   0.2076029   0.9882917   0.7835381  )
        34        P      tau(  34) = (   0.4577012   0.6460068   1.1076436  )
        35        P      tau(  35) = (   0.2881931   0.0932770   1.1104179  )
        36        P      tau(  36) = (   0.0392916   0.4238898   0.7837243  )
        37        O      tau(  37) = (   0.1306755   0.9148866   0.9233554  )
        38        O      tau(  38) = (   0.3789780   0.7172835   0.9680652  )
        39        O      tau(  39) = (   0.3654852   0.1662865   0.9702638  )
        40        O      tau(  40) = (   0.1163776   0.3546954   0.9254186  )
        41        O      tau(  41) = (   0.1502901   0.8969129   0.6541592  )
        42        O      tau(  42) = (   0.3974525   0.7354243   1.2370031  )
        43        O      tau(  43) = (   0.3483097   0.1789497   1.2412670  )
        44        O      tau(  44) = (   0.0974932   0.3376387   0.6529083  )
        45        O      tau(  45) = (   0.0984699   0.5818903   0.7881021  )
        46        O      tau(  46) = (   0.3459978   1.0405493   1.1018526  )
        47        O      tau(  47) = (   0.3731719   0.4204123   0.7945555  )
        48        O      tau(  48) = (   0.1223503   0.0989699   1.1000566  )
        49        O      tau(  49) = (   0.1235438   0.6536772   1.0980598  )
        50        O      tau(  50) = (   0.4004339   0.4872435   1.1047245  )
        51        O      tau(  51) = (   0.1476543   0.0398268   0.7872561  )
        52        O      tau(  52) = (   0.3728637   0.9843360   0.7931368  )
        53        Ni     tau(  53) = (   0.2406075   0.8410745   0.4603118  )
        54        Mn     tau(  54) = (   0.4909555   0.7688210   0.1249907  )
        55        Ni     tau(  55) = (   0.0037414   0.2833427   0.4620755  )
        56        Ni     tau(  56) = (   0.2555676   0.2176485   0.1287398  )
        57        Ni     tau(  57) = (   0.4961657   1.0849810   0.2940889  )
        58        Ni     tau(  58) = (   0.2480854   0.5241915   0.2951494  )
        59        P      tau(  59) = (   0.2068565   0.9783721   0.1317154  )
        60        P      tau(  60) = (   0.4569549   0.6360871   0.4558210  )
        61        P      tau(  61) = (   0.2874467   0.0833574   0.4585952  )
        62        P      tau(  62) = (   0.0385452   0.4139702   0.1319017  )
        63        O      tau(  63) = (   0.1299291   0.9049669   0.2715327  )
        64        O      tau(  64) = (   0.3782317   0.7073639   0.3162425  )
        65        O      tau(  65) = (   0.3647389   0.1563669   0.3184411  )
        66        O      tau(  66) = (   0.1156313   0.3447757   0.2735959  )
        67        O      tau(  67) = (   0.1495437   0.8869933   0.0023366  )
        68        O      tau(  68) = (   0.3967062   0.7255047   0.5851804  )
        69        O      tau(  69) = (   0.3475634   0.1690300   0.5894443  )
        70        O      tau(  70) = (   0.0967469   0.3277190   0.0010856  )
        71        O      tau(  71) = (   0.0977236   0.5719706   0.1362794  )
        72        O      tau(  72) = (   0.3452514   1.0306297   0.4500300  )
        73        O      tau(  73) = (   0.3724256   0.4104926   0.1427328  )
        74        O      tau(  74) = (   0.1216040   0.0890503   0.4482339  )
        75        O      tau(  75) = (   0.1227974   0.6437575   0.4462371  )
        76        O      tau(  76) = (   0.3996875   0.4773239   0.4529018  )
        77        O      tau(  77) = (   0.1469079   0.0299071   0.1354334  )
        78        O      tau(  78) = (   0.3721173   0.9744163   0.1413141  )
        79        Ni     tau(  79) = (   0.7421002   0.8609138   1.7639572  )
        80        Mn     tau(  80) = (   0.9924481   0.7886602   1.4286360  )
        81        Ni     tau(  81) = (   0.5052341   0.3031820   1.7657208  )
        82        Ni     tau(  82) = (   0.7570603   0.2374878   1.4323851  )
        83        Ni     tau(  83) = (   0.9976584   1.1048203   1.5977343  )
        84        Ni     tau(  84) = (   0.7495781   0.5440308   1.5987947  )
        85        P      tau(  85) = (   0.7083492   0.9982113   1.4353607  )
        86        P      tau(  86) = (   0.9584476   0.6559264   1.7594663  )
        87        P      tau(  87) = (   0.7889394   0.1031966   1.7622405  )
        88        P      tau(  88) = (   0.5400379   0.4338094   1.4355470  )
        89        O      tau(  89) = (   0.6314218   0.9248062   1.5751781  )
        90        O      tau(  90) = (   0.8797244   0.7272031   1.6198878  )
        91        O      tau(  91) = (   0.8662315   0.1762062   1.6220864  )
        92        O      tau(  92) = (   0.6171240   0.3646150   1.5772412  )
        93        O      tau(  93) = (   0.6510364   0.9068326   1.3059819  )
        94        O      tau(  94) = (   0.8981989   0.7453439   1.8888257  )
        95        O      tau(  95) = (   0.8490561   0.1888693   1.8930896  )
        96        O      tau(  96) = (   0.5982395   0.3475583   1.3047310  )
        97        O      tau(  97) = (   0.5992163   0.5918099   1.4399248  )
        98        O      tau(  98) = (   0.8467441   1.0504690   1.7536753  )
        99        O      tau(  99) = (   0.8739183   0.4303319   1.4463782  )
       100        O      tau( 100) = (   0.6230967   0.1088895   1.7518793  )
       101        O      tau( 101) = (   0.6242901   0.6635968   1.7498824  )
       102        O      tau( 102) = (   0.9011802   0.4971632   1.7565472  )
       103        O      tau( 103) = (   0.6484006   0.0497464   1.4390787  )
       104        O      tau( 104) = (   0.8736100   0.9942556   1.4449594  )
       105        Ni     tau( 105) = (   0.7413539   0.8509941   1.1121345  )
       106        Mn     tau( 106) = (   0.9917018   0.7787406   0.7768134  )
       107        Ni     tau( 107) = (   0.5044877   0.2932623   1.1138982  )
       108        Ni     tau( 108) = (   0.7563139   0.2275682   0.7805625  )
       109        Ni     tau( 109) = (   0.9969120   1.0949007   0.9459116  )
       110        Ni     tau( 110) = (   0.7488318   0.5341111   0.9469721  )
       111        P      tau( 111) = (   0.7076029   0.9882917   0.7835381  )
       112        P      tau( 112) = (   0.9577012   0.6460068   1.1076436  )
       113        P      tau( 113) = (   0.7881931   0.0932770   1.1104179  )
       114        P      tau( 114) = (   0.5392916   0.4238898   0.7837243  )
       115        O      tau( 115) = (   0.6306755   0.9148866   0.9233554  )
       116        O      tau( 116) = (   0.8789780   0.7172835   0.9680652  )
       117        O      tau( 117) = (   0.8654852   0.1662865   0.9702638  )
       118        O      tau( 118) = (   0.6163776   0.3546954   0.9254186  )
       119        O      tau( 119) = (   0.6502901   0.8969129   0.6541592  )
       120        O      tau( 120) = (   0.8974525   0.7354243   1.2370031  )
       121        O      tau( 121) = (   0.8483097   0.1789497   1.2412670  )
       122        O      tau( 122) = (   0.5974932   0.3376387   0.6529083  )
       123        O      tau( 123) = (   0.5984699   0.5818903   0.7881021  )
       124        O      tau( 124) = (   0.8459978   1.0405493   1.1018526  )
       125        O      tau( 125) = (   0.8731719   0.4204123   0.7945555  )
       126        O      tau( 126) = (   0.6223503   0.0989699   1.1000566  )
       127        O      tau( 127) = (   0.6235438   0.6536772   1.0980598  )
       128        O      tau( 128) = (   0.9004339   0.4872435   1.1047245  )
       129        O      tau( 129) = (   0.6476543   0.0398268   0.7872561  )
       130        O      tau( 130) = (   0.8728637   0.9843360   0.7931368  )
       131        Ni     tau( 131) = (   0.7406075   0.8410745   0.4603118  )
       132        Mn     tau( 132) = (   0.9909555   0.7688210   0.1249907  )
       133        Ni     tau( 133) = (   0.5037414   0.2833427   0.4620755  )
       134        Ni     tau( 134) = (   0.7555676   0.2176485   0.1287398  )
       135        Ni     tau( 135) = (   0.9961657   1.0849810   0.2940889  )
       136        Ni     tau( 136) = (   0.7480854   0.5241915   0.2951494  )
       137        P      tau( 137) = (   0.7068565   0.9783721   0.1317154  )
       138        P      tau( 138) = (   0.9569549   0.6360871   0.4558210  )
       139        P      tau( 139) = (   0.7874467   0.0833574   0.4585952  )
       140        P      tau( 140) = (   0.5385452   0.4139702   0.1319017  )
       141        O      tau( 141) = (   0.6299291   0.9049669   0.2715327  )
       142        O      tau( 142) = (   0.8782317   0.7073639   0.3162425  )
       143        O      tau( 143) = (   0.8647389   0.1563669   0.3184411  )
       144        O      tau( 144) = (   0.6156313   0.3447757   0.2735959  )
       145        O      tau( 145) = (   0.6495437   0.8869933   0.0023366  )
       146        O      tau( 146) = (   0.8967062   0.7255047   0.5851804  )
       147        O      tau( 147) = (   0.8475634   0.1690300   0.5894443  )
       148        O      tau( 148) = (   0.5967469   0.3277190   0.0010856  )
       149        O      tau( 149) = (   0.5977236   0.5719706   0.1362794  )
       150        O      tau( 150) = (   0.8452514   1.0306297   0.4500300  )
       151        O      tau( 151) = (   0.8724256   0.4104926   0.1427328  )
       152        O      tau( 152) = (   0.6216040   0.0890503   0.4482339  )
       153        O      tau( 153) = (   0.6227974   0.6437575   0.4462371  )
       154        O      tau( 154) = (   0.8996875   0.4773239   0.4529018  )
       155        O      tau( 155) = (   0.6469079   0.0299071   0.1354334  )
       156        O      tau( 156) = (   0.8721173   0.9744163   0.1413141  )
       157        O      tau( 157) = (   1.1746174   0.9594812   1.9266897  )
       158        H      tau( 158) = (   1.0978328   0.8897591   1.9303913  )

     -------------------------------------------------
     Parameters for Dispersion (Grimme-D2) Correction:
     -------------------------------------------------
       atom      VdW radius       C_6     

        Ni         2.952        374.666
        Mn         2.952        374.666
        P          3.222        271.980
        O          2.536         24.284
        H          1.892          4.857

     number of k points=     1  Gaussian smearing, width (Ry)=  0.0100
                       cart. coord. in units 2pi/alat
        k(    1) = (   0.0000000   0.0000000   0.0000000), wk =   1.0000000

     Dense  grid:  1938023 G-vectors     FFT dimensions: ( 125, 144, 450)

     Smooth grid:   490328 G-vectors     FFT dimensions: (  80,  90, 288)

     Estimated max dynamical RAM per process >     326.29 MB

     Estimated total dynamical RAM >      20.39 GB

     Check: negative core charge=   -0.000001
     Generating pointlists ...
     new r_m :   0.0833 (alat units)  1.4495 (a.u.) for type    1
     new r_m :   0.0909 (alat units)  1.5826 (a.u.) for type    2
     new r_m :   0.0683 (alat units)  1.1890 (a.u.) for type    3
     new r_m :   0.0428 (alat units)  0.7452 (a.u.) for type    4
     new r_m :   0.0428 (alat units)  0.7452 (a.u.) for type    5

     Initial potential from superposition of free atoms

     starting charge    1092.8893, renormalised to    1093.0000

     negative rho (up, down):  1.401E-03 4.562E-04
 
     Adding external electric field

     Computed dipole along edir(3) : 
        Dipole                1.6408 Ry au,          4.1705 Debye
        Dipole field          0.0010 Ry au, 
 
        Potential amp.       -0.1108 Ry
        Total length         55.1515 bohr
 
 
     Adding external electric field

     Computed dipole along edir(3) : 
        Dipole                1.6408 Ry au,          4.1705 Debye
        Dipole field          0.0010 Ry au, 
 
        Potential amp.       -0.1108 Ry
        Total length         55.1515 bohr
 
     Starting wfcs are  815 randomized atomic wfcs

     total cpu time spent up to now is       14.2 secs

     Self-consistent Calculation

     iteration #  1     ecut=    50.00 Ry     beta= 0.10
     Davidson diagonalization with overlap
     ethr =  1.00E-02,  avg # of iterations =  6.0

     negative rho (up, down):  3.816E-01 3.678E-06
 
     Adding external electric field

     Computed dipole along edir(3) : 
        Dipole               -3.4265 Ry au,         -8.7092 Debye
        Dipole field         -0.0021 Ry au, 
 
        Potential amp.        0.2313 Ry
        Total length         55.1515 bohr
 
 
     Adding external electric field

     Computed dipole along edir(3) : 
        Dipole               -3.4265 Ry au,         -8.7092 Debye
        Dipole field         -0.0021 Ry au, 
 
        Potential amp.        0.2313 Ry
        Total length         55.1515 bohr
 

     total cpu time spent up to now is       47.2 secs

     total energy              =   -7519.44803258 Ry
     estimated scf accuracy    <     786.87619558 Ry

     total magnetization       =   219.00 Bohr mag/cell
     absolute magnetization    =   307.52 Bohr mag/cell

     iteration #  2     ecut=    50.00 Ry     beta= 0.10
     Davidson diagonalization with overlap
     ethr =  1.00E-02,  avg # of iterations =  2.0

     negative rho (up, down):  3.556E-01 2.123E-06
 
     Adding external electric field

     Computed dipole along edir(3) : 
        Dipole               -2.4016 Ry au,         -6.1041 Debye
        Dipole field         -0.0015 Ry au, 
 
        Potential amp.        0.1621 Ry
        Total length         55.1515 bohr
 
 
     Adding external electric field

     Computed dipole along edir(3) : 
        Dipole               -2.4016 Ry au,         -6.1041 Debye
        Dipole field         -0.0015 Ry au, 
 
        Potential amp.        0.1621 Ry
        Total length         55.1515 bohr
 

     total cpu time spent up to now is       68.7 secs

     total energy              =   -7602.00257233 Ry
     estimated scf accuracy    <     183.41888262 Ry

     total magnetization       =   155.98 Bohr mag/cell
     absolute magnetization    =   205.64 Bohr mag/cell

     iteration #  3     ecut=    50.00 Ry     beta= 0.10
     Davidson diagonalization with overlap
     ethr =  1.00E-02,  avg # of iterations =  1.5

     negative rho (up, down):  3.151E-01 1.844E-06
 
     Adding external electric field

     Computed dipole along edir(3) : 
        Dipole               -2.0646 Ry au,         -5.2476 Debye
        Dipole field         -0.0013 Ry au, 
 
        Potential amp.        0.1394 Ry
        Total length         55.1515 bohr
 
 
     Adding external electric field

     Computed dipole along edir(3) : 
        Dipole               -2.0646 Ry au,         -5.2476 Debye
        Dipole field         -0.0013 Ry au, 
 
        Potential amp.        0.1394 Ry
        Total length         55.1515 bohr
 

     total cpu time spent up to now is       86.0 secs

     total energy              =   -7632.73545834 Ry
     estimated scf accuracy    <     102.19663948 Ry

     total magnetization       =   133.00 Bohr mag/cell
     absolute magnetization    =   183.86 Bohr mag/cell

     iteration #  4     ecut=    50.00 Ry     beta= 0.10
     Davidson diagonalization with overlap
     ethr =  9.35E-03,  avg # of iterations =  1.5

     negative rho (up, down):  2.415E-01 6.412E-07
 
     Adding external electric field

     Computed dipole along edir(3) : 
        Dipole               -1.8474 Ry au,         -4.6956 Debye
        Dipole field         -0.0011 Ry au, 
 
        Potential amp.        0.1247 Ry
        Total length         55.1515 bohr
 
 
     Adding external electric field

     Computed dipole along edir(3) : 
        Dipole               -1.8474 Ry au,         -4.6956 Debye
        Dipole field         -0.0011 Ry au, 
 
        Potential amp.        0.1247 Ry
        Total length         55.1515 bohr
 

     total cpu time spent up to now is      100.2 secs

     total energy              =   -7667.34286901 Ry
     estimated scf accuracy    <      81.94848338 Ry

     total magnetization       =   117.35 Bohr mag/cell
     absolute magnetization    =   169.56 Bohr mag/cell

     iteration #  5     ecut=    50.00 Ry     beta= 0.10
     Davidson diagonalization with overlap
     ethr =  7.50E-03,  avg # of iterations =  1.0

     negative rho (up, down):  1.717E-02 1.378E-07
 
     Adding external electric field

     Computed dipole along edir(3) : 
        Dipole               -1.3704 Ry au,         -3.4832 Debye
        Dipole field         -0.0008 Ry au, 
 
        Potential amp.        0.0925 Ry
        Total length         55.1515 bohr
 
 
     Adding external electric field

     Computed dipole along edir(3) : 
        Dipole               -1.3704 Ry au,         -3.4832 Debye
        Dipole field         -0.0008 Ry au, 
 
        Potential amp.        0.0925 Ry
        Total length         55.1515 bohr
 

     total cpu time spent up to now is      116.2 secs

     total energy              =   -7726.67924755 Ry
     estimated scf accuracy    <      63.28546956 Ry

     total magnetization       =    97.01 Bohr mag/cell
     absolute magnetization    =   150.60 Bohr mag/cell

     iteration #  6     ecut=    50.00 Ry     beta= 0.10
     Davidson diagonalization with overlap
     ethr =  5.79E-03,  avg # of iterations =  1.0

     negative rho (up, down):  5.250E-04 6.775E-04
 
     Adding external electric field

     Computed dipole along edir(3) : 
        Dipole               -1.0585 Ry au,         -2.6905 Debye
        Dipole field         -0.0006 Ry au, 
 
        Potential amp.        0.0715 Ry
        Total length         55.1515 bohr
 
 
     Adding external electric field

     Computed dipole along edir(3) : 
        Dipole               -1.0585 Ry au,         -2.6905 Debye
        Dipole field         -0.0006 Ry au, 
 
        Potential amp.        0.0715 Ry
        Total length         55.1515 bohr
 

     total cpu time spent up to now is      132.5 secs

     total energy              =   -7736.28891293 Ry
     estimated scf accuracy    <      10.55380463 Ry

     total magnetization       =    91.00 Bohr mag/cell
     absolute magnetization    =   121.52 Bohr mag/cell

     iteration #  7     ecut=    50.00 Ry     beta= 0.10
     Davidson diagonalization with overlap
     ethr =  9.66E-04,  avg # of iterations =  6.5

     negative rho (up, down):  4.846E-04 6.738E-04
 
     Adding external electric field

     Computed dipole along edir(3) : 
        Dipole               -1.0679 Ry au,         -2.7144 Debye
        Dipole field         -0.0007 Ry au, 
 
        Potential amp.        0.0721 Ry
        Total length         55.1515 bohr
 
 
     Adding external electric field

     Computed dipole along edir(3) : 
        Dipole               -1.0679 Ry au,         -2.7144 Debye
        Dipole field         -0.0007 Ry au, 
 
        Potential amp.        0.0721 Ry
        Total length         55.1515 bohr
 

     total cpu time spent up to now is      161.4 secs

     total energy              =   -7738.19961590 Ry
     estimated scf accuracy    <      20.95013185 Ry

     total magnetization       =    70.63 Bohr mag/cell
     absolute magnetization    =    87.91 Bohr mag/cell

     iteration #  8     ecut=    50.00 Ry     beta= 0.10
     Davidson diagonalization with overlap
     ethr =  9.66E-04,  avg # of iterations =  1.0

     negative rho (up, down):  3.325E-04 5.622E-04
 
     Adding external electric field

     Computed dipole along edir(3) : 
        Dipole               -1.1610 Ry au,         -2.9509 Debye
        Dipole field         -0.0007 Ry au, 
 
        Potential amp.        0.0784 Ry
        Total length         55.1515 bohr
 
 
     Adding external electric field

     Computed dipole along edir(3) : 
        Dipole               -1.1610 Ry au,         -2.9509 Debye
        Dipole field         -0.0007 Ry au, 
 
        Potential amp.        0.0784 Ry
        Total length         55.1515 bohr
 

     total cpu time spent up to now is      175.4 secs

     total energy              =   -7737.96691674 Ry
     estimated scf accuracy    <      20.03517479 Ry

     total magnetization       =    70.87 Bohr mag/cell
     absolute magnetization    =    87.60 Bohr mag/cell

     iteration #  9     ecut=    50.00 Ry     beta= 0.10
     Davidson diagonalization with overlap
     ethr =  9.66E-04,  avg # of iterations =  1.0

     negative rho (up, down):  6.458E-04 9.460E-04
 
     Adding external electric field

     Computed dipole along edir(3) : 
        Dipole               -1.4751 Ry au,         -3.7492 Debye
        Dipole field         -0.0009 Ry au, 
 
        Potential amp.        0.0996 Ry
        Total length         55.1515 bohr
 
 
     Adding external electric field

     Computed dipole along edir(3) : 
        Dipole               -1.4751 Ry au,         -3.7492 Debye
        Dipole field         -0.0009 Ry au, 
 
        Potential amp.        0.0996 Ry
        Total length         55.1515 bohr
 

     total cpu time spent up to now is      189.9 secs

     total energy              =   -7737.37356728 Ry
     estimated scf accuracy    <      16.33557147 Ry

     total magnetization       =    71.48 Bohr mag/cell
     absolute magnetization    =    87.04 Bohr mag/cell

     iteration # 10     ecut=    50.00 Ry     beta= 0.10
     Davidson diagonalization with overlap
     ethr =  9.66E-04,  avg # of iterations =  1.5

     negative rho (up, down):  4.031E-04 8.858E-04
 
     Adding external electric field

     Computed dipole along edir(3) : 
        Dipole               -1.4208 Ry au,         -3.6112 Debye
        Dipole field         -0.0009 Ry au, 
 
        Potential amp.        0.0959 Ry
        Total length         55.1515 bohr
 
 
     Adding external electric field

     Computed dipole along edir(3) : 
        Dipole               -1.4208 Ry au,         -3.6112 Debye
        Dipole field         -0.0009 Ry au, 
 
        Potential amp.        0.0959 Ry
        Total length         55.1515 bohr
 

     total cpu time spent up to now is      208.6 secs

     total energy              =   -7737.78838369 Ry
     estimated scf accuracy    <       1.57818563 Ry

     total magnetization       =    88.07 Bohr mag/cell
     absolute magnetization    =    98.78 Bohr mag/cell

     iteration # 11     ecut=    50.00 Ry     beta= 0.10
     Davidson diagonalization with overlap
     ethr =  1.44E-04,  avg # of iterations = 10.5

     negative rho (up, down):  4.057E-04 9.268E-04
 
     Adding external electric field

     Computed dipole along edir(3) : 
        Dipole               -1.4072 Ry au,         -3.5767 Debye
        Dipole field         -0.0009 Ry au, 
 
        Potential amp.        0.0950 Ry
        Total length         55.1515 bohr
 
 
     Adding external electric field

     Computed dipole along edir(3) : 
        Dipole               -1.4072 Ry au,         -3.5767 Debye
        Dipole field         -0.0009 Ry au, 
 
        Potential amp.        0.0950 Ry
        Total length         55.1515 bohr
 

     total cpu time spent up to now is      229.3 secs

     total energy              =   -7737.81350902 Ry
     estimated scf accuracy    <       2.97754879 Ry

     total magnetization       =    84.08 Bohr mag/cell
     absolute magnetization    =    94.76 Bohr mag/cell

     iteration # 12     ecut=    50.00 Ry     beta= 0.10
     Davidson diagonalization with overlap
     ethr =  1.44E-04,  avg # of iterations =  1.0

     negative rho (up, down):  3.128E-04 8.852E-04
 
     Adding external electric field

     Computed dipole along edir(3) : 
        Dipole               -1.3724 Ry au,         -3.4884 Debye
        Dipole field         -0.0008 Ry au, 
 
        Potential amp.        0.0927 Ry
        Total length         55.1515 bohr
 
 
     Adding external electric field

     Computed dipole along edir(3) : 
        Dipole               -1.3724 Ry au,         -3.4884 Debye
        Dipole field         -0.0008 Ry au, 
 
        Potential amp.        0.0927 Ry
        Total length         55.1515 bohr
 

     total cpu time spent up to now is      242.4 secs

     total energy              =   -7737.87784525 Ry
     estimated scf accuracy    <       3.37589914 Ry

     total magnetization       =    83.93 Bohr mag/cell
     absolute magnetization    =    94.57 Bohr mag/cell

     iteration # 13     ecut=    50.00 Ry     beta= 0.10
     Davidson diagonalization with overlap
     ethr =  1.44E-04,  avg # of iterations =  1.5

     negative rho (up, down):  7.407E-04 1.871E-03
 
     Adding external electric field

     Computed dipole along edir(3) : 
        Dipole               -1.5705 Ry au,         -3.9919 Debye
        Dipole field         -0.0010 Ry au, 
 
        Potential amp.        0.1060 Ry
        Total length         55.1515 bohr
 
 
     Adding external electric field

     Computed dipole along edir(3) : 
        Dipole               -1.5705 Ry au,         -3.9919 Debye
        Dipole field         -0.0010 Ry au, 
 
        Potential amp.        0.1060 Ry
        Total length         55.1515 bohr
 

     total cpu time spent up to now is      255.2 secs

     total energy              =   -7737.60010014 Ry
     estimated scf accuracy    <       8.59709065 Ry

     total magnetization       =    75.75 Bohr mag/cell
     absolute magnetization    =    86.88 Bohr mag/cell

     iteration # 14     ecut=    50.00 Ry     beta= 0.10
     Davidson diagonalization with overlap
     ethr =  1.44E-04,  avg # of iterations =  2.0

     negative rho (up, down):  7.407E-04 1.927E-03
 
     Adding external electric field

     Computed dipole along edir(3) : 
        Dipole               -1.5892 Ry au,         -4.0394 Debye
        Dipole field         -0.0010 Ry au, 
 
        Potential amp.        0.1073 Ry
        Total length         55.1515 bohr
 
 
     Adding external electric field

     Computed dipole along edir(3) : 
        Dipole               -1.5892 Ry au,         -4.0394 Debye
        Dipole field         -0.0010 Ry au, 
 
        Potential amp.        0.1073 Ry
        Total length         55.1515 bohr
 

     total cpu time spent up to now is      269.0 secs

     total energy              =   -7738.03375649 Ry
     estimated scf accuracy    <       0.83025352 Ry

     total magnetization       =    89.73 Bohr mag/cell
     absolute magnetization    =    97.11 Bohr mag/cell

     iteration # 15     ecut=    50.00 Ry     beta= 0.10
     Davidson diagonalization with overlap
     ethr =  7.60E-05,  avg # of iterations =  1.5

     negative rho (up, down):  4.942E-04 1.673E-03
 
     Adding external electric field

     Computed dipole along edir(3) : 
        Dipole               -1.5081 Ry au,         -3.8332 Debye
        Dipole field         -0.0009 Ry au, 
 
        Potential amp.        0.1018 Ry
        Total length         55.1515 bohr
 
 
     Adding external electric field

     Computed dipole along edir(3) : 
        Dipole               -1.5081 Ry au,         -3.8332 Debye
        Dipole field         -0.0009 Ry au, 
 
        Potential amp.        0.1018 Ry
        Total length         55.1515 bohr
 

     total cpu time spent up to now is      281.4 secs

     total energy              =   -7738.14706102 Ry
     estimated scf accuracy    <       0.81490533 Ry

     total magnetization       =    90.01 Bohr mag/cell
     absolute magnetization    =    96.09 Bohr mag/cell

     iteration # 16     ecut=    50.00 Ry     beta= 0.10
     Davidson diagonalization with overlap
     ethr =  7.46E-05,  avg # of iterations =  1.5

     negative rho (up, down):  2.876E-04 1.557E-03
 
     Adding external electric field

     Computed dipole along edir(3) : 
        Dipole               -1.3597 Ry au,         -3.4560 Debye
        Dipole field         -0.0008 Ry au, 
 
        Potential amp.        0.0918 Ry
        Total length         55.1515 bohr
 
 
     Adding external electric field

     Computed dipole along edir(3) : 
        Dipole               -1.3597 Ry au,         -3.4560 Debye
        Dipole field         -0.0008 Ry au, 
 
        Potential amp.        0.0918 Ry
        Total length         55.1515 bohr
 

     total cpu time spent up to now is      294.1 secs

     total energy              =   -7738.15896485 Ry
     estimated scf accuracy    <       0.50777350 Ry

     total magnetization       =    89.51 Bohr mag/cell
     absolute magnetization    =    93.11 Bohr mag/cell

     iteration # 17     ecut=    50.00 Ry     beta= 0.10
     Davidson diagonalization with overlap
     c_bands:  4 eigenvalues not converged
     ethr =  4.65E-05,  avg # of iterations = 11.0

     negative rho (up, down):  2.242E-04 1.535E-03
 
     Adding external electric field

     Computed dipole along edir(3) : 
        Dipole               -1.3338 Ry au,         -3.3901 Debye
        Dipole field         -0.0008 Ry au, 
 
        Potential amp.        0.0901 Ry
        Total length         55.1515 bohr
 
 
     Adding external electric field

     Computed dipole along edir(3) : 
        Dipole               -1.3338 Ry au,         -3.3901 Debye
        Dipole field         -0.0008 Ry au, 
 
        Potential amp.        0.0901 Ry
        Total length         55.1515 bohr
 

     total cpu time spent up to now is      313.4 secs

     total energy              =   -7738.18179624 Ry
     estimated scf accuracy    <       1.13454215 Ry

     total magnetization       =    86.09 Bohr mag/cell
     absolute magnetization    =    88.65 Bohr mag/cell

     iteration # 18     ecut=    50.00 Ry     beta= 0.10
     Davidson diagonalization with overlap
     ethr =  4.65E-05,  avg # of iterations =  1.5

     negative rho (up, down):  3.159E-04 2.094E-03
 
     Adding external electric field

     Computed dipole along edir(3) : 
        Dipole               -1.3823 Ry au,         -3.5134 Debye
        Dipole field         -0.0008 Ry au, 
 
        Potential amp.        0.0933 Ry
        Total length         55.1515 bohr
 
 
     Adding external electric field

     Computed dipole along edir(3) : 
        Dipole               -1.3823 Ry au,         -3.5134 Debye
        Dipole field         -0.0008 Ry au, 
 
        Potential amp.        0.0933 Ry
        Total length         55.1515 bohr
 

     total cpu time spent up to now is      325.7 secs

     total energy              =   -7738.16676400 Ry
     estimated scf accuracy    <       0.86416987 Ry

     total magnetization       =    86.78 Bohr mag/cell
     absolute magnetization    =    89.12 Bohr mag/cell

     iteration # 19     ecut=    50.00 Ry     beta= 0.10
     Davidson diagonalization with overlap
     ethr =  4.65E-05,  avg # of iterations =  1.0

     negative rho (up, down):  2.795E-04 2.094E-03
 
     Adding external electric field

     Computed dipole along edir(3) : 
        Dipole               -1.3729 Ry au,         -3.4895 Debye
        Dipole field         -0.0008 Ry au, 
 
        Potential amp.        0.0927 Ry
        Total length         55.1515 bohr
 
 
     Adding external electric field

     Computed dipole along edir(3) : 
        Dipole               -1.3729 Ry au,         -3.4895 Debye
        Dipole field         -0.0008 Ry au, 
 
        Potential amp.        0.0927 Ry
        Total length         55.1515 bohr
 

     total cpu time spent up to now is      338.1 secs

     total energy              =   -7738.15516800 Ry
     estimated scf accuracy    <       0.58629101 Ry

     total magnetization       =    86.82 Bohr mag/cell
     absolute magnetization    =    89.07 Bohr mag/cell

     iteration # 20     ecut=    50.00 Ry     beta= 0.10
     Davidson diagonalization with overlap
     ethr =  4.65E-05,  avg # of iterations =  1.5

     negative rho (up, down):  2.639E-04 2.040E-03
 
     Adding external electric field

     Computed dipole along edir(3) : 
        Dipole               -1.3714 Ry au,         -3.4859 Debye
        Dipole field         -0.0008 Ry au, 
 
        Potential amp.        0.0926 Ry
        Total length         55.1515 bohr
 
 
     Adding external electric field

     Computed dipole along edir(3) : 
        Dipole               -1.3714 Ry au,         -3.4859 Debye
        Dipole field         -0.0008 Ry au, 
 
        Potential amp.        0.0926 Ry
        Total length         55.1515 bohr
 

     total cpu time spent up to now is      351.0 secs

     total energy              =   -7738.15654095 Ry
     estimated scf accuracy    <       0.52112628 Ry

     total magnetization       =    86.81 Bohr mag/cell
     absolute magnetization    =    89.09 Bohr mag/cell

     iteration # 21     ecut=    50.00 Ry     beta= 0.10
     Davidson diagonalization with overlap
     ethr =  4.65E-05,  avg # of iterations =  1.0

     negative rho (up, down):  6.010E-04 2.458E-03
 
     Adding external electric field

     Computed dipole along edir(3) : 
        Dipole               -1.3967 Ry au,         -3.5499 Debye
        Dipole field         -0.0009 Ry au, 
 
        Potential amp.        0.0943 Ry
        Total length         55.1515 bohr
 
 
     Adding external electric field

     Computed dipole along edir(3) : 
        Dipole               -1.3967 Ry au,         -3.5499 Debye
        Dipole field         -0.0009 Ry au, 
 
        Potential amp.        0.0943 Ry
        Total length         55.1515 bohr
 

     total cpu time spent up to now is      362.7 secs

     total energy              =   -7738.16415960 Ry
     estimated scf accuracy    <       0.50826999 Ry

     total magnetization       =    86.93 Bohr mag/cell
     absolute magnetization    =    89.20 Bohr mag/cell

     iteration # 22     ecut=    50.00 Ry     beta= 0.10
     Davidson diagonalization with overlap
     ethr =  4.65E-05,  avg # of iterations =  1.0

     negative rho (up, down):  1.455E-03 3.019E-03
 
     Adding external electric field

     Computed dipole along edir(3) : 
        Dipole               -1.3832 Ry au,         -3.5157 Debye
        Dipole field         -0.0008 Ry au, 
 
        Potential amp.        0.0934 Ry
        Total length         55.1515 bohr
 
 
     Adding external electric field

     Computed dipole along edir(3) : 
        Dipole               -1.3832 Ry au,         -3.5157 Debye
        Dipole field         -0.0008 Ry au, 
 
        Potential amp.        0.0934 Ry
        Total length         55.1515 bohr
 

     total cpu time spent up to now is      375.8 secs

     total energy              =   -7738.18608182 Ry
     estimated scf accuracy    <       0.24547862 Ry

     total magnetization       =    87.88 Bohr mag/cell
     absolute magnetization    =    89.90 Bohr mag/cell

     iteration # 23     ecut=    50.00 Ry     beta= 0.10
     Davidson diagonalization with overlap
     ethr =  2.25E-05,  avg # of iterations =  2.0

     negative rho (up, down):  1.641E-03 2.938E-03
 
     Adding external electric field

     Computed dipole along edir(3) : 
        Dipole               -1.4125 Ry au,         -3.5903 Debye
        Dipole field         -0.0009 Ry au, 
 
        Potential amp.        0.0954 Ry
        Total length         55.1515 bohr
 
 
     Adding external electric field

     Computed dipole along edir(3) : 
        Dipole               -1.4125 Ry au,         -3.5903 Debye
        Dipole field         -0.0009 Ry au, 
 
        Potential amp.        0.0954 Ry
        Total length         55.1515 bohr
 

     total cpu time spent up to now is      389.4 secs

     total energy              =   -7738.20370997 Ry
     estimated scf accuracy    <       0.16891254 Ry

     total magnetization       =    87.14 Bohr mag/cell
     absolute magnetization    =    88.83 Bohr mag/cell

     iteration # 24     ecut=    50.00 Ry     beta= 0.10
     Davidson diagonalization with overlap
     ethr =  1.55E-05,  avg # of iterations =  2.0

     negative rho (up, down):  3.076E-03 3.492E-03
 
     Adding external electric field

     Computed dipole along edir(3) : 
        Dipole               -1.3732 Ry au,         -3.4904 Debye
        Dipole field         -0.0008 Ry au, 
 
        Potential amp.        0.0927 Ry
        Total length         55.1515 bohr
 
 
     Adding external electric field

     Computed dipole along edir(3) : 
        Dipole               -1.3732 Ry au,         -3.4904 Debye
        Dipole field         -0.0008 Ry au, 
 
        Potential amp.        0.0927 Ry
        Total length         55.1515 bohr
 

     total cpu time spent up to now is      403.4 secs

     total energy              =   -7738.21477450 Ry
     estimated scf accuracy    <       0.09257389 Ry

     total magnetization       =    88.48 Bohr mag/cell
     absolute magnetization    =    90.04 Bohr mag/cell

     iteration # 25     ecut=    50.00 Ry     beta= 0.10
     Davidson diagonalization with overlap
     ethr =  8.47E-06,  avg # of iterations = 16.5

     negative rho (up, down):  3.130E-03 3.568E-03
 
     Adding external electric field

     Computed dipole along edir(3) : 
        Dipole               -1.3576 Ry au,         -3.4506 Debye
        Dipole field         -0.0008 Ry au, 
 
        Potential amp.        0.0917 Ry
        Total length         55.1515 bohr
 
 
     Adding external electric field

     Computed dipole along edir(3) : 
        Dipole               -1.3576 Ry au,         -3.4506 Debye
        Dipole field         -0.0008 Ry au, 
 
        Potential amp.        0.0917 Ry
        Total length         55.1515 bohr
 

     total cpu time spent up to now is      436.0 secs

     total energy              =   -7738.21770469 Ry
     estimated scf accuracy    <       0.13385833 Ry

     total magnetization       =    88.17 Bohr mag/cell
     absolute magnetization    =    89.39 Bohr mag/cell

     iteration # 26     ecut=    50.00 Ry     beta= 0.10
     Davidson diagonalization with overlap
     ethr =  8.47E-06,  avg # of iterations =  1.5

     negative rho (up, down):  2.591E-03 2.921E-03
 
     Adding external electric field

     Computed dipole along edir(3) : 
        Dipole               -1.3102 Ry au,         -3.3301 Debye
        Dipole field         -0.0008 Ry au, 
 
        Potential amp.        0.0885 Ry
        Total length         55.1515 bohr
 
 
     Adding external electric field

     Computed dipole along edir(3) : 
        Dipole               -1.3102 Ry au,         -3.3301 Debye
        Dipole field         -0.0008 Ry au, 
 
        Potential amp.        0.0885 Ry
        Total length         55.1515 bohr
 

     total cpu time spent up to now is      450.2 secs

     total energy              =   -7738.21409447 Ry
     estimated scf accuracy    <       0.12706996 Ry

     total magnetization       =    88.04 Bohr mag/cell
     absolute magnetization    =    89.18 Bohr mag/cell

     iteration # 27     ecut=    50.00 Ry     beta= 0.10
     Davidson diagonalization with overlap
     ethr =  8.47E-06,  avg # of iterations = 10.5

     negative rho (up, down):  2.417E-03 2.685E-03
 
     Adding external electric field

     Computed dipole along edir(3) : 
        Dipole               -1.2718 Ry au,         -3.2325 Debye
        Dipole field         -0.0008 Ry au, 
 
        Potential amp.        0.0859 Ry
        Total length         55.1515 bohr
 
 
     Adding external electric field

     Computed dipole along edir(3) : 
        Dipole               -1.2718 Ry au,         -3.2325 Debye
        Dipole field         -0.0008 Ry au, 
 
        Potential amp.        0.0859 Ry
        Total length         55.1515 bohr
 

     total cpu time spent up to now is      468.2 secs

     total energy              =   -7738.21447809 Ry
     estimated scf accuracy    <       0.04929674 Ry

     total magnetization       =    88.26 Bohr mag/cell
     absolute magnetization    =    89.33 Bohr mag/cell

     iteration # 28     ecut=    50.00 Ry     beta= 0.10
     Davidson diagonalization with overlap
     ethr =  4.51E-06,  avg # of iterations = 18.0

     negative rho (up, down):  1.705E-03 2.232E-03
 
     Adding external electric field

     Computed dipole along edir(3) : 
        Dipole               -1.2145 Ry au,         -3.0869 Debye
        Dipole field         -0.0007 Ry au, 
 
        Potential amp.        0.0820 Ry
        Total length         55.1515 bohr
 
 
     Adding external electric field

     Computed dipole along edir(3) : 
        Dipole               -1.2145 Ry au,         -3.0869 Debye
        Dipole field         -0.0007 Ry au, 
 
        Potential amp.        0.0820 Ry
        Total length         55.1515 bohr
 

     total cpu time spent up to now is      497.7 secs

     total energy              =   -7738.21316088 Ry
     estimated scf accuracy    <       0.05326990 Ry

     total magnetization       =    87.94 Bohr mag/cell
     absolute magnetization    =    89.01 Bohr mag/cell

     iteration # 29     ecut=    50.00 Ry     beta= 0.10
     Davidson diagonalization with overlap
     ethr =  4.51E-06,  avg # of iterations =  2.0

     negative rho (up, down):  1.178E-03 1.793E-03
 
     Adding external electric field

     Computed dipole along edir(3) : 
        Dipole               -1.1865 Ry au,         -3.0159 Debye
        Dipole field         -0.0007 Ry au, 
 
        Potential amp.        0.0801 Ry
        Total length         55.1515 bohr
 
 
     Adding external electric field

     Computed dipole along edir(3) : 
        Dipole               -1.1865 Ry au,         -3.0159 Debye
        Dipole field         -0.0007 Ry au, 
 
        Potential amp.        0.0801 Ry
        Total length         55.1515 bohr
 

     total cpu time spent up to now is      512.4 secs

     total energy              =   -7738.21332129 Ry
     estimated scf accuracy    <       0.07230598 Ry

     total magnetization       =    87.74 Bohr mag/cell
     absolute magnetization    =    88.79 Bohr mag/cell

     iteration # 30     ecut=    50.00 Ry     beta= 0.10
     Davidson diagonalization with overlap
     ethr =  4.51E-06,  avg # of iterations =  2.0

     negative rho (up, down):  1.188E-03 1.897E-03
 
     Adding external electric field

     Computed dipole along edir(3) : 
        Dipole               -1.2158 Ry au,         -3.0902 Debye
        Dipole field         -0.0007 Ry au, 
 
        Potential amp.        0.0821 Ry
        Total length         55.1515 bohr
 
 
     Adding external electric field

     Computed dipole along edir(3) : 
        Dipole               -1.2158 Ry au,         -3.0902 Debye
        Dipole field         -0.0007 Ry au, 
 
        Potential amp.        0.0821 Ry
        Total length         55.1515 bohr
 

     total cpu time spent up to now is      526.8 secs

     total energy              =   -7738.21153236 Ry
     estimated scf accuracy    <       0.25585822 Ry

     total magnetization       =    87.46 Bohr mag/cell
     absolute magnetization    =    88.52 Bohr mag/cell

     iteration # 31     ecut=    50.00 Ry     beta= 0.10
     Davidson diagonalization with overlap
     ethr =  4.51E-06,  avg # of iterations =  2.0

     negative rho (up, down):  1.289E-03 2.043E-03
 
     Adding external electric field

     Computed dipole along edir(3) : 
        Dipole               -1.2201 Ry au,         -3.1013 Debye
        Dipole field         -0.0007 Ry au, 
 
        Potential amp.        0.0824 Ry
        Total length         55.1515 bohr
 
 
     Adding external electric field

     Computed dipole along edir(3) : 
        Dipole               -1.2201 Ry au,         -3.1013 Debye
        Dipole field         -0.0007 Ry au, 
 
        Potential amp.        0.0824 Ry
        Total length         55.1515 bohr
 

     total cpu time spent up to now is      543.6 secs

     total energy              =   -7738.21209709 Ry
     estimated scf accuracy    <       0.06631329 Ry

     total magnetization       =    88.05 Bohr mag/cell
     absolute magnetization    =    89.15 Bohr mag/cell

     iteration # 32     ecut=    50.00 Ry     beta= 0.10
     Davidson diagonalization with overlap
     ethr =  4.51E-06,  avg # of iterations =  1.5

     negative rho (up, down):  1.173E-03 1.525E-03
 
     Adding external electric field

     Computed dipole along edir(3) : 
        Dipole               -1.2158 Ry au,         -3.0903 Debye
        Dipole field         -0.0007 Ry au, 
 
        Potential amp.        0.0821 Ry
        Total length         55.1515 bohr
 
 
     Adding external electric field

     Computed dipole along edir(3) : 
        Dipole               -1.2158 Ry au,         -3.0903 Debye
        Dipole field         -0.0007 Ry au, 
 
        Potential amp.        0.0821 Ry
        Total length         55.1515 bohr
 

     total cpu time spent up to now is      557.1 secs

     total energy              =   -7738.21574504 Ry
     estimated scf accuracy    <       0.05359686 Ry

     total magnetization       =    88.21 Bohr mag/cell
     absolute magnetization    =    89.30 Bohr mag/cell

     iteration # 33     ecut=    50.00 Ry     beta= 0.10
     Davidson diagonalization with overlap
     ethr =  4.51E-06,  avg # of iterations =  1.5

     negative rho (up, down):  1.047E-03 1.489E-03
 
     Adding external electric field

     Computed dipole along edir(3) : 
        Dipole               -1.1693 Ry au,         -2.9721 Debye
        Dipole field         -0.0007 Ry au, 
 
        Potential amp.        0.0789 Ry
        Total length         55.1515 bohr
 
 
     Adding external electric field

     Computed dipole along edir(3) : 
        Dipole               -1.1693 Ry au,         -2.9721 Debye
        Dipole field         -0.0007 Ry au, 
 
        Potential amp.        0.0789 Ry
        Total length         55.1515 bohr
 

     total cpu time spent up to now is      573.1 secs

     total energy              =   -7738.21709579 Ry
     estimated scf accuracy    <       0.20651982 Ry

     total magnetization       =    87.67 Bohr mag/cell
     absolute magnetization    =    88.86 Bohr mag/cell

     iteration # 34     ecut=    50.00 Ry     beta= 0.10
     Davidson diagonalization with overlap
     ethr =  4.51E-06,  avg # of iterations =  1.5

     negative rho (up, down):  1.061E-03 1.449E-03
 
     Adding external electric field

     Computed dipole along edir(3) : 
        Dipole               -1.2058 Ry au,         -3.0648 Debye
        Dipole field         -0.0007 Ry au, 
 
        Potential amp.        0.0814 Ry
        Total length         55.1515 bohr
 
 
     Adding external electric field

     Computed dipole along edir(3) : 
        Dipole               -1.2058 Ry au,         -3.0648 Debye
        Dipole field         -0.0007 Ry au, 
 
        Potential amp.        0.0814 Ry
        Total length         55.1515 bohr
 

     total cpu time spent up to now is      588.8 secs

     total energy              =   -7738.21860170 Ry
     estimated scf accuracy    <       0.25501494 Ry

     total magnetization       =    87.62 Bohr mag/cell
     absolute magnetization    =    88.78 Bohr mag/cell

     iteration # 35     ecut=    50.00 Ry     beta= 0.10
     Davidson diagonalization with overlap
     ethr =  4.51E-06,  avg # of iterations =  1.0

     negative rho (up, down):  8.727E-04 1.404E-03
 
     Adding external electric field

     Computed dipole along edir(3) : 
        Dipole               -1.0638 Ry au,         -2.7039 Debye
        Dipole field         -0.0007 Ry au, 
 
        Potential amp.        0.0718 Ry
        Total length         55.1515 bohr
 
 
     Adding external electric field

     Computed dipole along edir(3) : 
        Dipole               -1.0638 Ry au,         -2.7039 Debye
        Dipole field         -0.0007 Ry au, 
 
        Potential amp.        0.0718 Ry
        Total length         55.1515 bohr
 

     total cpu time spent up to now is      603.0 secs

     total energy              =   -7738.21721618 Ry
     estimated scf accuracy    <       0.28552406 Ry

     total magnetization       =    87.59 Bohr mag/cell
     absolute magnetization    =    88.78 Bohr mag/cell

     iteration # 36     ecut=    50.00 Ry     beta= 0.10
     Davidson diagonalization with overlap
     ethr =  4.51E-06,  avg # of iterations =  2.0

     negative rho (up, down):  2.736E-03 3.370E-03
 
     Adding external electric field

     Computed dipole along edir(3) : 
        Dipole               -0.9905 Ry au,         -2.5176 Debye
        Dipole field         -0.0006 Ry au, 
 
        Potential amp.        0.0669 Ry
        Total length         55.1515 bohr
 
 
     Adding external electric field

     Computed dipole along edir(3) : 
        Dipole               -0.9905 Ry au,         -2.5176 Debye
        Dipole field         -0.0006 Ry au, 
 
        Potential amp.        0.0669 Ry
        Total length         55.1515 bohr
 

     total cpu time spent up to now is      621.1 secs

     total energy              =   -7738.21179874 Ry
     estimated scf accuracy    <       0.25482676 Ry

     total magnetization       =    87.80 Bohr mag/cell
     absolute magnetization    =    89.06 Bohr mag/cell

     iteration # 37     ecut=    50.00 Ry     beta= 0.10
     Davidson diagonalization with overlap
     ethr =  4.51E-06,  avg # of iterations =  2.0

     negative rho (up, down):  3.661E-03 3.876E-03
 
     Adding external electric field

     Computed dipole along edir(3) : 
        Dipole               -0.9591 Ry au,         -2.4377 Debye
        Dipole field         -0.0006 Ry au, 
 
        Potential amp.        0.0648 Ry
        Total length         55.1515 bohr
 
 
     Adding external electric field

     Computed dipole along edir(3) : 
        Dipole               -0.9591 Ry au,         -2.4377 Debye
        Dipole field         -0.0006 Ry au, 
 
        Potential amp.        0.0648 Ry
        Total length         55.1515 bohr
 

     total cpu time spent up to now is      638.9 secs

     total energy              =   -7738.21529917 Ry
     estimated scf accuracy    <       0.03355163 Ry

     total magnetization       =    88.49 Bohr mag/cell
     absolute magnetization    =    89.89 Bohr mag/cell

     iteration # 38     ecut=    50.00 Ry     beta= 0.10
     Davidson diagonalization with overlap
     ethr =  3.07E-06,  avg # of iterations =  2.0

     negative rho (up, down):  4.034E-03 4.053E-03
 
     Adding external electric field

     Computed dipole along edir(3) : 
        Dipole               -0.8857 Ry au,         -2.2513 Debye
        Dipole field         -0.0005 Ry au, 
 
        Potential amp.        0.0598 Ry
        Total length         55.1515 bohr
 
 
     Adding external electric field

     Computed dipole along edir(3) : 
        Dipole               -0.8857 Ry au,         -2.2513 Debye
        Dipole field         -0.0005 Ry au, 
 
        Potential amp.        0.0598 Ry
        Total length         55.1515 bohr
 

     total cpu time spent up to now is      653.2 secs

     total energy              =   -7738.21535017 Ry
     estimated scf accuracy    <       0.02306122 Ry

     total magnetization       =    88.35 Bohr mag/cell
     absolute magnetization    =    89.78 Bohr mag/cell

     iteration # 39     ecut=    50.00 Ry     beta= 0.10
     Davidson diagonalization with overlap
     c_bands:  5 eigenvalues not converged
     c_bands:  3 eigenvalues not converged
     ethr =  2.11E-06,  avg # of iterations = 40.0

     negative rho (up, down):  4.237E-03 4.186E-03
 
     Adding external electric field

     Computed dipole along edir(3) : 
        Dipole               -0.8614 Ry au,         -2.1896 Debye
        Dipole field         -0.0005 Ry au, 
 
        Potential amp.        0.0582 Ry
        Total length         55.1515 bohr
 
 
     Adding external electric field

     Computed dipole along edir(3) : 
        Dipole               -0.8614 Ry au,         -2.1896 Debye
        Dipole field         -0.0005 Ry au, 
 
        Potential amp.        0.0582 Ry
        Total length         55.1515 bohr
 

     total cpu time spent up to now is      705.3 secs

     total energy              =   -7738.21559705 Ry
     estimated scf accuracy    <       0.01780470 Ry

     total magnetization       =    88.49 Bohr mag/cell
     absolute magnetization    =    89.92 Bohr mag/cell

     iteration # 40     ecut=    50.00 Ry     beta= 0.10
     Davidson diagonalization with overlap
     c_bands:  2 eigenvalues not converged
     ethr =  1.63E-06,  avg # of iterations = 17.0

     negative rho (up, down):  3.323E-03 3.191E-03
 
     Adding external electric field

     Computed dipole along edir(3) : 
        Dipole               -0.7911 Ry au,         -2.0108 Debye
        Dipole field         -0.0005 Ry au, 
 
        Potential amp.        0.0534 Ry
        Total length         55.1515 bohr
 
 
     Adding external electric field

     Computed dipole along edir(3) : 
        Dipole               -0.7911 Ry au,         -2.0108 Debye
        Dipole field         -0.0005 Ry au, 
 
        Potential amp.        0.0534 Ry
        Total length         55.1515 bohr
 

     total cpu time spent up to now is      730.7 secs

     total energy              =   -7738.21535799 Ry
     estimated scf accuracy    <       0.01645558 Ry

     total magnetization       =    88.48 Bohr mag/cell
     absolute magnetization    =    89.91 Bohr mag/cell

     iteration # 41     ecut=    50.00 Ry     beta= 0.10
     Davidson diagonalization with overlap
     ethr =  1.51E-06,  avg # of iterations =  2.5

     negative rho (up, down):  4.239E-03 3.938E-03
 
     Adding external electric field

     Computed dipole along edir(3) : 
        Dipole               -0.7478 Ry au,         -1.9006 Debye
        Dipole field         -0.0005 Ry au, 
 
        Potential amp.        0.0505 Ry
        Total length         55.1515 bohr
 
 
     Adding external electric field

     Computed dipole along edir(3) : 
        Dipole               -0.7478 Ry au,         -1.9006 Debye
        Dipole field         -0.0005 Ry au, 
 
        Potential amp.        0.0505 Ry
        Total length         55.1515 bohr
 

     total cpu time spent up to now is      745.4 secs

     total energy              =   -7738.21531677 Ry
     estimated scf accuracy    <       0.01260819 Ry

     total magnetization       =    88.52 Bohr mag/cell
     absolute magnetization    =    89.95 Bohr mag/cell

     iteration # 42     ecut=    50.00 Ry     beta= 0.10
     Davidson diagonalization with overlap
     ethr =  1.15E-06,  avg # of iterations =  2.0

     negative rho (up, down):  4.426E-03 4.077E-03
 
     Adding external electric field

     Computed dipole along edir(3) : 
        Dipole               -0.7301 Ry au,         -1.8557 Debye
        Dipole field         -0.0004 Ry au, 
 
        Potential amp.        0.0493 Ry
        Total length         55.1515 bohr
 
 
     Adding external electric field

     Computed dipole along edir(3) : 
        Dipole               -0.7301 Ry au,         -1.8557 Debye
        Dipole field         -0.0004 Ry au, 
 
        Potential amp.        0.0493 Ry
        Total length         55.1515 bohr
 

     total cpu time spent up to now is      761.0 secs

     total energy              =   -7738.21526433 Ry
     estimated scf accuracy    <       0.00907552 Ry

     total magnetization       =    88.53 Bohr mag/cell
     absolute magnetization    =    89.98 Bohr mag/cell

     iteration # 43     ecut=    50.00 Ry     beta= 0.10
     Davidson diagonalization with overlap
     ethr =  8.30E-07,  avg # of iterations =  2.0

     negative rho (up, down):  3.221E-03 2.750E-03
 
     Adding external electric field

     Computed dipole along edir(3) : 
        Dipole               -0.7017 Ry au,         -1.7835 Debye
        Dipole field         -0.0004 Ry au, 
 
        Potential amp.        0.0474 Ry
        Total length         55.1515 bohr
 
 
     Adding external electric field

     Computed dipole along edir(3) : 
        Dipole               -0.7017 Ry au,         -1.7835 Debye
        Dipole field         -0.0004 Ry au, 
 
        Potential amp.        0.0474 Ry
        Total length         55.1515 bohr
 

     total cpu time spent up to now is      777.5 secs

     total energy              =   -7738.21478944 Ry
     estimated scf accuracy    <       0.00890617 Ry

     total magnetization       =    88.54 Bohr mag/cell
     absolute magnetization    =    90.01 Bohr mag/cell

     iteration # 44     ecut=    50.00 Ry     beta= 0.10
     Davidson diagonalization with overlap
     ethr =  8.15E-07,  avg # of iterations =  2.0

     negative rho (up, down):  1.322E-03 1.222E-03
 
     Adding external electric field

     Computed dipole along edir(3) : 
        Dipole               -0.7032 Ry au,         -1.7873 Debye
        Dipole field         -0.0004 Ry au, 
 
        Potential amp.        0.0475 Ry
        Total length         55.1515 bohr
 
 
     Adding external electric field

     Computed dipole along edir(3) : 
        Dipole               -0.7032 Ry au,         -1.7873 Debye
        Dipole field         -0.0004 Ry au, 
 
        Potential amp.        0.0475 Ry
        Total length         55.1515 bohr
 

     total cpu time spent up to now is      791.6 secs

     total energy              =   -7738.21466288 Ry
     estimated scf accuracy    <       0.00994636 Ry

     total magnetization       =    88.50 Bohr mag/cell
     absolute magnetization    =    90.00 Bohr mag/cell

     iteration # 45     ecut=    50.00 Ry     beta= 0.10
     Davidson diagonalization with overlap
     ethr =  8.15E-07,  avg # of iterations =  2.0

     negative rho (up, down):  2.771E-03 2.644E-03
 
     Adding external electric field

     Computed dipole along edir(3) : 
        Dipole               -0.6705 Ry au,         -1.7042 Debye
        Dipole field         -0.0004 Ry au, 
 
        Potential amp.        0.0453 Ry
        Total length         55.1515 bohr
 
 
     Adding external electric field

     Computed dipole along edir(3) : 
        Dipole               -0.6705 Ry au,         -1.7042 Debye
        Dipole field         -0.0004 Ry au, 
 
        Potential amp.        0.0453 Ry
        Total length         55.1515 bohr
 

     total cpu time spent up to now is      808.2 secs

     total energy              =   -7738.21462982 Ry
     estimated scf accuracy    <       0.00638146 Ry

     total magnetization       =    88.49 Bohr mag/cell
     absolute magnetization    =    90.00 Bohr mag/cell

     iteration # 46     ecut=    50.00 Ry     beta= 0.10
     Davidson diagonalization with overlap
     ethr =  5.84E-07,  avg # of iterations =  2.0

     negative rho (up, down):  3.816E-03 3.860E-03
 
     Adding external electric field

     Computed dipole along edir(3) : 
        Dipole               -0.6511 Ry au,         -1.6549 Debye
        Dipole field         -0.0004 Ry au, 
 
        Potential amp.        0.0440 Ry
        Total length         55.1515 bohr
 
 
     Adding external electric field

     Computed dipole along edir(3) : 
        Dipole               -0.6511 Ry au,         -1.6549 Debye
        Dipole field         -0.0004 Ry au, 
 
        Potential amp.        0.0440 Ry
        Total length         55.1515 bohr
 

     total cpu time spent up to now is      825.0 secs

     total energy              =   -7738.21493514 Ry
     estimated scf accuracy    <       0.00143051 Ry

     total magnetization       =    88.43 Bohr mag/cell
     absolute magnetization    =    89.95 Bohr mag/cell

     iteration # 47     ecut=    50.00 Ry     beta= 0.10
     Davidson diagonalization with overlap
     ethr =  1.31E-07,  avg # of iterations =  2.0

     negative rho (up, down):  3.436E-03 3.622E-03
 
     Adding external electric field

     Computed dipole along edir(3) : 
        Dipole               -0.6471 Ry au,         -1.6446 Debye
        Dipole field         -0.0004 Ry au, 
 
        Potential amp.        0.0437 Ry
        Total length         55.1515 bohr
 
 
     Adding external electric field

     Computed dipole along edir(3) : 
        Dipole               -0.6471 Ry au,         -1.6446 Debye
        Dipole field         -0.0004 Ry au, 
 
        Potential amp.        0.0437 Ry
        Total length         55.1515 bohr
 

     total cpu time spent up to now is      839.4 secs

     total energy              =   -7738.21504946 Ry
     estimated scf accuracy    <       0.00085006 Ry

     total magnetization       =    88.43 Bohr mag/cell
     absolute magnetization    =    89.91 Bohr mag/cell

     iteration # 48     ecut=    50.00 Ry     beta= 0.10
     Davidson diagonalization with overlap
     ethr =  7.78E-08,  avg # of iterations =  2.0

     negative rho (up, down):  2.636E-03 2.646E-03
 
     Adding external electric field

     Computed dipole along edir(3) : 
        Dipole               -0.6439 Ry au,         -1.6366 Debye
        Dipole field         -0.0004 Ry au, 
 
        Potential amp.        0.0435 Ry
        Total length         55.1515 bohr
 
 
     Adding external electric field

     Computed dipole along edir(3) : 
        Dipole               -0.6439 Ry au,         -1.6366 Debye
        Dipole field         -0.0004 Ry au, 
 
        Potential amp.        0.0435 Ry
        Total length         55.1515 bohr
 

     total cpu time spent up to now is      856.3 secs

     total energy              =   -7738.21515037 Ry
     estimated scf accuracy    <       0.00051459 Ry

     total magnetization       =    88.44 Bohr mag/cell
     absolute magnetization    =    89.89 Bohr mag/cell

     iteration # 49     ecut=    50.00 Ry     beta= 0.10
     Davidson diagonalization with overlap
     ethr =  4.71E-08,  avg # of iterations =  2.0

     negative rho (up, down):  1.865E-03 1.665E-03
 
     Adding external electric field

     Computed dipole along edir(3) : 
        Dipole               -0.6424 Ry au,         -1.6329 Debye
        Dipole field         -0.0004 Ry au, 
 
        Potential amp.        0.0434 Ry
        Total length         55.1515 bohr
 
 
     Adding external electric field

     Computed dipole along edir(3) : 
        Dipole               -0.6424 Ry au,         -1.6329 Debye
        Dipole field         -0.0004 Ry au, 
 
        Potential amp.        0.0434 Ry
        Total length         55.1515 bohr
 

     total cpu time spent up to now is      873.1 secs

     total energy              =   -7738.21524572 Ry
     estimated scf accuracy    <       0.00026874 Ry

     total magnetization       =    88.46 Bohr mag/cell
     absolute magnetization    =    89.90 Bohr mag/cell

     iteration # 50     ecut=    50.00 Ry     beta= 0.10
     Davidson diagonalization with overlap
     ethr =  2.46E-08,  avg # of iterations =  2.0

     negative rho (up, down):  1.590E-03 1.329E-03
 
     Adding external electric field

     Computed dipole along edir(3) : 
        Dipole               -0.6433 Ry au,         -1.6351 Debye
        Dipole field         -0.0004 Ry au, 
 
        Potential amp.        0.0434 Ry
        Total length         55.1515 bohr
 
 
     Adding external electric field

     Computed dipole along edir(3) : 
        Dipole               -0.6433 Ry au,         -1.6351 Debye
        Dipole field         -0.0004 Ry au, 
 
        Potential amp.        0.0434 Ry
        Total length         55.1515 bohr
 

     total cpu time spent up to now is      894.4 secs

     total energy              =   -7738.21528447 Ry
     estimated scf accuracy    <       0.00012809 Ry

     total magnetization       =    88.47 Bohr mag/cell
     absolute magnetization    =    89.87 Bohr mag/cell

     iteration # 51     ecut=    50.00 Ry     beta= 0.10
     Davidson diagonalization with overlap
     ethr =  1.17E-08,  avg # of iterations =  5.0

     negative rho (up, down):  1.340E-03 9.416E-04
 
     Adding external electric field

     Computed dipole along edir(3) : 
        Dipole               -0.6465 Ry au,         -1.6433 Debye
        Dipole field         -0.0004 Ry au, 
 
        Potential amp.        0.0437 Ry
        Total length         55.1515 bohr
 
 
     Adding external electric field

     Computed dipole along edir(3) : 
        Dipole               -0.6465 Ry au,         -1.6433 Debye
        Dipole field         -0.0004 Ry au, 
 
        Potential amp.        0.0437 Ry
        Total length         55.1515 bohr
 

     total cpu time spent up to now is      915.5 secs

     total energy              =   -7738.21530385 Ry
     estimated scf accuracy    <       0.00009499 Ry

     total magnetization       =    88.46 Bohr mag/cell
     absolute magnetization    =    89.85 Bohr mag/cell

     iteration # 52     ecut=    50.00 Ry     beta= 0.10
     Davidson diagonalization with overlap
     ethr =  8.69E-09,  avg # of iterations =  1.5

     negative rho (up, down):  1.066E-03 6.560E-04
 
     Adding external electric field

     Computed dipole along edir(3) : 
        Dipole               -0.6523 Ry au,         -1.6579 Debye
        Dipole field         -0.0004 Ry au, 
 
        Potential amp.        0.0440 Ry
        Total length         55.1515 bohr
 
 
     Adding external electric field

     Computed dipole along edir(3) : 
        Dipole               -0.6523 Ry au,         -1.6579 Debye
        Dipole field         -0.0004 Ry au, 
 
        Potential amp.        0.0440 Ry
        Total length         55.1515 bohr
 

     total cpu time spent up to now is      928.4 secs

     total energy              =   -7738.21530185 Ry
     estimated scf accuracy    <       0.00008147 Ry

     total magnetization       =    88.47 Bohr mag/cell
     absolute magnetization    =    89.85 Bohr mag/cell

     iteration # 53     ecut=    50.00 Ry     beta= 0.10
     Davidson diagonalization with overlap
     ethr =  7.45E-09,  avg # of iterations =  2.0

     negative rho (up, down):  8.410E-04 4.240E-04
 
     Adding external electric field

     Computed dipole along edir(3) : 
        Dipole               -0.6588 Ry au,         -1.6745 Debye
        Dipole field         -0.0004 Ry au, 
 
        Potential amp.        0.0445 Ry
        Total length         55.1515 bohr
 
 
     Adding external electric field

     Computed dipole along edir(3) : 
        Dipole               -0.6588 Ry au,         -1.6745 Debye
        Dipole field         -0.0004 Ry au, 
 
        Potential amp.        0.0445 Ry
        Total length         55.1515 bohr
 

     total cpu time spent up to now is      944.9 secs

     total energy              =   -7738.21529679 Ry
     estimated scf accuracy    <       0.00005574 Ry

     total magnetization       =    88.47 Bohr mag/cell
     absolute magnetization    =    89.85 Bohr mag/cell

     iteration # 54     ecut=    50.00 Ry     beta= 0.10
     Davidson diagonalization with overlap
     ethr =  5.10E-09,  avg # of iterations =  1.5

     negative rho (up, down):  6.962E-04 3.021E-04
 
     Adding external electric field

     Computed dipole along edir(3) : 
        Dipole               -0.6633 Ry au,         -1.6860 Debye
        Dipole field         -0.0004 Ry au, 
 
        Potential amp.        0.0448 Ry
        Total length         55.1515 bohr
 
 
     Adding external electric field

     Computed dipole along edir(3) : 
        Dipole               -0.6633 Ry au,         -1.6860 Debye
        Dipole field         -0.0004 Ry au, 
 
        Potential amp.        0.0448 Ry
        Total length         55.1515 bohr
 

     total cpu time spent up to now is      958.4 secs

     total energy              =   -7738.21529469 Ry
     estimated scf accuracy    <       0.00004052 Ry

     total magnetization       =    88.48 Bohr mag/cell
     absolute magnetization    =    89.85 Bohr mag/cell

     iteration # 55     ecut=    50.00 Ry     beta= 0.10
     Davidson diagonalization with overlap
     ethr =  3.71E-09,  avg # of iterations =  2.0

     negative rho (up, down):  5.348E-04 1.897E-04
 
     Adding external electric field

     Computed dipole along edir(3) : 
        Dipole               -0.6666 Ry au,         -1.6943 Debye
        Dipole field         -0.0004 Ry au, 
 
        Potential amp.        0.0450 Ry
        Total length         55.1515 bohr
 
 
     Adding external electric field

     Computed dipole along edir(3) : 
        Dipole               -0.6666 Ry au,         -1.6943 Debye
        Dipole field         -0.0004 Ry au, 
 
        Potential amp.        0.0450 Ry
        Total length         55.1515 bohr
 

     total cpu time spent up to now is      975.4 secs

     total energy              =   -7738.21529483 Ry
     estimated scf accuracy    <       0.00002870 Ry

     total magnetization       =    88.48 Bohr mag/cell
     absolute magnetization    =    89.85 Bohr mag/cell

     iteration # 56     ecut=    50.00 Ry     beta= 0.10
     Davidson diagonalization with overlap
     ethr =  2.63E-09,  avg # of iterations =  2.0

     negative rho (up, down):  4.986E-04 1.569E-04
 
     Adding external electric field

     Computed dipole along edir(3) : 
        Dipole               -0.6665 Ry au,         -1.6941 Debye
        Dipole field         -0.0004 Ry au, 
 
        Potential amp.        0.0450 Ry
        Total length         55.1515 bohr
 
 
     Adding external electric field

     Computed dipole along edir(3) : 
        Dipole               -0.6665 Ry au,         -1.6941 Debye
        Dipole field         -0.0004 Ry au, 
 
        Potential amp.        0.0450 Ry
        Total length         55.1515 bohr
 

     total cpu time spent up to now is      990.8 secs

     total energy              =   -7738.21529699 Ry
     estimated scf accuracy    <       0.00001437 Ry

     total magnetization       =    88.48 Bohr mag/cell
     absolute magnetization    =    89.86 Bohr mag/cell

     iteration # 57     ecut=    50.00 Ry     beta= 0.10
     Davidson diagonalization with overlap
     ethr =  1.31E-09,  avg # of iterations =  2.0

     negative rho (up, down):  7.134E-04 3.063E-04
 
     Adding external electric field

     Computed dipole along edir(3) : 
        Dipole               -0.6616 Ry au,         -1.6815 Debye
        Dipole field         -0.0004 Ry au, 
 
        Potential amp.        0.0447 Ry
        Total length         55.1515 bohr
 
 
     Adding external electric field

     Computed dipole along edir(3) : 
        Dipole               -0.6616 Ry au,         -1.6815 Debye
        Dipole field         -0.0004 Ry au, 
 
        Potential amp.        0.0447 Ry
        Total length         55.1515 bohr
 

     total cpu time spent up to now is     1008.5 secs

     total energy              =   -7738.21529989 Ry
     estimated scf accuracy    <       0.00001607 Ry

     total magnetization       =    88.48 Bohr mag/cell
     absolute magnetization    =    89.86 Bohr mag/cell

     iteration # 58     ecut=    50.00 Ry     beta= 0.10
     Davidson diagonalization with overlap
[...]
     atom   99 type  4   force =    -0.00003435   -0.00006154   -0.00045186
     atom  100 type  4   force =     0.00031704    0.00054591   -0.00038199
     atom  101 type  4   force =     0.00021748   -0.00009490   -0.00022735
     atom  102 type  4   force =     0.00031418    0.00005586    0.00022389
     atom  103 type  4   force =    -0.00038374    0.00038440   -0.00051354
     atom  104 type  4   force =    -0.00045618    0.00053598    0.00009272
     atom  105 type  1   force =    -0.00628129   -0.00839799   -0.00298559
     atom  106 type  2   force =    -0.01196159    0.00020489   -0.00169221
     atom  107 type  1   force =     0.00316805   -0.00439304   -0.00074077
     atom  108 type  1   force =     0.00232729    0.00396814   -0.00174572
     atom  109 type  1   force =     0.00204894   -0.00491811   -0.00037566
     atom  110 type  1   force =    -0.00120918    0.00118567    0.00182119
     atom  111 type  3   force =    -0.00716471   -0.00082798   -0.00044055
     atom  112 type  3   force =    -0.00604838    0.00388410   -0.00145999
     atom  113 type  3   force =     0.00354238   -0.00104819   -0.00517667
     atom  114 type  3   force =     0.00106061   -0.00121250    0.00292130
     atom  115 type  4   force =     0.00879008    0.00506346   -0.00761876
     atom  116 type  4   force =     0.00356185   -0.00121512    0.02023694
     atom  117 type  4   force =    -0.00120566    0.00374992    0.01085050
     atom  118 type  4   force =    -0.00152216   -0.00240500   -0.00900697
     atom  119 type  4   force =     0.00217188    0.00851880    0.00636796
     atom  120 type  4   force =    -0.00549500   -0.00233521   -0.01754389
     atom  121 type  4   force =     0.01114712    0.00646455   -0.00733319
     atom  122 type  4   force =     0.00709243   -0.00307299    0.00602012
     atom  123 type  4   force =     0.00217945    0.00586567   -0.00062450
     atom  124 type  4   force =     0.00303727    0.00109532    0.00553487
     atom  125 type  4   force =    -0.01316308    0.00020304    0.00332341
     atom  126 type  4   force =    -0.01412497    0.00240983   -0.00306115
     atom  127 type  4   force =     0.01310976    0.00281536   -0.00485790
     atom  128 type  4   force =    -0.00415029   -0.00434170   -0.00001176
     atom  129 type  4   force =    -0.00429578    0.00266947   -0.00057899
     atom  130 type  4   force =     0.01642950   -0.00321638    0.00420392
     atom  131 type  1   force =    -0.00755944   -0.00702534   -0.00837966
     atom  132 type  2   force =     0.01573358    0.01724794   -0.00993085
     atom  133 type  1   force =     0.00581510   -0.00490263   -0.00579631
     atom  134 type  1   force =    -0.02053717    0.01925690    0.01986451
     atom  135 type  1   force =     0.00444629   -0.00755648   -0.00141654
     atom  136 type  1   force =    -0.00389691   -0.00536051   -0.00090324
     atom  137 type  3   force =    -0.03902822   -0.03835810   -0.05608527
     atom  138 type  3   force =    -0.00495171   -0.00127053   -0.00118053
     atom  139 type  3   force =     0.00272683   -0.00101842   -0.01014510
     atom  140 type  3   force =     0.02910919   -0.04951443   -0.06061303
     atom  141 type  4   force =     0.00619586    0.00350722    0.02107774
     atom  142 type  4   force =     0.00442228    0.00232389    0.01457591
     atom  143 type  4   force =    -0.00057780    0.00284028    0.01276558
     atom  144 type  4   force =     0.00020152    0.00220188    0.01642724
     atom  145 type  4   force =     0.00121527   -0.00064558    0.03904872
     atom  146 type  4   force =    -0.00544751   -0.00393511   -0.01718857
     atom  147 type  4   force =     0.00780878    0.00454211   -0.00277177
     atom  148 type  4   force =     0.00165641   -0.00742405    0.03539427
     atom  149 type  4   force =    -0.00928682    0.03920427    0.00093156
     atom  150 type  4   force =     0.00208978   -0.00046878    0.00793811
     atom  151 type  4   force =    -0.03002797    0.00087886    0.00762980
     atom  152 type  4   force =    -0.01361325    0.00143638   -0.00042868
     atom  153 type  4   force =     0.01210379    0.00360028   -0.00252388
     atom  154 type  4   force =    -0.00242963   -0.00279625    0.00249631
     atom  155 type  4   force =     0.00905879    0.02584358   -0.00263334
     atom  156 type  4   force =     0.03352794   -0.00618670    0.00600813
     atom  157 type  4   force =     0.00031518    0.00011785    0.00039505
     atom  158 type  5   force =     0.00021791    0.00001552    0.00062372

     Total force =     0.003479     Total SCF correction =     0.000125
     Energy error            =      2.7E-05 Ry
     Gradient error          =      6.9E-04 Ry/Bohr

     bfgs converged in  44 scf cycles and  43 bfgs steps
     (criteria: energy <  1.0E-04 Ry, force <  1.0E-03 Ry/Bohr)

     End of BFGS Geometry Optimization

     Final energy             =   -7738.3180859178 Ry

     File ./tmp/pwscf.bfgs deleted, as requested
Begin final coordinates

ATOMIC_POSITIONS (angstrom)
Ni               2.2173742436        7.9941314684       16.3853930330
Mn               4.4665784770        7.3033229591       13.1709006968
Ni              -0.0142434500        2.8009147164       16.0530348892
Ni               2.3737263714        2.2465157990       13.1765764871
Ni               4.5688593929       10.2057231020       14.7101678931
Ni               2.3115056555        5.0937387269       14.7517936619
P                1.9242731695        9.2241121808       13.2121702900
P                4.2600125517        6.1413122846       16.2259239050
P                2.6440961424        1.0688712724       16.2190055950
P                0.3770860143        4.0802148272       13.1795659416
O                1.2461816036        8.5392421916       14.4843303702
O                3.5373099956        6.7192586747       14.8937693227
O                3.3637787613        1.6501819846       14.8400288110
O                1.0973794691        3.4325281545       14.4650367765
O                1.3889528377        8.4012290646       12.0114300293
O                3.7327858378        7.0448044663       17.3334513498
O                3.1860055536        2.0171838952       17.2802224228
O                0.9299869760        3.2707668177       11.9867609322
O                0.9173627300        5.5426720401       13.2315410255
O                3.1950128864        9.7968916491       16.1859231434
O                3.4443566898        4.0497847920       13.2947512724
O                1.1047630406        1.1095314446       16.0579470563
O                1.1787398080        6.1196589922       16.1545146874
O                3.7511993302        4.6536937989       16.2060909991
O                1.3758811530        0.4894459944       13.2426707202
O                3.4644428910        9.1586630158       13.2950279470
Ni               2.2231694467        7.8387150113       10.2441428465    0   0   0
Mn               4.5291854344        7.1731699804        7.1554177006    0   0   0
Ni               0.0413377460        2.7013109415       10.2603882940    0   0   0
Ni               2.3609701921        2.0961861161        7.1899515213    0   0   0
Ni               4.5771780352       10.0853977451        8.7130228178    0   0   0
Ni               2.2920501783        4.9198282349        8.7227910824    0   0   0
P                1.9122808731        9.1033963050        7.2173607613    0   0   0
P                4.2159980376        5.9505261806       10.2027763372    0   0   0
P                2.6546169098        0.8591972239       10.2283303116    0   0   0
P                0.3619242519        3.9045525432        7.2190763494    0   0   0
O                1.2036838524        8.4272438680        8.5052521184    0   0   0
O                3.4908594272        6.6070736456        8.9170848147    0   0   0
O                3.3665734522        1.5317059583        8.9373367535    0   0   0
O                1.0719826629        3.2671856475        8.5242565260    0   0   0
O                1.3843584724        8.2616841471        6.0256206039    0   0   0
O                3.6610322847        6.7741729017       11.3943375015    0   0   0
O                3.2083661661        1.6483492612       11.4336134640    0   0   0
O                0.8980336260        3.1100721707        6.0140979227    0   0   0
O                0.9070304683        5.3599334065        7.2594010652    0   0   0
O                3.1870699093        9.5847542147       10.1494340391    0   0   0
O                3.4373778089        3.8725200731        7.3188449707    0   0   0
O                1.1269987174        0.9116358839       10.1328903704    0   0   0
O                1.1379920588        6.0211801669       10.1144969906    0   0   0
O                3.6884944322        4.4881192592       10.1758874244    0   0   0
O                1.3600796965        0.3668542279        7.2516081594    0   0   0
O                3.4345382286        9.0669591473        7.3057765327    0   0   0
Ni               2.2162947113        7.7473428066        4.2400449238    0   0   0
Mn               4.5223106990        7.0817977756        1.1513197779    0   0   0
Ni               0.0344630106        2.6099387368        4.2562903713    0   0   0
Ni               2.3540954567        2.0048139114        1.1858535986    0   0   0
Ni               4.5703032998        9.9940255404        2.7089248952    0   0   0
Ni               2.2851754429        4.8284560302        2.7186931597    0   0   0
P                1.9054061377        9.0120241003        1.2132628386    0   0   0
P                4.2091233022        5.8591539759        4.1986784145    0   0   0
P                2.6477421744        0.7678250192        4.2242323889    0   0   0
P                0.3550495165        3.8131803385        1.2149784268    0   0   0
O                1.1968091169        8.3358716633        2.5011541957    0   0   0
O                3.4839846918        6.5157014409        2.9129868921    0   0   0
O                3.3596987168        1.4403337535        2.9332388308    0   0   0
O                1.0651079275        3.1758134427        2.5201586033    0   0   0
O                1.3774837370        8.1703119424        0.0215226813    0   0   0
O                3.6541575493        6.6828006969        5.3902395788    0   0   0
O                3.2014914307        1.5569770565        5.4295155413    0   0   0
O                0.8911588906        3.0186999659        0.0100000000    0   0   0
O                0.9001557329        5.2685612018        1.2553031425    0   0   0
O                3.1801951739        9.4933820100        4.1453361164    0   0   0
O                3.4305030735        3.7811478683        1.3147470481    0   0   0
O                1.1201239820        0.8202636792        4.1287924477    0   0   0
O                1.1311173233        5.9298079622        4.1103990679    0   0   0
O                3.6816196968        4.3967470545        4.1717895017    0   0   0
O                1.3532049611        0.2754820232        1.2475102367    0   0   0
O                3.4276634932        8.9755869426        1.3016786101    0   0   0
Ni               6.9116092030        7.9143874146       16.0861783405
Mn               9.0942351851        7.3077185924       13.1678086969
Ni               4.5868739051        2.8397105382       16.0513476912
Ni               6.9807949161        2.2405839021       13.1756799855
Ni               9.1917874922       10.1781463403       14.7432680349
Ni               6.9247258207        5.0686429382       14.7215244051
P                6.5272389189        9.2339810711       13.1935852529
P                8.8507043058        6.0676810187       16.2755056675
P                7.2337613773        1.0348266140       16.2261511979
P                4.9764606352        4.0865324994       13.1720418908
O                5.8364745699        8.5662045486       14.4775077486
O                8.1567539157        6.6951557348       14.9274001250
O                7.9571143619        1.6005163366       14.8519077176
O                5.6997811297        3.4326975744       14.4570224818
O                5.9871279105        8.3955160150       12.0096299652
O                8.2496799791        6.9433660939       17.3732222783
O                7.8060730496        1.9525986938       17.2953220910
O                5.5331607174        3.2697009843       11.9857285124
O                5.5291195096        5.5465695528       13.2149200509
O                7.7236687055        9.7349928990       16.2210591178
O                8.0544456912        4.0289064347       13.2981999507
O                5.6928772327        1.0995207264       16.0821359034
O                5.8040097740        6.1785692823       16.0738146260
O                8.3243670600        4.5925431813       16.1983018860
O                5.9765169087        0.4957414181       13.2197378736
O                8.0621354007        9.1510156176       13.3093568170
Ni               6.8287916588        7.8387150113       10.2441428465    0   0   0
Mn               9.1348076465        7.1731699804        7.1554177006    0   0   0
Ni               4.6469599580        2.7013109415       10.2603882940    0   0   0
Ni               6.9665924042        2.0961861161        7.1899515213    0   0   0
Ni               9.1828002472       10.0853977451        8.7130228178    0   0   0
Ni               6.8976723903        4.9198282349        8.7227910824    0   0   0
P                6.5179030852        9.1033963050        7.2173607613    0   0   0
P                8.8216202497        5.9505261806       10.2027763372    0   0   0
P                7.2602391219        0.8591972239       10.2283303116    0   0   0
P                4.9675464640        3.9045525432        7.2190763494    0   0   0
O                5.8093060644        8.4272438680        8.5052521184    0   0   0
O                8.0964816393        6.6070736456        8.9170848147    0   0   0
O                7.9721956643        1.5317059583        8.9373367535    0   0   0
O                5.6776048750        3.2671856475        8.5242565260    0   0   0
O                5.9899806845        8.2616841471        6.0256206039    0   0   0
O                8.2666544968        6.7741729017       11.3943375015    0   0   0
O                7.8139883782        1.6483492612       11.4336134640    0   0   0
O                5.5036558380        3.1100721707        6.0140979227    0   0   0
O                5.5126526804        5.3599334065        7.2594010652    0   0   0
O                7.7926921213        9.5847542147       10.1494340391    0   0   0
O                8.0430000209        3.8725200731        7.3188449707    0   0   0
O                5.7326209294        0.9116358839       10.1328903704    0   0   0
O                5.7436142708        6.0211801669       10.1144969906    0   0   0
O                8.2941166443        4.4881192592       10.1758874244    0   0   0
O                5.9657019086        0.3668542279        7.2516081594    0   0   0
O                8.0401604407        9.0669591473        7.3057765327    0   0   0
Ni               6.8219169233        7.7473428066        4.2400449238    0   0   0
Mn               9.1279329110        7.0817977756        1.1513197779    0   0   0
Ni               4.6400852226        2.6099387368        4.2562903713    0   0   0
Ni               6.9597176688        2.0048139114        1.1858535986    0   0   0
Ni               9.1759255118        9.9940255404        2.7089248952    0   0   0
Ni               6.8907976549        4.8284560302        2.7186931597    0   0   0
P                6.5110283498        9.0120241003        1.2132628386    0   0   0
P                8.8147455142        5.8591539759        4.1986784145    0   0   0
P                7.2533643865        0.7678250192        4.2242323889    0   0   0
P                4.9606717285        3.8131803385        1.2149784268    0   0   0
O                5.8024313290        8.3358716633        2.5011541957    0   0   0
O                8.0896069039        6.5157014409        2.9129868921    0   0   0
O                7.9653209289        1.4403337535        2.9332388308    0   0   0
O                5.6707301395        3.1758134427        2.5201586033    0   0   0
O                5.9831059490        8.1703119424        0.0215226813    0   0   0
O                8.2597797614        6.6828006969        5.3902395788    0   0   0
O                7.8071136427        1.5569770565        5.4295155413    0   0   0
O                5.4967811026        3.0186999659        0.0100000000    0   0   0
O                5.5057779450        5.2685612018        1.2553031425    0   0   0
O                7.7858173859        9.4933820100        4.1453361164    0   0   0
O                8.0361252855        3.7811478683        1.3147470481    0   0   0
O                5.7257461940        0.8202636792        4.1287924477    0   0   0
O                5.7367395354        5.9298079622        4.1103990679    0   0   0
O                8.2872419088        4.3967470545        4.1717895017    0   0   0
O                5.9588271731        0.2754820232        1.2475102367    0   0   0
O                8.0332857052        8.9755869426        1.3016786101    0   0   0
O               10.3173780746        8.7828753087       17.5811971285
H                9.5558383052        8.1995721290       17.8300482794
End final coordinates



     Writing all to output data dir ./tmp/pwscf.save/
 
     init_run     :     10.21s CPU     11.26s WALL (       1 calls)
     electrons    :  13247.76s CPU  14007.95s WALL (      44 calls)
     update_pot   :     18.64s CPU     22.60s WALL (      43 calls)
     forces       :    188.28s CPU    213.07s WALL (      44 calls)
     force_london :      4.21s CPU      4.24s WALL (      44 calls)

     Called by init_run:
     wfcinit      :      6.20s CPU      6.53s WALL (       1 calls)
     potinit      :      0.82s CPU      1.07s WALL (       1 calls)
     hinit0       :      1.76s CPU      1.89s WALL (       1 calls)

     Called by electrons:
     c_bands      :  10303.97s CPU  10620.09s WALL (     957 calls)
     sum_band     :   1767.76s CPU   1913.24s WALL (     957 calls)
     v_of_rho     :    343.69s CPU    482.86s WALL (     978 calls)
     newd         :    575.89s CPU    700.94s WALL (     978 calls)
     mix_rho      :    258.85s CPU    260.59s WALL (     957 calls)
     energy_londo :      4.03s CPU      4.05s WALL (      44 calls)

     Called by c_bands:
     init_us_2    :     22.34s CPU     22.93s WALL (    3918 calls)
     init_us_2:cp :     22.31s CPU     22.92s WALL (    3918 calls)
     regterg      :  10091.26s CPU  10403.65s WALL (    1918 calls)

     Called by *egterg:
     rdiaghg      :   2396.31s CPU   2535.87s WALL (    6489 calls)
     h_psi        :   3883.95s CPU   3959.74s WALL (    6623 calls)
     s_psi        :    599.59s CPU    601.45s WALL (    6623 calls)
     g_psi        :      4.81s CPU      4.84s WALL (    4703 calls)

     Called by h_psi:
     h_psi:calbec :   1028.13s CPU   1082.49s WALL (    6623 calls)
     vloc_psi     :   2253.04s CPU   2266.82s WALL (    6623 calls)
     add_vuspsi   :    596.52s CPU    604.00s WALL (    6623 calls)

     General routines
     calbec       :   1583.75s CPU   1667.41s WALL (    8889 calls)
     fft          :    517.28s CPU    679.09s WALL (   18242 calls)
     ffts         :    157.11s CPU    157.68s WALL (  112383 calls)
     fftw         :   2600.09s CPU   2615.64s WALL ( 3266224 calls)
     interpolate  :     23.32s CPU     24.43s WALL (    1956 calls)
 
     Parallel routines
 
     PWSCF        :      3h45m CPU      3h59m WALL

 
   This run was terminated on:   4:51:20   9Nov2025            

=------------------------------------------------------------------------------=
   JOB DONE.
=------------------------------------------------------------------------------=
