
     Program PWSCF v.7.2 starts on 18Nov2025 at  2:24:10 

     This program is part of the open-source Quantum ESPRESSO suite
     for quantum simulation of materials; please cite
         "P. Giannozzi et al., J. Phys.:Condens. Matter 21 395502 (2009);
         "P. Giannozzi et al., J. Phys.:Condens. Matter 29 465901 (2017);
         "P. Giannozzi et al., J. Chem. Phys. 152 154105 (2020);
          URL http://www.quantum-espresso.org", 
     in publications or presentations arising from this work. More details at
     http://www.quantum-espresso.org/quote

     Parallel version (MPI), running on    64 processors

     MPI processes distributed on     4 nodes
     362398 MiB available memory on the printing compute node when the environment starts
 
     Reading input from PWINPUT_atm158_zm

     Current dimensions of program PWSCF are:
     Max number of different atomic species (ntypx) = 10
     Max number of k-points (npk) =  40000
     Max angular momentum in pseudopotentials (lmaxx) =  4
     Presently no symmetry can be used with electric field

     file Ni.pbe-n-rrkjus_psl.1.0.0.UPF: wavefunction(s)  3D renormalized
     file Mn.pbe-spn-rrkjus_psl.0.3.1.UPF: wavefunction(s)  3D renormalized
     file O.pbe-rrkjus.UPF: wavefunction(s)  2S renormalized
     file H.pbe-rrkjus.UPF: wavefunction(s)  1S renormalized

     gamma-point specific algorithms are used
 
     R & G space division:  proc/nbgrp/npool/nimage =      64
     Subspace diagonalization in iterative solution of the eigenvalue problem:
     one sub-group per band group will be used
     custom distributed-memory algorithm (size of sub-group:  7*  7 procs)

 
     Parallelization info
     --------------------
     sticks:   dense  smooth     PW     G-vecs:    dense   smooth      PW
     Min         207      82     20                60552    15302    1896
     Max         210      84     22                60574    15336    1950
     Sum       13325    5345   1333              3876045   980655  122653
 
     Using Slab Decomposition
 


     bravais-lattice index     =            0
     lattice parameter (alat)  =      17.4067  a.u.
     unit-cell volume          =   20529.8182 (a.u.)^3
     number of atoms/cell      =          158
     number of atomic types    =            5
     number of electrons       =      1093.00
     number of Kohn-Sham states=          656
     kinetic-energy cutoff     =      50.0000  Ry
     charge density cutoff     =     500.0000  Ry
     scf convergence threshold =      1.0E-06
     mixing beta               =       0.1000
     number of iterations used =            8  local-TF  mixing
     Exchange-correlation=  SLA  PW   PBE  PBE
                           (   1   4   3   4   0   0   0)

     celldm(1)=  17.406729  celldm(2)=   0.000000  celldm(3)=   0.000000
     celldm(4)=   0.000000  celldm(5)=   0.000000  celldm(6)=   0.000000

     crystal axes: (cart. coord. in units of alat)
               a(1) = (   1.000000   0.000000   0.000000 )  
               a(2) = (  -0.001404   1.105696   0.000000 )  
               a(3) = (   0.000000   0.000000   3.520448 )  

     reciprocal axes: (cart. coord. in units 2 pi/alat)
               b(1) = (  1.000000  0.001270  0.000000 )  
               b(2) = (  0.000000  0.904408  0.000000 )  
               b(3) = (  0.000000  0.000000  0.284055 )  


     PseudoPot. # 1 for Ni read from file:
     ~/PSEUDO/Ni.pbe-n-rrkjus_psl.1.0.0.UPF
     MD5 check sum: Not computed, couldn't open file
     Pseudo is Ultrasoft + core correction, Zval = 10.0
     Generated using "atomic" code by A. Dal Corso  v.5.1.2
     Using radial grid of 1195 points,  6 beta functions with: 
                l(1) =   0
                l(2) =   0
                l(3) =   1
                l(4) =   1
                l(5) =   2
                l(6) =   2
     Q(r) pseudized with 0 coefficients 


     PseudoPot. # 2 for Mn read from file:
     ~/PSEUDO/Mn.pbe-spn-rrkjus_psl.0.3.1.UPF
     MD5 check sum: Not computed, couldn't open file
     Pseudo is Ultrasoft + core correction, Zval = 15.0
     Generated using &quot;atomic&quot; code by A. Dal Corso  v.6.2.2
     Using radial grid of 1187 points,  6 beta functions with: 
                l(1) =   0
                l(2) =   0
                l(3) =   1
                l(4) =   1
                l(5) =   2
                l(6) =   2
     Q(r) pseudized with 0 coefficients 


     PseudoPot. # 3 for P  read from file:
     ~/PSEUDO/P.pbe-n-rrkjus_psl.1.0.0.UPF
     MD5 check sum: Not computed, couldn't open file
     Pseudo is Ultrasoft + core correction, Zval =  5.0
     Generated using "atomic" code by A. Dal Corso  v.5.1
     Using radial grid of 1147 points,  6 beta functions with: 
                l(1) =   0
                l(2) =   0
                l(3) =   1
                l(4) =   1
                l(5) =   2
                l(6) =   2
     Q(r) pseudized with 0 coefficients 


     PseudoPot. # 4 for O  read from file:
     ~/PSEUDO/O.pbe-rrkjus.UPF
     MD5 check sum: Not computed, couldn't open file
     Pseudo is Ultrasoft, Zval =  6.0
     Generated by new atomic code, or converted to UPF format
     Using radial grid of 1269 points,  4 beta functions with: 
                l(1) =   0
                l(2) =   0
                l(3) =   1
                l(4) =   1
     Q(r) pseudized with 0 coefficients 


     PseudoPot. # 5 for H  read from file:
     ~/PSEUDO/H.pbe-rrkjus.UPF
     MD5 check sum: Not computed, couldn't open file
     Pseudo is Ultrasoft, Zval =  1.0
     Generated by new atomic code, or converted to UPF format
     Using radial grid of 1061 points,  2 beta functions with: 
                l(1) =   0
                l(2) =   0
     Q(r) pseudized with 0 coefficients 


     atomic species   valence    mass     pseudopotential
     Ni               10.00    58.69300     Ni( 1.00)
     Mn               15.00    54.93800     Mn( 1.00)
     P                 5.00    30.97300     P ( 1.00)
     O                 6.00    15.99900     O ( 1.00)
     H                 1.00     1.00790     H ( 1.00)

     Starting magnetic structure 
     atomic species   magnetization
     Ni              1.000
     Mn              1.000
     P               1.000
     O               1.000
     H               0.000

     No symmetry found



   Cartesian axes

     site n.     atom                  positions (alat units)
         1        Ni     tau(   1) = (   0.2421002   0.8609138   0.1302181  )
         2        Mn     tau(   2) = (   0.4924481   0.7886602   0.4655392  )
         3        Ni     tau(   3) = (   0.0052341   0.3031820   0.1284544  )
         4        Ni     tau(   4) = (   0.2570603   0.2374878   0.4617901  )
         5        Ni     tau(   5) = (   0.4976584   1.1048203   0.2964410  )
         6        Ni     tau(   6) = (   0.2495781   0.5440308   0.2953805  )
         7        P      tau(   7) = (   0.2083492   0.9982113   0.4588145  )
         8        P      tau(   8) = (   0.4584476   0.6559264   0.1347090  )
         9        P      tau(   9) = (   0.2889394   0.1031966   0.1319347  )
        10        P      tau(  10) = (   0.0400379   0.4338094   0.4586283  )
        11        O      tau(  11) = (   0.1314218   0.9248062   0.3189972  )
        12        O      tau(  12) = (   0.3797244   0.7272031   0.2742874  )
        13        O      tau(  13) = (   0.3662315   0.1762062   0.2720888  )
        14        O      tau(  14) = (   0.1171240   0.3646150   0.3169340  )
        15        O      tau(  15) = (   0.1510364   0.9068326   0.5881934  )
        16        O      tau(  16) = (   0.3981989   0.7453439   0.0053495  )
        17        O      tau(  17) = (   0.3490561   0.1888693   0.0010856  )
        18        O      tau(  18) = (   0.0982395   0.3475583   0.5894443  )
        19        O      tau(  19) = (   0.0992163   0.5918099   0.4542505  )
        20        O      tau(  20) = (   0.3467441   1.0504690   0.1405000  )
        21        O      tau(  21) = (   0.3739183   0.4303319   0.4477971  )
        22        O      tau(  22) = (   0.1230967   0.1088895   0.1422960  )
        23        O      tau(  23) = (   0.1242901   0.6635968   0.1442928  )
        24        O      tau(  24) = (   0.4011802   0.4971632   0.1376281  )
        25        O      tau(  25) = (   0.1484006   0.0497464   0.4550965  )
        26        O      tau(  26) = (   0.3736100   0.9942556   0.4492158  )
        27        Ni     tau(  27) = (   0.2413539   0.8509941   0.7820408  )
        28        Mn     tau(  28) = (   0.4917018   0.7787406   1.1173619  )
        29        Ni     tau(  29) = (   0.0044877   0.2932623   0.7802771  )
        30        Ni     tau(  30) = (   0.2563139   0.2275682   1.1136128  )
        31        Ni     tau(  31) = (   0.4969120   1.0949007   0.9482637  )
        32        Ni     tau(  32) = (   0.2488318   0.5341111   0.9472032  )
        33        P      tau(  33) = (   0.2076029   0.9882917   1.1106372  )
        34        P      tau(  34) = (   0.4577012   0.6460068   0.7865316  )
        35        P      tau(  35) = (   0.2881931   0.0932770   0.7837574  )
        36        P      tau(  36) = (   0.0392916   0.4238898   1.1104509  )
        37        O      tau(  37) = (   0.1306755   0.9148866   0.9708199  )
        38        O      tau(  38) = (   0.3789780   0.7172835   0.9261101  )
        39        O      tau(  39) = (   0.3654852   0.1662865   0.9239115  )
        40        O      tau(  40) = (   0.1163776   0.3546954   0.9687567  )
        41        O      tau(  41) = (   0.1502901   0.8969129   1.2400160  )
        42        O      tau(  42) = (   0.3974525   0.7354243   0.6571722  )
        43        O      tau(  43) = (   0.3483097   0.1789497   0.6529083  )
        44        O      tau(  44) = (   0.0974932   0.3376387   1.2412670  )
        45        O      tau(  45) = (   0.0984699   0.5818903   1.1060732  )
        46        O      tau(  46) = (   0.3459978   1.0405493   0.7923226  )
        47        O      tau(  47) = (   0.3731719   0.4204123   1.0996198  )
        48        O      tau(  48) = (   0.1223503   0.0989699   0.7941187  )
        49        O      tau(  49) = (   0.1235438   0.6536772   0.7961155  )
        50        O      tau(  50) = (   0.4004339   0.4872435   0.7894508  )
        51        O      tau(  51) = (   0.1476543   0.0398268   1.1069192  )
        52        O      tau(  52) = (   0.3728637   0.9843360   1.1010385  )
        53        Ni     tau(  53) = (   0.2370412   0.8309538   1.4331176  )
        54        Mn     tau(  54) = (   0.4926631   0.7628968   1.7632485  )
        55        Ni     tau(  55) = (   0.0034911   0.2761505   1.4288190  )
        56        Ni     tau(  56) = (   0.2447240   0.2143424   1.7402852  )
        57        Ni     tau(  57) = (   0.4995763   1.0749455   1.5940578  )
        58        Ni     tau(  58) = (   0.2416135   0.5184975   1.5926664  )
        59        P      tau(  59) = (   0.2112504   0.9662532   1.7634059  )
        60        P      tau(  60) = (   0.4542182   0.6277361   1.4346135  )
        61        P      tau(  61) = (   0.2883980   0.0741680   1.4295170  )
        62        P      tau(  62) = (   0.0313409   0.4059310   1.7580048  )
        63        O      tau(  63) = (   0.1301929   0.8896257   1.6241257  )
        64        O      tau(  64) = (   0.3764588   0.7005702   1.5725819  )
        65        O      tau(  65) = (   0.3665257   0.1482364   1.5677237  )
        66        O      tau(  66) = (   0.1091997   0.3432023   1.6091719  )
        67        O      tau(  67) = (   0.1578284   0.8739230   1.8896615  )
        68        O      tau(  68) = (   0.3933424   0.7186889   1.3072492  )
        69        O      tau(  69) = (   0.3501246   0.1627399   1.3008447  )
        70        O      tau(  70) = (   0.0912886   0.3068810   1.8752755  )
        71        O      tau(  71) = (   0.0914117   0.5660224   1.7516325  )
        72        O      tau(  72) = (   0.3458000   1.0214174   1.4372269  )
        73        O      tau(  73) = (   0.3623972   0.4009134   1.7433105  )
        74        O      tau(  74) = (   0.1220058   0.0808885   1.4419267  )
        75        O      tau(  75) = (   0.1203913   0.6366918   1.4432295  )
        76        O      tau(  76) = (   0.3954417   0.4696211   1.4353043  )
        77        O      tau(  77) = (   0.1540582   0.0191928   1.7538461  )
        78        O      tau(  78) = (   0.3779668   0.9615796   1.7458500  )
        79        Ni     tau(  79) = (   0.7421002   0.8609138   0.1302181  )
        80        Mn     tau(  80) = (   0.9924481   0.7886602   0.4655392  )
        81        Ni     tau(  81) = (   0.5052341   0.3031820   0.1284544  )
        82        Ni     tau(  82) = (   0.7570603   0.2374878   0.4617901  )
        83        Ni     tau(  83) = (   0.9976584   1.1048203   0.2964410  )
        84        Ni     tau(  84) = (   0.7495781   0.5440308   0.2953805  )
        85        P      tau(  85) = (   0.7083492   0.9982113   0.4588145  )
        86        P      tau(  86) = (   0.9584476   0.6559264   0.1347090  )
        87        P      tau(  87) = (   0.7889394   0.1031966   0.1319347  )
        88        P      tau(  88) = (   0.5400379   0.4338094   0.4586283  )
        89        O      tau(  89) = (   0.6314218   0.9248062   0.3189972  )
        90        O      tau(  90) = (   0.8797244   0.7272031   0.2742874  )
        91        O      tau(  91) = (   0.8662315   0.1762062   0.2720888  )
        92        O      tau(  92) = (   0.6171240   0.3646150   0.3169340  )
        93        O      tau(  93) = (   0.6510364   0.9068326   0.5881934  )
        94        O      tau(  94) = (   0.8981989   0.7453439   0.0053495  )
        95        O      tau(  95) = (   0.8490561   0.1888693   0.0010856  )
        96        O      tau(  96) = (   0.5982395   0.3475583   0.5894443  )
        97        O      tau(  97) = (   0.5992163   0.5918099   0.4542505  )
        98        O      tau(  98) = (   0.8467441   1.0504690   0.1405000  )
        99        O      tau(  99) = (   0.8739183   0.4303319   0.4477971  )
       100        O      tau( 100) = (   0.6230967   0.1088895   0.1422960  )
       101        O      tau( 101) = (   0.6242901   0.6635968   0.1442928  )
       102        O      tau( 102) = (   0.9011802   0.4971632   0.1376281  )
       103        O      tau( 103) = (   0.6484006   0.0497464   0.4550965  )
       104        O      tau( 104) = (   0.8736100   0.9942556   0.4492158  )
       105        Ni     tau( 105) = (   0.7413539   0.8509941   0.7820408  )
       106        Mn     tau( 106) = (   0.9917018   0.7787406   1.1173619  )
       107        Ni     tau( 107) = (   0.5044877   0.2932623   0.7802771  )
       108        Ni     tau( 108) = (   0.7563139   0.2275682   1.1136128  )
       109        Ni     tau( 109) = (   0.9969120   1.0949007   0.9482637  )
       110        Ni     tau( 110) = (   0.7488318   0.5341111   0.9472032  )
       111        P      tau( 111) = (   0.7076029   0.9882917   1.1106372  )
       112        P      tau( 112) = (   0.9577012   0.6460068   0.7865316  )
       113        P      tau( 113) = (   0.7881931   0.0932770   0.7837574  )
       114        P      tau( 114) = (   0.5392916   0.4238898   1.1104509  )
       115        O      tau( 115) = (   0.6306755   0.9148866   0.9708199  )
       116        O      tau( 116) = (   0.8789780   0.7172835   0.9261101  )
       117        O      tau( 117) = (   0.8654852   0.1662865   0.9239115  )
       118        O      tau( 118) = (   0.6163776   0.3546954   0.9687567  )
       119        O      tau( 119) = (   0.6502901   0.8969129   1.2400160  )
       120        O      tau( 120) = (   0.8974525   0.7354243   0.6571722  )
       121        O      tau( 121) = (   0.8483097   0.1789497   0.6529083  )
       122        O      tau( 122) = (   0.5974932   0.3376387   1.2412670  )
       123        O      tau( 123) = (   0.5984699   0.5818903   1.1060732  )
       124        O      tau( 124) = (   0.8459978   1.0405493   0.7923226  )
       125        O      tau( 125) = (   0.8731719   0.4204123   1.0996198  )
       126        O      tau( 126) = (   0.6223503   0.0989699   0.7941187  )
       127        O      tau( 127) = (   0.6235438   0.6536772   0.7961155  )
       128        O      tau( 128) = (   0.9004339   0.4872435   0.7894508  )
       129        O      tau( 129) = (   0.6476543   0.0398268   1.1069192  )
       130        O      tau( 130) = (   0.8728637   0.9843360   1.1010385  )
       131        Ni     tau( 131) = (   0.7405475   0.8318259   1.4311132  )
       132        Mn     tau( 132) = (   0.9956110   0.7649913   1.7729082  )
       133        Ni     tau( 133) = (   0.5039471   0.2761330   1.4286777  )
       134        Ni     tau( 134) = (   0.7471906   0.2159197   1.7400299  )
       135        Ni     tau( 135) = (   0.9997237   1.0727158   1.5948335  )
       136        Ni     tau( 136) = (   0.7423591   0.5225842   1.5983173  )
       137        P      tau( 137) = (   0.7106654   0.9687571   1.7578636  )
       138        P      tau( 138) = (   0.9535148   0.6281623   1.4350960  )
       139        P      tau( 139) = (   0.7895630   0.0747538   1.4291325  )
       140        P      tau( 140) = (   0.5297546   0.4018931   1.7598490  )
       141        O      tau( 141) = (   0.6360973   0.9008987   1.6134331  )
       142        O      tau( 142) = (   0.8772031   0.7029798   1.5721256  )
       143        O      tau( 143) = (   0.8675063   0.1478470   1.5680249  )
       144        O      tau( 144) = (   0.6092829   0.3462856   1.6101587  )
       145        O      tau( 145) = (   0.6496647   0.8750286   1.8813068  )
       146        O      tau( 146) = (   0.8923560   0.7173781   1.3061853  )
       147        O      tau( 147) = (   0.8502327   0.1643644   1.3007850  )
       148        O      tau( 148) = (   0.5890056   0.3002177   1.8750650  )
       149        O      tau( 149) = (   0.5837121   0.5633300   1.7648578  )
       150        O      tau( 150) = (   0.8492978   1.0227497   1.4347303  )
       151        O      tau( 151) = (   0.8642300   0.4033737   1.7425194  )
       152        O      tau( 152) = (   0.6231466   0.0817702   1.4418230  )
       153        O      tau( 153) = (   0.6205382   0.6372338   1.4467102  )
       154        O      tau( 154) = (   0.8948089   0.4700688   1.4374848  )
       155        O      tau( 155) = (   0.6554469   0.0221206   1.7549295  )
       156        O      tau( 156) = (   0.8783489   0.9609671   1.7489419  )
       157        O      tau( 157) = (   0.8834747   0.6919478   1.9099437  )
       158        H      tau( 158) = (   0.7942685   0.7497743   1.9269228  )

     -------------------------------------------------
     Parameters for Dispersion (Grimme-D2) Correction:
     -------------------------------------------------
       atom      VdW radius       C_6     

        Ni         2.952        374.666
        Mn         2.952        374.666
        P          3.222        271.980
        O          2.536         24.284
        H          1.892          4.857

     number of k points=     1  Gaussian smearing, width (Ry)=  0.0100
                       cart. coord. in units 2pi/alat
        k(    1) = (   0.0000000   0.0000000   0.0000000), wk =   1.0000000

     Dense  grid:  1938023 G-vectors     FFT dimensions: ( 125, 144, 450)

     Smooth grid:   490328 G-vectors     FFT dimensions: (  80,  90, 288)

     Estimated max dynamical RAM per process >     326.29 MB

     Estimated total dynamical RAM >      20.39 GB

     Check: negative core charge=   -0.000001
     Generating pointlists ...
     new r_m :   0.0887 (alat units)  1.5433 (a.u.) for type    1
     new r_m :   0.0790 (alat units)  1.3753 (a.u.) for type    2
     new r_m :   0.0679 (alat units)  1.1825 (a.u.) for type    3
     new r_m :   0.0444 (alat units)  0.7730 (a.u.) for type    4
     new r_m :   0.0444 (alat units)  0.7730 (a.u.) for type    5

     Initial potential from superposition of free atoms

     starting charge    1092.8893, renormalised to    1093.0000

     negative rho (up, down):  1.404E-03 4.540E-04
 
     Adding external electric field

     Computed dipole along edir(3) : 
        Dipole                1.6264 Ry au,          4.1338 Debye
        Dipole field          0.0010 Ry au, 
 
        Potential amp.       -0.1098 Ry
        Total length         55.1515 bohr
 
 
     Adding external electric field

     Computed dipole along edir(3) : 
        Dipole                1.6264 Ry au,          4.1338 Debye
        Dipole field          0.0010 Ry au, 
 
        Potential amp.       -0.1098 Ry
        Total length         55.1515 bohr
 
     Starting wfcs are  815 randomized atomic wfcs

     total cpu time spent up to now is       11.8 secs

     Self-consistent Calculation

     iteration #  1     ecut=    50.00 Ry     beta= 0.10
     Davidson diagonalization with overlap
     ethr =  1.00E-02,  avg # of iterations =  6.0

     negative rho (up, down):  3.786E-01 1.918E-07
 
     Adding external electric field

     Computed dipole along edir(3) : 
        Dipole               -3.3292 Ry au,         -8.4619 Debye
        Dipole field         -0.0020 Ry au, 
 
        Potential amp.        0.2248 Ry
        Total length         55.1515 bohr
 
 
     Adding external electric field

     Computed dipole along edir(3) : 
        Dipole               -3.3292 Ry au,         -8.4619 Debye
        Dipole field         -0.0020 Ry au, 
 
        Potential amp.        0.2248 Ry
        Total length         55.1515 bohr
 

     total cpu time spent up to now is       43.5 secs

     total energy              =   -7516.56274027 Ry
     estimated scf accuracy    <     736.76636597 Ry

     total magnetization       =   219.00 Bohr mag/cell
     absolute magnetization    =   307.51 Bohr mag/cell

     iteration #  2     ecut=    50.00 Ry     beta= 0.10
     Davidson diagonalization with overlap
     ethr =  1.00E-02,  avg # of iterations =  2.0

     negative rho (up, down):  3.576E-01 8.795E-08
 
     Adding external electric field

     Computed dipole along edir(3) : 
        Dipole               -2.2624 Ry au,         -5.7505 Debye
        Dipole field         -0.0014 Ry au, 
 
        Potential amp.        0.1528 Ry
        Total length         55.1515 bohr
 
 
     Adding external electric field

     Computed dipole along edir(3) : 
        Dipole               -2.2624 Ry au,         -5.7505 Debye
        Dipole field         -0.0014 Ry au, 
 
        Potential amp.        0.1528 Ry
        Total length         55.1515 bohr
 

     total cpu time spent up to now is       61.8 secs

     total energy              =   -7600.89854292 Ry
     estimated scf accuracy    <     197.87277062 Ry

     total magnetization       =   160.54 Bohr mag/cell
     absolute magnetization    =   208.57 Bohr mag/cell

     iteration #  3     ecut=    50.00 Ry     beta= 0.10
     Davidson diagonalization with overlap
     ethr =  1.00E-02,  avg # of iterations =  1.5

     negative rho (up, down):  3.186E-01 8.389E-08
 
     Adding external electric field

     Computed dipole along edir(3) : 
        Dipole               -2.0062 Ry au,         -5.0993 Debye
        Dipole field         -0.0012 Ry au, 
 
        Potential amp.        0.1355 Ry
        Total length         55.1515 bohr
 
 
     Adding external electric field

     Computed dipole along edir(3) : 
        Dipole               -2.0062 Ry au,         -5.0993 Debye
        Dipole field         -0.0012 Ry au, 
 
        Potential amp.        0.1355 Ry
        Total length         55.1515 bohr
 

     total cpu time spent up to now is       76.6 secs

     total energy              =   -7629.98739746 Ry
     estimated scf accuracy    <      99.26820518 Ry

     total magnetization       =   136.41 Bohr mag/cell
     absolute magnetization    =   186.80 Bohr mag/cell

     iteration #  4     ecut=    50.00 Ry     beta= 0.10
     Davidson diagonalization with overlap
     ethr =  9.08E-03,  avg # of iterations =  1.5

     negative rho (up, down):  2.444E-01 2.053E-08
 
     Adding external electric field

     Computed dipole along edir(3) : 
        Dipole               -1.8594 Ry au,         -4.7262 Debye
        Dipole field         -0.0011 Ry au, 
 
        Potential amp.        0.1255 Ry
        Total length         55.1515 bohr
 
 
     Adding external electric field

     Computed dipole along edir(3) : 
        Dipole               -1.8594 Ry au,         -4.7262 Debye
        Dipole field         -0.0011 Ry au, 
 
        Potential amp.        0.1255 Ry
        Total length         55.1515 bohr
 

     total cpu time spent up to now is       91.2 secs

     total energy              =   -7664.35095557 Ry
     estimated scf accuracy    <      82.78821179 Ry

     total magnetization       =   120.46 Bohr mag/cell
     absolute magnetization    =   172.55 Bohr mag/cell

     iteration #  5     ecut=    50.00 Ry     beta= 0.10
     Davidson diagonalization with overlap
     ethr =  7.57E-03,  avg # of iterations =  1.0

     negative rho (up, down):  2.925E-02 1.265E-07
 
     Adding external electric field

     Computed dipole along edir(3) : 
        Dipole               -1.4365 Ry au,         -3.6513 Debye
        Dipole field         -0.0009 Ry au, 
 
        Potential amp.        0.0970 Ry
        Total length         55.1515 bohr
 
 
     Adding external electric field

     Computed dipole along edir(3) : 
        Dipole               -1.4365 Ry au,         -3.6513 Debye
        Dipole field         -0.0009 Ry au, 
 
        Potential amp.        0.0970 Ry
        Total length         55.1515 bohr
 

     total cpu time spent up to now is      104.6 secs

     total energy              =   -7723.06698791 Ry
     estimated scf accuracy    <      65.26075628 Ry

     total magnetization       =    97.15 Bohr mag/cell
     absolute magnetization    =   152.89 Bohr mag/cell

     iteration #  6     ecut=    50.00 Ry     beta= 0.10
     Davidson diagonalization with overlap
     ethr =  5.97E-03,  avg # of iterations =  1.0

     negative rho (up, down):  6.148E-04 1.384E-03
 
     Adding external electric field

     Computed dipole along edir(3) : 
        Dipole               -1.1043 Ry au,         -2.8069 Debye
        Dipole field         -0.0007 Ry au, 
 
        Potential amp.        0.0746 Ry
        Total length         55.1515 bohr
 
 
     Adding external electric field

     Computed dipole along edir(3) : 
        Dipole               -1.1043 Ry au,         -2.8069 Debye
        Dipole field         -0.0007 Ry au, 
 
        Potential amp.        0.0746 Ry
        Total length         55.1515 bohr
 

     total cpu time spent up to now is      118.4 secs

     total energy              =   -7735.60640892 Ry
     estimated scf accuracy    <      14.15378236 Ry

     total magnetization       =    91.00 Bohr mag/cell
     absolute magnetization    =   125.26 Bohr mag/cell

     iteration #  7     ecut=    50.00 Ry     beta= 0.10
     Davidson diagonalization with overlap
     ethr =  1.29E-03,  avg # of iterations =  6.0

     negative rho (up, down):  5.813E-04 1.279E-03
 
     Adding external electric field

     Computed dipole along edir(3) : 
        Dipole               -1.0871 Ry au,         -2.7631 Debye
        Dipole field         -0.0007 Ry au, 
 
        Potential amp.        0.0734 Ry
        Total length         55.1515 bohr
 
 
     Adding external electric field

     Computed dipole along edir(3) : 
        Dipole               -1.0871 Ry au,         -2.7631 Debye
        Dipole field         -0.0007 Ry au, 
 
        Potential amp.        0.0734 Ry
        Total length         55.1515 bohr
 

     total cpu time spent up to now is      143.0 secs

     total energy              =   -7738.50387328 Ry
     estimated scf accuracy    <      37.66646757 Ry

     total magnetization       =    64.43 Bohr mag/cell
     absolute magnetization    =    82.13 Bohr mag/cell

     iteration #  8     ecut=    50.00 Ry     beta= 0.10
     Davidson diagonalization with overlap
     ethr =  1.29E-03,  avg # of iterations =  1.0

     negative rho (up, down):  4.806E-04 9.709E-04
 
     Adding external electric field

     Computed dipole along edir(3) : 
        Dipole               -1.0233 Ry au,         -2.6010 Debye
        Dipole field         -0.0006 Ry au, 
 
        Potential amp.        0.0691 Ry
        Total length         55.1515 bohr
 
 
     Adding external electric field

     Computed dipole along edir(3) : 
        Dipole               -1.0233 Ry au,         -2.6010 Debye
        Dipole field         -0.0006 Ry au, 
 
        Potential amp.        0.0691 Ry
        Total length         55.1515 bohr
 

     total cpu time spent up to now is      156.6 secs

     total energy              =   -7738.40602839 Ry
     estimated scf accuracy    <      34.23399631 Ry

     total magnetization       =    65.66 Bohr mag/cell
     absolute magnetization    =    82.91 Bohr mag/cell

     iteration #  9     ecut=    50.00 Ry     beta= 0.10
     Davidson diagonalization with overlap
     ethr =  1.29E-03,  avg # of iterations =  1.0

     negative rho (up, down):  4.104E-04 8.512E-04
 
     Adding external electric field

     Computed dipole along edir(3) : 
        Dipole               -1.0024 Ry au,         -2.5478 Debye
        Dipole field         -0.0006 Ry au, 
 
        Potential amp.        0.0677 Ry
        Total length         55.1515 bohr
 
 
     Adding external electric field

     Computed dipole along edir(3) : 
        Dipole               -1.0024 Ry au,         -2.5478 Debye
        Dipole field         -0.0006 Ry au, 
 
        Potential amp.        0.0677 Ry
        Total length         55.1515 bohr
 

     total cpu time spent up to now is      170.2 secs

     total energy              =   -7738.38086938 Ry
     estimated scf accuracy    <      26.31141970 Ry

     total magnetization       =    67.93 Bohr mag/cell
     absolute magnetization    =    84.29 Bohr mag/cell

     iteration # 10     ecut=    50.00 Ry     beta= 0.10
     Davidson diagonalization with overlap
     ethr =  1.29E-03,  avg # of iterations =  1.0

     negative rho (up, down):  2.977E-04 5.990E-04
 
     Adding external electric field

     Computed dipole along edir(3) : 
        Dipole               -1.0819 Ry au,         -2.7498 Debye
        Dipole field         -0.0007 Ry au, 
 
        Potential amp.        0.0730 Ry
        Total length         55.1515 bohr
 
 
     Adding external electric field

     Computed dipole along edir(3) : 
        Dipole               -1.0819 Ry au,         -2.7498 Debye
        Dipole field         -0.0007 Ry au, 
 
        Potential amp.        0.0730 Ry
        Total length         55.1515 bohr
 

     total cpu time spent up to now is      182.9 secs

     total energy              =   -7738.11734019 Ry
     estimated scf accuracy    <      23.73251508 Ry

     total magnetization       =    68.54 Bohr mag/cell
     absolute magnetization    =    84.29 Bohr mag/cell

     iteration # 11     ecut=    50.00 Ry     beta= 0.10
     Davidson diagonalization with overlap
     ethr =  1.29E-03,  avg # of iterations =  1.0

     negative rho (up, down):  2.849E-04 5.682E-04
 
     Adding external electric field

     Computed dipole along edir(3) : 
        Dipole               -1.0517 Ry au,         -2.6731 Debye
        Dipole field         -0.0006 Ry au, 
 
        Potential amp.        0.0710 Ry
        Total length         55.1515 bohr
 
 
     Adding external electric field

     Computed dipole along edir(3) : 
        Dipole               -1.0517 Ry au,         -2.6731 Debye
        Dipole field         -0.0006 Ry au, 
 
        Potential amp.        0.0710 Ry
        Total length         55.1515 bohr
 

     total cpu time spent up to now is      196.3 secs

     total energy              =   -7738.03060017 Ry
     estimated scf accuracy    <      16.77847473 Ry

     total magnetization       =    70.65 Bohr mag/cell
     absolute magnetization    =    84.51 Bohr mag/cell

     iteration # 12     ecut=    50.00 Ry     beta= 0.10
     Davidson diagonalization with overlap
     ethr =  1.29E-03,  avg # of iterations =  1.0

     negative rho (up, down):  2.252E-04 4.790E-04
 
     Adding external electric field

     Computed dipole along edir(3) : 
        Dipole               -0.9998 Ry au,         -2.5412 Debye
        Dipole field         -0.0006 Ry au, 
 
        Potential amp.        0.0675 Ry
        Total length         55.1515 bohr
 
 
     Adding external electric field

     Computed dipole along edir(3) : 
        Dipole               -0.9998 Ry au,         -2.5412 Debye
        Dipole field         -0.0006 Ry au, 
 
        Potential amp.        0.0675 Ry
        Total length         55.1515 bohr
 

     total cpu time spent up to now is      209.1 secs

     total energy              =   -7738.04170642 Ry
     estimated scf accuracy    <       9.33251310 Ry

     total magnetization       =    75.60 Bohr mag/cell
     absolute magnetization    =    87.68 Bohr mag/cell

     iteration # 13     ecut=    50.00 Ry     beta= 0.10
     Davidson diagonalization with overlap
     ethr =  8.54E-04,  avg # of iterations =  1.0

     negative rho (up, down):  9.644E-05 3.172E-04
 
     Adding external electric field

     Computed dipole along edir(3) : 
        Dipole               -0.8242 Ry au,         -2.0948 Debye
        Dipole field         -0.0005 Ry au, 
 
        Potential amp.        0.0556 Ry
        Total length         55.1515 bohr
 
 
     Adding external electric field

     Computed dipole along edir(3) : 
        Dipole               -0.8242 Ry au,         -2.0948 Debye
        Dipole field         -0.0005 Ry au, 
 
        Potential amp.        0.0556 Ry
        Total length         55.1515 bohr
 

     total cpu time spent up to now is      221.6 secs

     total energy              =   -7737.97476925 Ry
     estimated scf accuracy    <       7.85384151 Ry

     total magnetization       =    76.28 Bohr mag/cell
     absolute magnetization    =    87.94 Bohr mag/cell

     iteration # 14     ecut=    50.00 Ry     beta= 0.10
     Davidson diagonalization with overlap
     ethr =  7.19E-04,  avg # of iterations =  1.0

     negative rho (up, down):  4.416E-05 1.407E-04
 
     Adding external electric field

     Computed dipole along edir(3) : 
        Dipole               -0.7010 Ry au,         -1.7818 Debye
        Dipole field         -0.0004 Ry au, 
 
        Potential amp.        0.0473 Ry
        Total length         55.1515 bohr
 
 
     Adding external electric field

     Computed dipole along edir(3) : 
        Dipole               -0.7010 Ry au,         -1.7818 Debye
        Dipole field         -0.0004 Ry au, 
 
        Potential amp.        0.0473 Ry
        Total length         55.1515 bohr
 

     total cpu time spent up to now is      234.8 secs

     total energy              =   -7738.03024928 Ry
     estimated scf accuracy    <       2.60971831 Ry

     total magnetization       =    80.19 Bohr mag/cell
     absolute magnetization    =    90.05 Bohr mag/cell

     iteration # 15     ecut=    50.00 Ry     beta= 0.10
     Davidson diagonalization with overlap
     ethr =  2.39E-04,  avg # of iterations =  1.5

     negative rho (up, down):  5.724E-05 1.505E-04
 
     Adding external electric field

     Computed dipole along edir(3) : 
        Dipole               -0.7253 Ry au,         -1.8434 Debye
        Dipole field         -0.0004 Ry au, 
 
        Potential amp.        0.0490 Ry
        Total length         55.1515 bohr
 
 
     Adding external electric field

     Computed dipole along edir(3) : 
        Dipole               -0.7253 Ry au,         -1.8434 Debye
        Dipole field         -0.0004 Ry au, 
 
        Potential amp.        0.0490 Ry
        Total length         55.1515 bohr
 

     total cpu time spent up to now is      247.6 secs

     total energy              =   -7738.09690542 Ry
     estimated scf accuracy    <       0.94477177 Ry

     total magnetization       =    85.03 Bohr mag/cell
     absolute magnetization    =    93.36 Bohr mag/cell

     iteration # 16     ecut=    50.00 Ry     beta= 0.10
     Davidson diagonalization with overlap
     c_bands:  1 eigenvalues not converged
     ethr =  8.64E-05,  avg # of iterations = 11.0

     negative rho (up, down):  6.956E-05 1.113E-04
 
     Adding external electric field

     Computed dipole along edir(3) : 
        Dipole               -0.7445 Ry au,         -1.8922 Debye
        Dipole field         -0.0005 Ry au, 
 
        Potential amp.        0.0503 Ry
        Total length         55.1515 bohr
 
 
     Adding external electric field

     Computed dipole along edir(3) : 
        Dipole               -0.7445 Ry au,         -1.8922 Debye
        Dipole field         -0.0005 Ry au, 
 
        Potential amp.        0.0503 Ry
        Total length         55.1515 bohr
 

     total cpu time spent up to now is      269.5 secs

     total energy              =   -7738.14286146 Ry
     estimated scf accuracy    <       0.49011839 Ry

     total magnetization       =    87.01 Bohr mag/cell
     absolute magnetization    =    94.61 Bohr mag/cell

     iteration # 17     ecut=    50.00 Ry     beta= 0.10
     Davidson diagonalization with overlap
     ethr =  4.48E-05,  avg # of iterations =  2.0

     negative rho (up, down):  6.400E-05 6.945E-05
 
     Adding external electric field

     Computed dipole along edir(3) : 
        Dipole               -0.7508 Ry au,         -1.9084 Debye
        Dipole field         -0.0005 Ry au, 
 
        Potential amp.        0.0507 Ry
        Total length         55.1515 bohr
 
 
     Adding external electric field

     Computed dipole along edir(3) : 
        Dipole               -0.7508 Ry au,         -1.9084 Debye
        Dipole field         -0.0005 Ry au, 
 
        Potential amp.        0.0507 Ry
        Total length         55.1515 bohr
 

     total cpu time spent up to now is      283.3 secs

     total energy              =   -7738.20019696 Ry
     estimated scf accuracy    <       0.54529710 Ry

     total magnetization       =    86.92 Bohr mag/cell
     absolute magnetization    =    94.05 Bohr mag/cell

     iteration # 18     ecut=    50.00 Ry     beta= 0.10
     Davidson diagonalization with overlap
     ethr =  4.48E-05,  avg # of iterations =  1.5

     negative rho (up, down):  9.283E-06 1.075E-05
 
     Adding external electric field

     Computed dipole along edir(3) : 
        Dipole               -0.6782 Ry au,         -1.7239 Debye
        Dipole field         -0.0004 Ry au, 
 
        Potential amp.        0.0458 Ry
        Total length         55.1515 bohr
 
 
     Adding external electric field

     Computed dipole along edir(3) : 
        Dipole               -0.6782 Ry au,         -1.7239 Debye
        Dipole field         -0.0004 Ry au, 
 
        Potential amp.        0.0458 Ry
        Total length         55.1515 bohr
 

     total cpu time spent up to now is      296.5 secs

     total energy              =   -7738.23600066 Ry
     estimated scf accuracy    <       0.99366245 Ry

     total magnetization       =    86.06 Bohr mag/cell
     absolute magnetization    =    92.57 Bohr mag/cell

     iteration # 19     ecut=    50.00 Ry     beta= 0.10
     Davidson diagonalization with overlap
     ethr =  4.48E-05,  avg # of iterations =  1.5

     negative rho (up, down):  3.308E-07 2.452E-07
 
     Adding external electric field

     Computed dipole along edir(3) : 
        Dipole               -0.5558 Ry au,         -1.4126 Debye
        Dipole field         -0.0003 Ry au, 
 
        Potential amp.        0.0375 Ry
        Total length         55.1515 bohr
 
 
     Adding external electric field

     Computed dipole along edir(3) : 
        Dipole               -0.5558 Ry au,         -1.4126 Debye
        Dipole field         -0.0003 Ry au, 
 
        Potential amp.        0.0375 Ry
        Total length         55.1515 bohr
 

     total cpu time spent up to now is      310.2 secs

     total energy              =   -7738.29371317 Ry
     estimated scf accuracy    <       0.35767550 Ry

     total magnetization       =    86.84 Bohr mag/cell
     absolute magnetization    =    92.34 Bohr mag/cell

     iteration # 20     ecut=    50.00 Ry     beta= 0.10
     Davidson diagonalization with overlap
     ethr =  3.27E-05,  avg # of iterations =  1.5
 
     Adding external electric field

     Computed dipole along edir(3) : 
        Dipole               -0.3670 Ry au,         -0.9329 Debye
        Dipole field         -0.0002 Ry au, 
 
        Potential amp.        0.0248 Ry
        Total length         55.1515 bohr
 
 
     Adding external electric field

     Computed dipole along edir(3) : 
        Dipole               -0.3670 Ry au,         -0.9329 Debye
        Dipole field         -0.0002 Ry au, 
 
        Potential amp.        0.0248 Ry
        Total length         55.1515 bohr
 

     total cpu time spent up to now is      323.3 secs

     total energy              =   -7738.31158659 Ry
     estimated scf accuracy    <       0.30589423 Ry

     total magnetization       =    86.71 Bohr mag/cell
     absolute magnetization    =    91.01 Bohr mag/cell

     iteration # 21     ecut=    50.00 Ry     beta= 0.10
     Davidson diagonalization with overlap
     c_bands:  1 eigenvalues not converged
     ethr =  2.80E-05,  avg # of iterations = 11.0
 
     Adding external electric field

     Computed dipole along edir(3) : 
        Dipole               -0.3856 Ry au,         -0.9801 Debye
        Dipole field         -0.0002 Ry au, 
 
        Potential amp.        0.0260 Ry
        Total length         55.1515 bohr
 
 
     Adding external electric field

     Computed dipole along edir(3) : 
        Dipole               -0.3856 Ry au,         -0.9801 Debye
        Dipole field         -0.0002 Ry au, 
 
        Potential amp.        0.0260 Ry
        Total length         55.1515 bohr
 

     total cpu time spent up to now is      343.0 secs

     total energy              =   -7738.32821952 Ry
     estimated scf accuracy    <       0.45356361 Ry

     total magnetization       =    86.83 Bohr mag/cell
     absolute magnetization    =    90.23 Bohr mag/cell

     iteration # 22     ecut=    50.00 Ry     beta= 0.10
     Davidson diagonalization with overlap
     ethr =  2.80E-05,  avg # of iterations =  1.5
 
     Adding external electric field

     Computed dipole along edir(3) : 
        Dipole               -0.2946 Ry au,         -0.7489 Debye
        Dipole field         -0.0002 Ry au, 
 
        Potential amp.        0.0199 Ry
        Total length         55.1515 bohr
 
 
     Adding external electric field

     Computed dipole along edir(3) : 
        Dipole               -0.2946 Ry au,         -0.7489 Debye
        Dipole field         -0.0002 Ry au, 
 
        Potential amp.        0.0199 Ry
        Total length         55.1515 bohr
 

     total cpu time spent up to now is      359.8 secs

     total energy              =   -7738.34423975 Ry
     estimated scf accuracy    <       0.32943360 Ry

     total magnetization       =    87.03 Bohr mag/cell
     absolute magnetization    =    90.36 Bohr mag/cell

     iteration # 23     ecut=    50.00 Ry     beta= 0.10
     Davidson diagonalization with overlap
     ethr =  2.80E-05,  avg # of iterations =  2.0
 
     Adding external electric field

     Computed dipole along edir(3) : 
        Dipole               -0.3044 Ry au,         -0.7738 Debye
        Dipole field         -0.0002 Ry au, 
 
        Potential amp.        0.0206 Ry
        Total length         55.1515 bohr
 
 
     Adding external electric field

     Computed dipole along edir(3) : 
        Dipole               -0.3044 Ry au,         -0.7738 Debye
        Dipole field         -0.0002 Ry au, 
 
        Potential amp.        0.0206 Ry
        Total length         55.1515 bohr
 

     total cpu time spent up to now is      373.8 secs

     total energy              =   -7738.35086723 Ry
     estimated scf accuracy    <       0.16392440 Ry

     total magnetization       =    86.73 Bohr mag/cell
     absolute magnetization    =    88.97 Bohr mag/cell

     iteration # 24     ecut=    50.00 Ry     beta= 0.10
     Davidson diagonalization with overlap
     ethr =  1.50E-05,  avg # of iterations =  2.0
 
     Adding external electric field

     Computed dipole along edir(3) : 
        Dipole               -0.2853 Ry au,         -0.7252 Debye
        Dipole field         -0.0002 Ry au, 
 
        Potential amp.        0.0193 Ry
        Total length         55.1515 bohr
 
 
     Adding external electric field

     Computed dipole along edir(3) : 
        Dipole               -0.2853 Ry au,         -0.7252 Debye
        Dipole field         -0.0002 Ry au, 
 
        Potential amp.        0.0193 Ry
        Total length         55.1515 bohr
 

     total cpu time spent up to now is      388.5 secs

     total energy              =   -7738.35234245 Ry
     estimated scf accuracy    <       0.08376139 Ry

     total magnetization       =    86.76 Bohr mag/cell
     absolute magnetization    =    88.83 Bohr mag/cell

     iteration # 25     ecut=    50.00 Ry     beta= 0.10
     Davidson diagonalization with overlap
     ethr =  7.66E-06,  avg # of iterations = 16.5
 
     Adding external electric field

     Computed dipole along edir(3) : 
        Dipole               -0.2730 Ry au,         -0.6938 Debye
        Dipole field         -0.0002 Ry au, 
 
        Potential amp.        0.0184 Ry
        Total length         55.1515 bohr
 
 
     Adding external electric field

     Computed dipole along edir(3) : 
        Dipole               -0.2730 Ry au,         -0.6938 Debye
        Dipole field         -0.0002 Ry au, 
 
        Potential amp.        0.0184 Ry
        Total length         55.1515 bohr
 

     total cpu time spent up to now is      419.0 secs

     total energy              =   -7738.35335821 Ry
     estimated scf accuracy    <       0.06674172 Ry

     total magnetization       =    86.69 Bohr mag/cell
     absolute magnetization    =    88.53 Bohr mag/cell

     iteration # 26     ecut=    50.00 Ry     beta= 0.10
     Davidson diagonalization with overlap
     ethr =  6.11E-06,  avg # of iterations =  2.0
 
     Adding external electric field

     Computed dipole along edir(3) : 
        Dipole               -0.2164 Ry au,         -0.5500 Debye
        Dipole field         -0.0001 Ry au, 
 
        Potential amp.        0.0146 Ry
        Total length         55.1515 bohr
 
 
     Adding external electric field

     Computed dipole along edir(3) : 
        Dipole               -0.2164 Ry au,         -0.5500 Debye
        Dipole field         -0.0001 Ry au, 
 
        Potential amp.        0.0146 Ry
        Total length         55.1515 bohr
 

     total cpu time spent up to now is      433.6 secs

     total energy              =   -7738.35170874 Ry
     estimated scf accuracy    <       0.04817410 Ry

     total magnetization       =    86.60 Bohr mag/cell
     absolute magnetization    =    88.33 Bohr mag/cell

     iteration # 27     ecut=    50.00 Ry     beta= 0.10
     Davidson diagonalization with overlap
     c_bands:  4 eigenvalues not converged
     ethr =  4.41E-06,  avg # of iterations = 11.0
 
     Adding external electric field

     Computed dipole along edir(3) : 
        Dipole               -0.2323 Ry au,         -0.5906 Debye
        Dipole field         -0.0001 Ry au, 
 
        Potential amp.        0.0157 Ry
        Total length         55.1515 bohr
 
 
     Adding external electric field

     Computed dipole along edir(3) : 
        Dipole               -0.2323 Ry au,         -0.5906 Debye
        Dipole field         -0.0001 Ry au, 
 
        Potential amp.        0.0157 Ry
        Total length         55.1515 bohr
 

     total cpu time spent up to now is      454.4 secs

     total energy              =   -7738.35273261 Ry
     estimated scf accuracy    <       0.07535556 Ry

     total magnetization       =    86.67 Bohr mag/cell
     absolute magnetization    =    88.35 Bohr mag/cell

     iteration # 28     ecut=    50.00 Ry     beta= 0.10
     Davidson diagonalization with overlap
     ethr =  4.41E-06,  avg # of iterations =  8.0
 
     Adding external electric field

     Computed dipole along edir(3) : 
        Dipole               -0.2302 Ry au,         -0.5851 Debye
        Dipole field         -0.0001 Ry au, 
 
        Potential amp.        0.0155 Ry
        Total length         55.1515 bohr
 
 
     Adding external electric field

     Computed dipole along edir(3) : 
        Dipole               -0.2302 Ry au,         -0.5851 Debye
        Dipole field         -0.0001 Ry au, 
 
        Potential amp.        0.0155 Ry
        Total length         55.1515 bohr
 

     total cpu time spent up to now is      471.0 secs

     total energy              =   -7738.35301293 Ry
     estimated scf accuracy    <       0.06149450 Ry

     total magnetization       =    86.65 Bohr mag/cell
     absolute magnetization    =    88.36 Bohr mag/cell

     iteration # 29     ecut=    50.00 Ry     beta= 0.10
     Davidson diagonalization with overlap
     ethr =  4.41E-06,  avg # of iterations =  2.0
 
     Adding external electric field

     Computed dipole along edir(3) : 
        Dipole               -0.2512 Ry au,         -0.6385 Debye
        Dipole field         -0.0002 Ry au, 
 
        Potential amp.        0.0170 Ry
        Total length         55.1515 bohr
 
 
     Adding external electric field

     Computed dipole along edir(3) : 
        Dipole               -0.2512 Ry au,         -0.6385 Debye
        Dipole field         -0.0002 Ry au, 
 
        Potential amp.        0.0170 Ry
        Total length         55.1515 bohr
 

     total cpu time spent up to now is      485.6 secs

     total energy              =   -7738.34981281 Ry
     estimated scf accuracy    <       0.06561196 Ry

     total magnetization       =    86.66 Bohr mag/cell
     absolute magnetization    =    88.36 Bohr mag/cell

     iteration # 30     ecut=    50.00 Ry     beta= 0.10
     Davidson diagonalization with overlap
     ethr =  4.41E-06,  avg # of iterations =  2.0

     negative rho (up, down):  3.773E-09 3.428E-08
 
     Adding external electric field

     Computed dipole along edir(3) : 
        Dipole               -0.1943 Ry au,         -0.4938 Debye
        Dipole field         -0.0001 Ry au, 
 
        Potential amp.        0.0131 Ry
        Total length         55.1515 bohr
 
 
     Adding external electric field

     Computed dipole along edir(3) : 
        Dipole               -0.1943 Ry au,         -0.4938 Debye
        Dipole field         -0.0001 Ry au, 
 
        Potential amp.        0.0131 Ry
        Total length         55.1515 bohr
 

     total cpu time spent up to now is      500.0 secs

     total energy              =   -7738.34907895 Ry
     estimated scf accuracy    <       0.03920813 Ry

     total magnetization       =    86.67 Bohr mag/cell
     absolute magnetization    =    88.49 Bohr mag/cell

     iteration # 31     ecut=    50.00 Ry     beta= 0.10
     Davidson diagonalization with overlap
     ethr =  3.59E-06,  avg # of iterations =  1.5

     negative rho (up, down):  5.591E-07 4.964E-06
 
     Adding external electric field

     Computed dipole along edir(3) : 
        Dipole               -0.1376 Ry au,         -0.3497 Debye
        Dipole field         -0.0001 Ry au, 
 
        Potential amp.        0.0093 Ry
        Total length         55.1515 bohr
 
 
     Adding external electric field

     Computed dipole along edir(3) : 
        Dipole               -0.1376 Ry au,         -0.3497 Debye
        Dipole field         -0.0001 Ry au, 
 
        Potential amp.        0.0093 Ry
        Total length         55.1515 bohr
 

     total cpu time spent up to now is      513.3 secs

     total energy              =   -7738.34878834 Ry
     estimated scf accuracy    <       0.03845288 Ry

     total magnetization       =    86.71 Bohr mag/cell
     absolute magnetization    =    88.50 Bohr mag/cell

     iteration # 32     ecut=    50.00 Ry     beta= 0.10
     Davidson diagonalization with overlap
     ethr =  3.52E-06,  avg # of iterations =  2.0

     negative rho (up, down):  1.440E-06 1.511E-05
 
     Adding external electric field

     Computed dipole along edir(3) : 
        Dipole               -0.1075 Ry au,         -0.2733 Debye
        Dipole field         -0.0001 Ry au, 
 
        Potential amp.        0.0073 Ry
        Total length         55.1515 bohr
 
 
     Adding external electric field

     Computed dipole along edir(3) : 
        Dipole               -0.1075 Ry au,         -0.2733 Debye
        Dipole field         -0.0001 Ry au, 
 
        Potential amp.        0.0073 Ry
        Total length         55.1515 bohr
 

     total cpu time spent up to now is      528.0 secs

     total energy              =   -7738.34664904 Ry
     estimated scf accuracy    <       0.04709269 Ry

     total magnetization       =    86.75 Bohr mag/cell
     absolute magnetization    =    88.48 Bohr mag/cell

     iteration # 33     ecut=    50.00 Ry     beta= 0.10
     Davidson diagonalization with overlap
     ethr =  3.52E-06,  avg # of iterations =  1.5

     negative rho (up, down):  2.879E-08 3.087E-07
 
     Adding external electric field

     Computed dipole along edir(3) : 
        Dipole               -0.1431 Ry au,         -0.3637 Debye
        Dipole field         -0.0001 Ry au, 
 
        Potential amp.        0.0097 Ry
        Total length         55.1515 bohr
 
 
     Adding external electric field

     Computed dipole along edir(3) : 
        Dipole               -0.1431 Ry au,         -0.3637 Debye
        Dipole field         -0.0001 Ry au, 
 
        Potential amp.        0.0097 Ry
        Total length         55.1515 bohr
 

     total cpu time spent up to now is      542.0 secs

     total energy              =   -7738.35033252 Ry
     estimated scf accuracy    <       0.04568050 Ry

     total magnetization       =    86.77 Bohr mag/cell
     absolute magnetization    =    88.52 Bohr mag/cell

     iteration # 34     ecut=    50.00 Ry     beta= 0.10
     Davidson diagonalization with overlap
     ethr =  3.52E-06,  avg # of iterations =  1.0

     negative rho (up, down):  1.463E-07 2.396E-06
 
     Adding external electric field

     Computed dipole along edir(3) : 
        Dipole               -0.1205 Ry au,         -0.3063 Debye
        Dipole field         -0.0001 Ry au, 
 
        Potential amp.        0.0081 Ry
        Total length         55.1515 bohr
 
 
     Adding external electric field

     Computed dipole along edir(3) : 
        Dipole               -0.1205 Ry au,         -0.3063 Debye
        Dipole field         -0.0001 Ry au, 
 
        Potential amp.        0.0081 Ry
        Total length         55.1515 bohr
 

     total cpu time spent up to now is      555.2 secs

     total energy              =   -7738.34646500 Ry
     estimated scf accuracy    <       0.04856822 Ry

     total magnetization       =    86.75 Bohr mag/cell
     absolute magnetization    =    88.41 Bohr mag/cell

     iteration # 35     ecut=    50.00 Ry     beta= 0.10
     Davidson diagonalization with overlap
     ethr =  3.52E-06,  avg # of iterations =  1.5

     negative rho (up, down):  6.388E-09 4.533E-08
 
     Adding external electric field

     Computed dipole along edir(3) : 
        Dipole               -0.1979 Ry au,         -0.5030 Debye
        Dipole field         -0.0001 Ry au, 
 
        Potential amp.        0.0134 Ry
        Total length         55.1515 bohr
 
 
     Adding external electric field

     Computed dipole along edir(3) : 
        Dipole               -0.1979 Ry au,         -0.5030 Debye
        Dipole field         -0.0001 Ry au, 
 
        Potential amp.        0.0134 Ry
        Total length         55.1515 bohr
 

     total cpu time spent up to now is      568.7 secs

     total energy              =   -7738.34788937 Ry
     estimated scf accuracy    <       0.04700702 Ry

     total magnetization       =    86.78 Bohr mag/cell
     absolute magnetization    =    88.60 Bohr mag/cell

     iteration # 36     ecut=    50.00 Ry     beta= 0.10
     Davidson diagonalization with overlap
     ethr =  3.52E-06,  avg # of iterations =  1.0

     negative rho (up, down):  2.546E-05 9.914E-05
 
     Adding external electric field

     Computed dipole along edir(3) : 
        Dipole               -0.0892 Ry au,         -0.2268 Debye
        Dipole field         -0.0001 Ry au, 
 
        Potential amp.        0.0060 Ry
        Total length         55.1515 bohr
 
 
     Adding external electric field

     Computed dipole along edir(3) : 
        Dipole               -0.0892 Ry au,         -0.2268 Debye
        Dipole field         -0.0001 Ry au, 
 
        Potential amp.        0.0060 Ry
        Total length         55.1515 bohr
 

     total cpu time spent up to now is      580.8 secs

     total energy              =   -7738.34661438 Ry
     estimated scf accuracy    <       0.04750625 Ry

     total magnetization       =    86.79 Bohr mag/cell
     absolute magnetization    =    88.64 Bohr mag/cell

     iteration # 37     ecut=    50.00 Ry     beta= 0.10
     Davidson diagonalization with overlap
     ethr =  3.52E-06,  avg # of iterations =  1.5

     negative rho (up, down):  3.209E-06 2.328E-05
 
     Adding external electric field

     Computed dipole along edir(3) : 
        Dipole               -0.1266 Ry au,         -0.3219 Debye
        Dipole field         -0.0001 Ry au, 
 
        Potential amp.        0.0085 Ry
        Total length         55.1515 bohr
 
 
     Adding external electric field

     Computed dipole along edir(3) : 
        Dipole               -0.1266 Ry au,         -0.3219 Debye
        Dipole field         -0.0001 Ry au, 
 
        Potential amp.        0.0085 Ry
        Total length         55.1515 bohr
 

     total cpu time spent up to now is      594.2 secs

     total energy              =   -7738.34561003 Ry
     estimated scf accuracy    <       0.04505346 Ry

     total magnetization       =    86.70 Bohr mag/cell
     absolute magnetization    =    88.45 Bohr mag/cell

     iteration # 38     ecut=    50.00 Ry     beta= 0.10
     Davidson diagonalization with overlap
     ethr =  3.52E-06,  avg # of iterations =  1.0

     negative rho (up, down):  4.585E-06 3.184E-05
 
     Adding external electric field

     Computed dipole along edir(3) : 
        Dipole               -0.0890 Ry au,         -0.2262 Debye
        Dipole field         -0.0001 Ry au, 
 
        Potential amp.        0.0060 Ry
        Total length         55.1515 bohr
 
 
     Adding external electric field

     Computed dipole along edir(3) : 
        Dipole               -0.0890 Ry au,         -0.2262 Debye
        Dipole field         -0.0001 Ry au, 
 
        Potential amp.        0.0060 Ry
        Total length         55.1515 bohr
 

     total cpu time spent up to now is      606.9 secs

     total energy              =   -7738.34518844 Ry
     estimated scf accuracy    <       0.04662807 Ry

     total magnetization       =    86.81 Bohr mag/cell
     absolute magnetization    =    88.59 Bohr mag/cell

     iteration # 39     ecut=    50.00 Ry     beta= 0.10
     Davidson diagonalization with overlap
     ethr =  3.52E-06,  avg # of iterations =  1.5

     negative rho (up, down):  2.373E-05 7.895E-05
 
     Adding external electric field

     Computed dipole along edir(3) : 
        Dipole               -0.1621 Ry au,         -0.4121 Debye
        Dipole field         -0.0001 Ry au, 
 
        Potential amp.        0.0109 Ry
        Total length         55.1515 bohr
 
 
     Adding external electric field

     Computed dipole along edir(3) : 
        Dipole               -0.1621 Ry au,         -0.4121 Debye
        Dipole field         -0.0001 Ry au, 
 
        Potential amp.        0.0109 Ry
        Total length         55.1515 bohr
 

     total cpu time spent up to now is      619.8 secs

     total energy              =   -7738.34834366 Ry
     estimated scf accuracy    <       0.04645485 Ry

     total magnetization       =    86.75 Bohr mag/cell
     absolute magnetization    =    88.55 Bohr mag/cell

     iteration # 40     ecut=    50.00 Ry     beta= 0.10
     Davidson diagonalization with overlap
     ethr =  3.52E-06,  avg # of iterations =  1.0

     negative rho (up, down):  3.402E-05 1.099E-04
 
     Adding external electric field

     Computed dipole along edir(3) : 
        Dipole               -0.1958 Ry au,         -0.4977 Debye
        Dipole field         -0.0001 Ry au, 
 
        Potential amp.        0.0132 Ry
        Total length         55.1515 bohr
 
 
     Adding external electric field

     Computed dipole along edir(3) : 
        Dipole               -0.1958 Ry au,         -0.4977 Debye
        Dipole field         -0.0001 Ry au, 
 
        Potential amp.        0.0132 Ry
        Total length         55.1515 bohr
 

     total cpu time spent up to now is      632.4 secs

     total energy              =   -7738.34773340 Ry
     estimated scf accuracy    <       0.04514433 Ry

     total magnetization       =    86.81 Bohr mag/cell
     absolute magnetization    =    88.53 Bohr mag/cell

     iteration # 41     ecut=    50.00 Ry     beta= 0.10
     Davidson diagonalization with overlap
     ethr =  3.52E-06,  avg # of iterations =  1.0

     negative rho (up, down):  9.534E-07 4.889E-06
 
     Adding external electric field

     Computed dipole along edir(3) : 
        Dipole               -0.0931 Ry au,         -0.2366 Debye
        Dipole field         -0.0001 Ry au, 
 
        Potential amp.        0.0063 Ry
        Total length         55.1515 bohr
 
 
     Adding external electric field

     Computed dipole along edir(3) : 
        Dipole               -0.0931 Ry au,         -0.2366 Debye
        Dipole field         -0.0001 Ry au, 
 
        Potential amp.        0.0063 Ry
        Total length         55.1515 bohr
 

     total cpu time spent up to now is      645.0 secs

     total energy              =   -7738.34928396 Ry
     estimated scf accuracy    <       0.05072447 Ry

     total magnetization       =    86.78 Bohr mag/cell
     absolute magnetization    =    88.55 Bohr mag/cell

     iteration # 42     ecut=    50.00 Ry     beta= 0.10
     Davidson diagonalization with overlap
     ethr =  3.52E-06,  avg # of iterations =  2.0

     negative rho (up, down):  1.355E-05 3.200E-05
 
     Adding external electric field

     Computed dipole along edir(3) : 
        Dipole               -0.2792 Ry au,         -0.7096 Debye
        Dipole field         -0.0002 Ry au, 
 
        Potential amp.        0.0189 Ry
        Total length         55.1515 bohr
 
 
     Adding external electric field

     Computed dipole along edir(3) : 
        Dipole               -0.2792 Ry au,         -0.7096 Debye
        Dipole field         -0.0002 Ry au, 
 
        Potential amp.        0.0189 Ry
        Total length         55.1515 bohr
 

     total cpu time spent up to now is      658.9 secs

     total energy              =   -7738.34977923 Ry
     estimated scf accuracy    <       0.04618692 Ry

     total magnetization       =    86.87 Bohr mag/cell
     absolute magnetization    =    88.53 Bohr mag/cell

     iteration # 43     ecut=    50.00 Ry     beta= 0.10
     Davidson diagonalization with overlap
     ethr =  3.52E-06,  avg # of iterations =  2.0

     negative rho (up, down):  1.279E-06 3.477E-06
 
     Adding external electric field

     Computed dipole along edir(3) : 
        Dipole               -0.0765 Ry au,         -0.1946 Debye
        Dipole field         -0.0000 Ry au, 
 
        Potential amp.        0.0052 Ry
        Total length         55.1515 bohr
 
 
     Adding external electric field

     Computed dipole along edir(3) : 
        Dipole               -0.0765 Ry au,         -0.1946 Debye
        Dipole field         -0.0000 Ry au, 
 
        Potential amp.        0.0052 Ry
        Total length         55.1515 bohr
 

     total cpu time spent up to now is      672.7 secs

     total energy              =   -7738.35029770 Ry
     estimated scf accuracy    <       0.04546958 Ry

     total magnetization       =    86.82 Bohr mag/cell
     absolute magnetization    =    88.54 Bohr mag/cell

     iteration # 44     ecut=    50.00 Ry     beta= 0.10
     Davidson diagonalization with overlap
     ethr =  3.52E-06,  avg # of iterations =  1.0

     negative rho (up, down):  5.554E-06 1.717E-05
 
     Adding external electric field

     Computed dipole along edir(3) : 
        Dipole               -0.1386 Ry au,         -0.3524 Debye
        Dipole field         -0.0001 Ry au, 
 
        Potential amp.        0.0094 Ry
        Total length         55.1515 bohr
 
 
     Adding external electric field

     Computed dipole along edir(3) : 
        Dipole               -0.1386 Ry au,         -0.3524 Debye
        Dipole field         -0.0001 Ry au, 
 
        Potential amp.        0.0094 Ry
        Total length         55.1515 bohr
 

     total cpu time spent up to now is      685.3 secs

     total energy              =   -7738.35009684 Ry
     estimated scf accuracy    <       0.04448262 Ry

     total magnetization       =    86.82 Bohr mag/cell
     absolute magnetization    =    88.35 Bohr mag/cell

     iteration # 45     ecut=    50.00 Ry     beta= 0.10
     Davidson diagonalization with overlap
     ethr =  3.52E-06,  avg # of iterations =  1.0

     negative rho (up, down):  8.023E-05 2.470E-04
 
     Adding external electric field

     Computed dipole along edir(3) : 
        Dipole               -0.1154 Ry au,         -0.2933 Debye
        Dipole field         -0.0001 Ry au, 
 
        Potential amp.        0.0078 Ry
        Total length         55.1515 bohr
 
 
     Adding external electric field

     Computed dipole along edir(3) : 
        Dipole               -0.1154 Ry au,         -0.2933 Debye
        Dipole field         -0.0001 Ry au, 
 
        Potential amp.        0.0078 Ry
        Total length         55.1515 bohr
 

     total cpu time spent up to now is      697.5 secs

     total energy              =   -7738.34874172 Ry
     estimated scf accuracy    <       0.04335417 Ry

     total magnetization       =    86.81 Bohr mag/cell
     absolute magnetization    =    88.38 Bohr mag/cell

     iteration # 46     ecut=    50.00 Ry     beta= 0.10
     Davidson diagonalization with overlap
     ethr =  3.52E-06,  avg # of iterations =  1.5

     negative rho (up, down):  9.333E-08 2.541E-07
 
     Adding external electric field

     Computed dipole along edir(3) : 
        Dipole               -0.0644 Ry au,         -0.1638 Debye
        Dipole field         -0.0000 Ry au, 
 
        Potential amp.        0.0044 Ry
        Total length         55.1515 bohr
 
 
     Adding external electric field

     Computed dipole along edir(3) : 
        Dipole               -0.0644 Ry au,         -0.1638 Debye
        Dipole field         -0.0000 Ry au, 
 
        Potential amp.        0.0044 Ry
        Total length         55.1515 bohr
 

     total cpu time spent up to now is      711.2 secs

     total energy              =   -7738.34852422 Ry
     estimated scf accuracy    <       0.05406120 Ry

     total magnetization       =    86.72 Bohr mag/cell
     absolute magnetization    =    88.16 Bohr mag/cell

     iteration # 47     ecut=    50.00 Ry     beta= 0.10
     Davidson diagonalization with overlap
     ethr =  3.52E-06,  avg # of iterations =  2.0

     negative rho (up, down):  4.782E-08 2.050E-07
 
     Adding external electric field

     Computed dipole along edir(3) : 
        Dipole               -0.1121 Ry au,         -0.2848 Debye
        Dipole field         -0.0001 Ry au, 
 
        Potential amp.        0.0076 Ry
        Total length         55.1515 bohr
 
 
     Adding external electric field

     Computed dipole along edir(3) : 
        Dipole               -0.1121 Ry au,         -0.2848 Debye
        Dipole field         -0.0001 Ry au, 
 
        Potential amp.        0.0076 Ry
        Total length         55.1515 bohr
 

     total cpu time spent up to now is      725.9 secs

     total energy              =   -7738.35020753 Ry
     estimated scf accuracy    <       0.04625387 Ry

     total magnetization       =    86.91 Bohr mag/cell
     absolute magnetization    =    88.60 Bohr mag/cell

     iteration # 48     ecut=    50.00 Ry     beta= 0.10
     Davidson diagonalization with overlap
     ethr =  3.52E-06,  avg # of iterations =  1.0

     negative rho (up, down):  8.707E-07 1.401E-06
 
     Adding external electric field

     Computed dipole along edir(3) : 
        Dipole               -0.1659 Ry au,         -0.4217 Debye
        Dipole field         -0.0001 Ry au, 
 
        Potential amp.        0.0112 Ry
        Total length         55.1515 bohr
 
 
     Adding external electric field

     Computed dipole along edir(3) : 
        Dipole               -0.1659 Ry au,         -0.4217 Debye
        Dipole field         -0.0001 Ry au, 
 
        Potential amp.        0.0112 Ry
        Total length         55.1515 bohr
 

     total cpu time spent up to now is      738.7 secs

     total energy              =   -7738.35154059 Ry
     estimated scf accuracy    <       0.03975768 Ry

     total magnetization       =    86.88 Bohr mag/cell
     absolute magnetization    =    88.54 Bohr mag/cell

     iteration # 49     ecut=    50.00 Ry     beta= 0.10
     Davidson diagonalization with overlap
     ethr =  3.52E-06,  avg # of iterations =  1.0

     negative rho (up, down):  1.197E-08 3.010E-08
 
     Adding external electric field

     Computed dipole along edir(3) : 
        Dipole               -0.1927 Ry au,         -0.4897 Debye
        Dipole field         -0.0001 Ry au, 
 
        Potential amp.        0.0130 Ry
        Total length         55.1515 bohr
 
 
     Adding external electric field

     Computed dipole along edir(3) : 
        Dipole               -0.1927 Ry au,         -0.4897 Debye
        Dipole field         -0.0001 Ry au, 
 
        Potential amp.        0.0130 Ry
        Total length         55.1515 bohr
 

     total cpu time spent up to now is      752.0 secs

     total energy              =   -7738.35127700 Ry
     estimated scf accuracy    <       0.04119081 Ry

     total magnetization       =    86.97 Bohr mag/cell
     absolute magnetization    =    88.56 Bohr mag/cell

     iteration # 50     ecut=    50.00 Ry     beta= 0.10
     Davidson diagonalization with overlap
     ethr =  3.52E-06,  avg # of iterations =  1.0

     negative rho (up, down):  3.452E-06 9.792E-06
 
     Adding external electric field

     Computed dipole along edir(3) : 
        Dipole               -0.0045 Ry au,         -0.0115 Debye
        Dipole field         -0.0000 Ry au, 
 
        Potential amp.        0.0003 Ry
        Total length         55.1515 bohr
 
 
     Adding external electric field

     Computed dipole along edir(3) : 
        Dipole               -0.0045 Ry au,         -0.0115 Debye
        Dipole field         -0.0000 Ry au, 
 
        Potential amp.        0.0003 Ry
        Total length         55.1515 bohr
 

     total cpu time spent up to now is      764.4 secs

     total energy              =   -7738.34853009 Ry
     estimated scf accuracy    <       0.04052475 Ry

     total magnetization       =    86.89 Bohr mag/cell
     absolute magnetization    =    88.51 Bohr mag/cell

     iteration # 51     ecut=    50.00 Ry     beta= 0.10
     Davidson diagonalization with overlap
     ethr =  3.52E-06,  avg # of iterations =  1.5

     negative rho (up, down):  2.224E-06 5.846E-06
 
     Adding external electric field

     Computed dipole along edir(3) : 
        Dipole               -0.1545 Ry au,         -0.3926 Debye
        Dipole field         -0.0001 Ry au, 
 
        Potential amp.        0.0104 Ry
        Total length         55.1515 bohr
 
 
     Adding external electric field

     Computed dipole along edir(3) : 
        Dipole               -0.1545 Ry au,         -0.3926 Debye
        Dipole field         -0.0001 Ry au, 
 
        Potential amp.        0.0104 Ry
        Total length         55.1515 bohr
 

     total cpu time spent up to now is      778.5 secs

     total energy              =   -7738.35010484 Ry
     estimated scf accuracy    <       0.04358384 Ry

     total magnetization       =    86.90 Bohr mag/cell
     absolute magnetization    =    88.64 Bohr mag/cell

     iteration # 52     ecut=    50.00 Ry     beta= 0.10
     Davidson diagonalization with overlap
     ethr =  3.52E-06,  avg # of iterations =  1.0

     negative rho (up, down):  2.666E-05 4.200E-05
 
     Adding external electric field

     Computed dipole along edir(3) : 
        Dipole                0.1483 Ry au,          0.3771 Debye
        Dipole field          0.0001 Ry au, 
 
        Potential amp.       -0.0100 Ry
        Total length         55.1515 bohr
 
 
     Adding external electric field

     Computed dipole along edir(3) : 
        Dipole                0.1483 Ry au,          0.3771 Debye
        Dipole field          0.0001 Ry au, 
 
        Potential amp.       -0.0100 Ry
        Total length         55.1515 bohr
 

     total cpu time spent up to now is      791.6 secs

     total energy              =   -7738.35021174 Ry
     estimated scf accuracy    <       0.04402065 Ry

     total magnetization       =    86.86 Bohr mag/cell
     absolute magnetization    =    88.54 Bohr mag/cell

     iteration # 53     ecut=    50.00 Ry     beta= 0.10
     Davidson diagonalization with overlap
     ethr =  3.52E-06,  avg # of iterations =  2.0

     negative rho (up, down):  1.463E-04 1.860E-04
 
     Adding external electric field

     Computed dipole along edir(3) : 
        Dipole                0.2998 Ry au,          0.7621 Debye
        Dipole field          0.0002 Ry au, 
 
        Potential amp.       -0.0202 Ry
        Total length         55.1515 bohr
 
 
     Adding external electric field

     Computed dipole along edir(3) : 
        Dipole                0.2998 Ry au,          0.7621 Debye
        Dipole field          0.0002 Ry au, 
 
        Potential amp.       -0.0202 Ry
        Total length         55.1515 bohr
 

     total cpu time spent up to now is      805.4 secs

     total energy              =   -7738.35081020 Ry
     estimated scf accuracy    <       0.03255313 Ry

     total magnetization       =    86.94 Bohr mag/cell
     absolute magnetization    =    88.55 Bohr mag/cell

     iteration # 54     ecut=    50.00 Ry     beta= 0.10
     Davidson diagonalization with overlap
     ethr =  2.98E-06,  avg # of iterations =  1.5

     negative rho (up, down):  2.705E-04 2.832E-04
 
     Adding external electric field

     Computed dipole along edir(3) : 
        Dipole                0.2865 Ry au,          0.7283 Debye
        Dipole field          0.0002 Ry au, 
 
        Potential amp.       -0.0193 Ry
        Total length         55.1515 bohr
 
 
     Adding external electric field

     Computed dipole along edir(3) : 
        Dipole                0.2865 Ry au,          0.7283 Debye
        Dipole field          0.0002 Ry au, 
 
        Potential amp.       -0.0193 Ry
        Total length         55.1515 bohr
 

     total cpu time spent up to now is      818.3 secs

     total energy              =   -7738.34992490 Ry
     estimated scf accuracy    <       0.02570434 Ry

     total magnetization       =    86.92 Bohr mag/cell
     absolute magnetization    =    88.50 Bohr mag/cell

     iteration # 55     ecut=    50.00 Ry     beta= 0.10
     Davidson diagonalization with overlap
     ethr =  2.35E-06,  avg # of iterations =  2.0

     negative rho (up, down):  2.449E-04 1.846E-04
 
     Adding external electric field

     Computed dipole along edir(3) : 
        Dipole                0.3544 Ry au,          0.9007 Debye
        Dipole field          0.0002 Ry au, 
 
        Potential amp.       -0.0239 Ry
        Total length         55.1515 bohr
 
 
     Adding external electric field

     Computed dipole along edir(3) : 
        Dipole                0.3544 Ry au,          0.9007 Debye
        Dipole field          0.0002 Ry au, 
 
        Potential amp.       -0.0239 Ry
        Total length         55.1515 bohr
 

     total cpu time spent up to now is      833.7 secs

     total energy              =   -7738.34868074 Ry
     estimated scf accuracy    <       0.01178897 Ry

     total magnetization       =    87.00 Bohr mag/cell
     absolute magnetization    =    88.59 Bohr mag/cell

     iteration # 56     ecut=    50.00 Ry     beta= 0.10
     Davidson diagonalization with overlap
     ethr =  1.08E-06,  avg # of iterations =  2.0

     negative rho (up, down):  8.734E-04 6.390E-04
 
     Adding external electric field

     Computed dipole along edir(3) : 
        Dipole                0.3975 Ry au,          1.0102 Debye
        Dipole field          0.0002 Ry au, 
 
        Potential amp.       -0.0268 Ry
        Total length         55.1515 bohr
 
 
     Adding external electric field

     Computed dipole along edir(3) : 
        Dipole                0.3975 Ry au,          1.0102 Debye
        Dipole field          0.0002 Ry au, 
 
        Potential amp.       -0.0268 Ry
        Total length         55.1515 bohr
 

     total cpu time spent up to now is      848.3 secs

     total energy              =   -7738.34845605 Ry
     estimated scf accuracy    <       0.00642987 Ry

     total magnetization       =    87.05 Bohr mag/cell
     absolute magnetization    =    88.69 Bohr mag/cell

     iteration # 57     ecut=    50.00 Ry     beta= 0.10
     Davidson diagonalization with overlap
     ethr =  5.88E-07,  avg # of iterations = 17.0

     negative rho (up, down):  8.485E-04 5.939E-04
 
     Adding external electric field

     Computed dipole along edir(3) : 
        Dipole                0.4235 Ry au,          1.0764 Debye
        Dipole field          0.0003 Ry au, 
 
        Potential amp.       -0.0286 Ry
        Total length         55.1515 bohr
 
 
     Adding external electric field

     Computed dipole along edir(3) : 
        Dipole                0.4235 Ry au,          1.0764 Debye
        Dipole field          0.0003 Ry au, 
 
        Potential amp.       -0.0286 Ry
        Total length         55.1515 bohr
 

     total cpu time spent up to now is      876.3 secs

     total energy              =   -7738.34879052 Ry
     estimated scf accuracy    <       0.00413848 Ry

     total magnetization       =    87.06 Bohr mag/cell
     absolute magnetization    =    88.68 Bohr mag/cell

     iteration # 58     ecut=    50.00 Ry     beta= 0.10
     Davidson diagonalization with overlap
     ethr =  3.79E-07,  avg # of iterations =  2.0

     negative rho (up, down):  3.384E-04 1.915E-04
 
     Adding external electric field

     Computed dipole along edir(3) : 
        Dipole                0.4175 Ry au,          1.0611 Debye
        Dipole field          0.0003 Ry au, 
 
        Potential amp.       -0.0282 Ry
        Total length         55.1515 bohr
 
 
     Adding external electric field

     Computed dipole along edir(3) : 
        Dipole                0.4175 Ry au,          1.0611 Debye
        Dipole field          0.0003 Ry au, 
 
        Potential amp.       -0.0282 Ry
        Total length         55.1515 bohr
 

     total cpu time spent up to now is      890.0 secs

     total energy              =   -7738.34921546 Ry
[...]
    -5.9693  -5.9458  -5.9235  -5.9190  -5.9037  -5.8800  -5.8763  -5.8455
    -5.8171  -5.8139  -5.7971  -5.7718  -5.7475  -5.7403  -5.7022  -5.6966
    -5.6888  -5.6555  -5.6135  -5.5902  -5.5808  -5.5461  -5.5286  -5.5088
    -5.4997  -5.4916  -5.4720  -5.4621  -5.4248  -5.4157  -5.3940  -5.3703
    -5.3021  -5.2400  -5.2315  -5.2075  -5.1959  -5.1839  -5.1528  -5.1063
    -5.0421  -5.0315  -5.0074  -4.9667  -4.9584  -4.9399  -4.9218  -4.8679
    -4.8235  -4.7735  -4.7671  -4.7566  -4.7495  -4.7058  -4.6740  -4.6652
    -4.5793  -4.5436  -4.4993  -4.4902  -4.4332  -4.4253  -4.3985  -4.3775
    -4.3682  -4.3414  -4.2251  -4.2157  -4.1894  -4.1657  -4.1379  -4.1103
    -4.0986  -4.0912  -4.0713  -3.9989  -3.9738  -3.9516  -3.9315  -3.9165
    -3.8685  -3.8315  -3.8258  -3.8017  -3.7957  -3.7677  -3.7361  -3.6983
    -3.6769  -3.6439  -3.6228  -3.6151  -3.6118  -3.5902  -3.5901  -3.5711
    -3.5394  -3.5208  -3.5099  -3.4878  -3.4834  -3.4658  -3.4542  -3.4234
    -3.4044  -3.3962  -3.3813  -3.3645  -3.3403  -3.3057  -3.2890  -3.2644
    -3.2380  -3.2368  -3.2175  -3.2071  -3.1948  -3.1479  -3.1276  -3.1009
    -3.0536  -3.0496  -3.0414  -3.0329  -3.0314  -3.0243  -3.0164  -2.9750
    -2.9448  -2.9388  -2.9302  -2.8806  -2.8700  -2.8663  -2.8121  -2.7954
    -2.7703  -2.7684  -2.7590  -2.7558  -2.7355  -2.7308  -2.7102  -2.7045
    -2.6891  -2.6665  -2.6586  -2.6296  -2.6256  -2.6118  -2.6057  -2.5972
    -2.5941  -2.5757  -2.5590  -2.5407  -2.5263  -2.5210  -2.4800  -2.4731
    -2.4518  -2.4423  -2.4210  -2.3939  -2.3602  -2.3539  -2.3332  -2.3007
    -2.2798  -2.2699  -2.2498  -2.2203  -2.2040  -2.1811  -2.1644  -2.1360
    -2.1278  -2.1201  -2.1123  -2.1033  -2.0761  -2.0648  -2.0235  -1.9947
    -1.9771  -1.9632  -1.9502  -1.9321  -1.9165  -1.9100  -1.8927  -1.8639
    -1.8538  -1.8374  -1.8172  -1.8092  -1.8030  -1.7860  -1.7724  -1.7655
    -1.7469  -1.7193  -1.7020  -1.6419  -1.6385  -1.6303  -1.5800  -1.5676
    -1.5624  -1.5332  -1.5113  -1.5004  -1.4906  -1.4820  -1.4494  -1.4351
    -1.4202  -1.4088  -1.3987  -1.3808  -1.3546  -1.3359  -1.3234  -1.3170
    -1.2732  -1.2614  -1.2423  -1.2110  -1.1885  -1.1543  -1.1200  -1.0790
    -1.0119  -0.9072  -0.8893  -0.8701  -0.8498  -0.7238  -0.7161  -0.5407
    -0.4813  -0.3173  -0.2708  -0.1387   0.1810   0.2117   0.2289   0.2456
     0.2516   0.2675   0.2942   0.3065   0.3284   0.3314   0.3515   0.3628
     0.3686   0.3744   0.3910   0.4047   0.4141   0.4154   0.4180   0.4238
     0.4283   0.4317   0.4477   0.4548   0.4575   0.4631   0.4758   0.4907
     0.4937   0.5018   0.5061   0.5139   0.5227   0.5337   0.5338   0.5408
     0.5612   0.5673   0.5759   0.5766   0.5834   0.5962   0.5990   0.6132
     0.6228   0.6244   0.6412   0.6434   0.6475   0.6514   0.6748   0.6787
     0.6824   0.6907   0.6964   0.7060   0.7121   0.7323   0.7368   0.7492
     0.7569   0.7604   0.7621   0.7728   0.7939   0.7967   0.8049   0.8103
     0.8191   0.8207   0.8294   0.8397   0.8512   0.8591   0.8694   0.8695
     0.8794   0.8915   0.9266   0.9373   0.9521   0.9542   0.9581   0.9838
     0.9992   1.0125   1.0976   1.0999   1.1984   1.2206   1.7473   1.7522
     1.7592   1.7723   1.7790   1.7873   1.8054   1.8199   1.8256   1.9044
     1.9201   1.9359   1.9657   1.9830   2.0237   2.0308   2.0454   2.1017
     2.1213   2.1341   2.1465   2.1483   2.1888   2.1943   2.2192   2.2303
     2.2447   2.2574   2.2851   2.2925   2.3030   2.3411   2.3550   2.3618
     2.3741   2.3889   2.3967   2.4156   2.4313   2.4479   2.4561   2.4765
     2.4866   2.5062   2.5086   2.5271   2.5357   2.5561   2.5871   2.6114
     2.6213   2.6353   2.6385   2.6950   2.7759   2.7940   2.8419   2.8616
     2.8900   2.9088   3.3035   3.5068   3.6345   3.6962   3.7622   3.8592
     3.9047   3.9275   3.9304   3.9563   3.9994   4.0687   4.0768   4.0888
     4.1114   4.1422   4.1503   4.1675   4.1842   4.4065   4.4881   4.6386
     4.8319   4.8800   4.9127   4.9363   4.9681   5.0316   5.0480   5.1048
     5.1262   5.1648   5.3939   6.2679   6.3589   6.4957   6.6010   6.6832
     6.7522   6.8327   6.8562   6.9078   6.9610   7.0450   7.0906   7.1816
     7.2437   7.3234   7.3530   7.3984   7.4707   7.5219   7.6170   7.6631
     7.6931   7.7023   7.7422   7.7755   7.8519   7.8617   7.8985   7.9472
     7.9846   8.0081   8.0564   8.0792   8.1163   8.1736   8.2037   8.2209
     8.2229   8.2752   8.3134   8.3341   8.3878   8.4115   8.4230   8.4404
     8.4518   8.4758   8.5072   8.5190   8.5435   8.5667   8.6069   8.6287
     8.6582   8.6909   8.6986   8.7293   8.7469   8.7877   8.8284   8.8695

     the Fermi energy is     1.6611 ev

!    total energy              =   -7738.34985256 Ry
     estimated scf accuracy    <       0.00000073 Ry
     smearing contrib. (-TS)   =      -0.02171836 Ry
     internal energy E=F+TS    =   -7738.32813421 Ry

     The total energy is F=E-TS. E is the sum of the following terms:
     one-electron contribution =  -95226.16860472 Ry
     hartree contribution      =   48229.06914113 Ry
     xc contribution           =   -2218.74128074 Ry
     ewald contribution        =   41479.32241253 Ry
     Dispersion Correction     =      -1.80990602 Ry
     electric field correction =       0.00010361 Ry

     total magnetization       =    86.98 Bohr mag/cell
     absolute magnetization    =    88.48 Bohr mag/cell

     convergence has been achieved in  80 iterations

     negative rho (up, down):  1.049E-03 5.971E-04

     Forces acting on atoms (cartesian axes, Ry/au):

     atom    1 type  1   force =     0.02507911   -0.03094090    0.01863563
     atom    2 type  2   force =    -0.01381083   -0.00165149   -0.00963195
     atom    3 type  1   force =    -0.02312248   -0.01837943    0.01997659
     atom    4 type  1   force =     0.00573067    0.00420602   -0.00626901
     atom    5 type  1   force =    -0.00190416    0.00111871   -0.00497526
     atom    6 type  1   force =     0.00207199    0.00775605   -0.00870427
     atom    7 type  3   force =    -0.00770003    0.00119785   -0.01046762
     atom    8 type  3   force =    -0.03501176    0.05415035   -0.08329731
     atom    9 type  3   force =     0.03414279    0.03817115   -0.06431399
     atom   10 type  3   force =    -0.00304228   -0.00245485   -0.01168378
     atom   11 type  4   force =     0.00667692    0.00553789    0.01395029
     atom   12 type  4   force =    -0.00026366   -0.00294410    0.01485235
     atom   13 type  4   force =     0.00195898    0.00172922    0.01744826
     atom   14 type  4   force =    -0.00048788   -0.00129329    0.01276290
     atom   15 type  4   force =    -0.00064599    0.00458007   -0.00200643
     atom   16 type  4   force =    -0.00045625    0.00269560    0.04016809
     atom   17 type  4   force =     0.00174001    0.00816713    0.03765221
     atom   18 type  4   force =     0.00795411   -0.00445250   -0.00047784
     atom   19 type  4   force =     0.00040810    0.01181238    0.00429605
     atom   20 type  4   force =    -0.00961007   -0.02685770   -0.00367501
     atom   21 type  4   force =    -0.01109290   -0.00043261    0.00068301
     atom   22 type  4   force =    -0.03217149    0.00310166    0.00787533
     atom   23 type  4   force =     0.03213107    0.00057465    0.01411958
     atom   24 type  4   force =     0.00699139   -0.03702705    0.00379975
     atom   25 type  4   force =    -0.00313857    0.00171172    0.00396711
     atom   26 type  4   force =     0.01779280   -0.00687006    0.00081039
     atom   27 type  1   force =    -0.00529630   -0.00891545    0.00274677
     atom   28 type  2   force =    -0.01352493    0.00006341    0.00449934
     atom   29 type  1   force =     0.00300369   -0.00493944   -0.00134148
     atom   30 type  1   force =     0.00257891    0.00385392   -0.00150354
     atom   31 type  1   force =     0.00140508   -0.00482170    0.00015735
     atom   32 type  1   force =    -0.00098104    0.00147888   -0.00170853
     atom   33 type  3   force =    -0.00689983   -0.00334761   -0.00085064
     atom   34 type  3   force =    -0.00810258    0.00270796   -0.00023841
     atom   35 type  3   force =     0.00442684   -0.00069241    0.00264918
     atom   36 type  3   force =     0.00061958    0.00040509   -0.00506799
     atom   37 type  4   force =     0.00882105    0.00554668    0.00725956
     atom   38 type  4   force =     0.00384719   -0.00096231   -0.01947503
     atom   39 type  4   force =    -0.00150586    0.00366575   -0.00977437
     atom   40 type  4   force =    -0.00133922   -0.00264336    0.00955484
     atom   41 type  4   force =    -0.00296353    0.00416169   -0.00719406
     atom   42 type  4   force =    -0.00419363   -0.00459093    0.01797795
     atom   43 type  4   force =     0.00767556    0.00337118    0.00780639
     atom   44 type  4   force =     0.01032542   -0.00556378   -0.00597164
     atom   45 type  4   force =     0.00308010    0.00358334   -0.00020483
     atom   46 type  4   force =     0.00239156   -0.00003106   -0.00556193
     atom   47 type  4   force =    -0.01271719   -0.00076533   -0.00335918
     atom   48 type  4   force =    -0.01463375    0.00127519    0.00340946
     atom   49 type  4   force =     0.01340756    0.00251822    0.00434922
     atom   50 type  4   force =    -0.00266804   -0.00492183   -0.00043970
     atom   51 type  4   force =    -0.00559251    0.00206096    0.00000145
     atom   52 type  4   force =     0.01563100   -0.00358432   -0.00454882
     atom   53 type  1   force =     0.00025974   -0.00008623    0.00028555
     atom   54 type  2   force =    -0.00092515    0.00004399    0.00019285
     atom   55 type  1   force =    -0.00022709    0.00002829   -0.00001182
     atom   56 type  1   force =    -0.00010482   -0.00006619   -0.00033697
     atom   57 type  1   force =     0.00017369   -0.00056796    0.00068350
     atom   58 type  1   force =    -0.00002081    0.00031700    0.00039822
     atom   59 type  3   force =     0.00006800   -0.00007184    0.00013977
     atom   60 type  3   force =     0.00022376   -0.00019748    0.00013012
     atom   61 type  3   force =     0.00001991    0.00011781    0.00010592
     atom   62 type  3   force =     0.00015491   -0.00034173    0.00017178
     atom   63 type  4   force =     0.00000588    0.00028345   -0.00006349
     atom   64 type  4   force =     0.00008982    0.00006606   -0.00010760
     atom   65 type  4   force =     0.00004942   -0.00011970    0.00035061
     atom   66 type  4   force =     0.00013962   -0.00006456   -0.00014150
     atom   67 type  4   force =     0.00047671    0.00016860    0.00001141
     atom   68 type  4   force =    -0.00001249    0.00015752    0.00050489
     atom   69 type  4   force =    -0.00003673   -0.00050228    0.00000199
     atom   70 type  4   force =     0.00012351   -0.00011530    0.00014116
     atom   71 type  4   force =     0.00027599   -0.00027961   -0.00009515
     atom   72 type  4   force =     0.00034065   -0.00028017    0.00011304
     atom   73 type  4   force =     0.00024728   -0.00061863   -0.00017265
     atom   74 type  4   force =     0.00024131   -0.00018108   -0.00009133
     atom   75 type  4   force =     0.00001602   -0.00014236   -0.00034118
     atom   76 type  4   force =     0.00045919   -0.00017993   -0.00027097
     atom   77 type  4   force =    -0.00040567   -0.00021012    0.00017103
     atom   78 type  4   force =    -0.00008009    0.00002251   -0.00017896
     atom   79 type  1   force =     0.02507909   -0.03094583    0.01863631
     atom   80 type  2   force =    -0.01367663   -0.00158611   -0.00968180
     atom   81 type  1   force =    -0.02310739   -0.01838190    0.01998040
     atom   82 type  1   force =     0.00571151    0.00419893   -0.00627832
     atom   83 type  1   force =    -0.00191119    0.00111331   -0.00497700
     atom   84 type  1   force =     0.00206901    0.00776202   -0.00870640
     atom   85 type  3   force =    -0.00768675    0.00123058   -0.01052680
     atom   86 type  3   force =    -0.03501121    0.05414953   -0.08330794
     atom   87 type  3   force =     0.03414924    0.03817238   -0.06431447
     atom   88 type  3   force =    -0.00305728   -0.00245472   -0.01169058
     atom   89 type  4   force =     0.00682223    0.00556166    0.01396652
     atom   90 type  4   force =    -0.00016907   -0.00285856    0.01484795
     atom   91 type  4   force =     0.00204937    0.00171907    0.01742269
     atom   92 type  4   force =    -0.00032456   -0.00128431    0.01276623
     atom   93 type  4   force =    -0.00063038    0.00478774   -0.00186069
     atom   94 type  4   force =    -0.00051505    0.00264598    0.03997304
     atom   95 type  4   force =     0.00186942    0.00816716    0.03765877
     atom   96 type  4   force =     0.00775458   -0.00446611   -0.00048727
     atom   97 type  4   force =     0.00052966    0.01190385    0.00418610
     atom   98 type  4   force =    -0.00950578   -0.02668947   -0.00364053
     atom   99 type  4   force =    -0.01111195   -0.00039243    0.00088041
     atom  100 type  4   force =    -0.03219980    0.00299740    0.00775069
     atom  101 type  4   force =     0.03215962    0.00057767    0.01412449
     atom  102 type  4   force =     0.00681193   -0.03702643    0.00380715
     atom  103 type  4   force =    -0.00304368    0.00164953    0.00395167
     atom  104 type  4   force =     0.01787360   -0.00687788    0.00082028
     atom  105 type  1   force =    -0.00515134   -0.00900817    0.00278537
     atom  106 type  2   force =    -0.01326261   -0.00037819    0.00443539
     atom  107 type  1   force =     0.00298266   -0.00492965   -0.00137737
     atom  108 type  1   force =     0.00258239    0.00462373   -0.00208809
     atom  109 type  1   force =     0.00151933   -0.00487151    0.00026801
     atom  110 type  1   force =    -0.00069761    0.00147032   -0.00174944
     atom  111 type  3   force =    -0.00664662   -0.00309051   -0.00164294
     atom  112 type  3   force =    -0.00785560    0.00256779   -0.00005768
     atom  113 type  3   force =     0.00443820   -0.00060504    0.00264480
     atom  114 type  3   force =     0.00061030   -0.00037623   -0.00556598
     atom  115 type  4   force =     0.00855868    0.00520204    0.00717089
     atom  116 type  4   force =     0.00381290   -0.00093501   -0.01947399
     atom  117 type  4   force =    -0.00140611    0.00366602   -0.00981540
     atom  118 type  4   force =    -0.00148243   -0.00268364    0.00967680
     atom  119 type  4   force =    -0.00209890    0.00517942   -0.00758902
     atom  120 type  4   force =    -0.00432060   -0.00451476    0.01803895
     atom  121 type  4   force =     0.00769457    0.00333780    0.00785366
     atom  122 type  4   force =     0.01020266   -0.00565805   -0.00662559
     atom  123 type  4   force =     0.00256471    0.00387142    0.00062413
     atom  124 type  4   force =     0.00221367   -0.00012594   -0.00559264
     atom  125 type  4   force =    -0.01262170   -0.00071626   -0.00342815
     atom  126 type  4   force =    -0.01468900    0.00125737    0.00343353
     atom  127 type  4   force =     0.01354720    0.00246296    0.00455596
     atom  128 type  4   force =    -0.00284445   -0.00490488   -0.00047494
     atom  129 type  4   force =    -0.00533311    0.00195597    0.00026129
     atom  130 type  4   force =     0.01549063   -0.00351458   -0.00464646
     atom  131 type  1   force =     0.00024127    0.00047372    0.00061201
     atom  132 type  2   force =     0.00067517   -0.00010975   -0.00039235
     atom  133 type  1   force =    -0.00007903    0.00033294    0.00003993
     atom  134 type  1   force =    -0.00011808   -0.00002429    0.00043745
     atom  135 type  1   force =     0.00031057   -0.00031982    0.00051792
     atom  136 type  1   force =    -0.00054401    0.00005482    0.00008621
     atom  137 type  3   force =    -0.00038793    0.00007237   -0.00019002
     atom  138 type  3   force =     0.00007129   -0.00012036   -0.00019296
     atom  139 type  3   force =     0.00021002   -0.00015106    0.00013851
     atom  140 type  3   force =     0.00022722   -0.00021929    0.00015135
     atom  141 type  4   force =    -0.00023490   -0.00016428   -0.00014451
     atom  142 type  4   force =    -0.00003704   -0.00019263   -0.00013330
     atom  143 type  4   force =     0.00051389   -0.00011795    0.00000308
     atom  144 type  4   force =    -0.00015909    0.00023257   -0.00020196
     atom  145 type  4   force =     0.00073582    0.00010835    0.00010064
     atom  146 type  4   force =     0.00011284    0.00019413    0.00036493
     atom  147 type  4   force =     0.00039212   -0.00007827   -0.00063334
     atom  148 type  4   force =     0.00029660    0.00037445    0.00038205
     atom  149 type  4   force =     0.00008243   -0.00029925    0.00034245
     atom  150 type  4   force =    -0.00005652    0.00028731    0.00005570
     atom  151 type  4   force =     0.00021554   -0.00040097   -0.00009866
     atom  152 type  4   force =     0.00021761   -0.00042332   -0.00020040
     atom  153 type  4   force =     0.00015839    0.00029027    0.00036156
     atom  154 type  4   force =    -0.00001542   -0.00038120    0.00023194
     atom  155 type  4   force =    -0.00007008   -0.00050918    0.00045445
     atom  156 type  4   force =     0.00004771   -0.00077806   -0.00055057
     atom  157 type  4   force =     0.00164526   -0.00186410   -0.00060704
     atom  158 type  5   force =    -0.00175536    0.00147812    0.00188631

     Total force =     0.262759     Total SCF correction =     0.003091
 
     init_run     :      8.77s CPU      9.48s WALL (       1 calls)
     electrons    :   1135.22s CPU   1198.85s WALL (       1 calls)
     forces       :      3.94s CPU      4.45s WALL (       1 calls)
     force_london :      0.12s CPU      0.12s WALL (       1 calls)

     Called by init_run:
     wfcinit      :      5.30s CPU      5.47s WALL (       1 calls)
     potinit      :      0.54s CPU      0.74s WALL (       1 calls)
     hinit0       :      1.48s CPU      1.59s WALL (       1 calls)

     Called by electrons:
     c_bands      :    885.02s CPU    915.92s WALL (      80 calls)
     sum_band     :    158.02s CPU    173.86s WALL (      80 calls)
     v_of_rho     :     20.97s CPU     22.23s WALL (      81 calls)
     newd         :     46.59s CPU     60.27s WALL (      81 calls)
     mix_rho      :     23.68s CPU     23.81s WALL (      80 calls)
     energy_londo :      0.11s CPU      0.11s WALL (       1 calls)

     Called by c_bands:
     init_us_2    :      2.89s CPU      2.96s WALL (     324 calls)
     init_us_2:cp :      2.88s CPU      2.96s WALL (     324 calls)
     regterg      :    863.32s CPU    893.88s WALL (     163 calls)

     Called by *egterg:
     rdiaghg      :    234.27s CPU    249.14s WALL (     601 calls)
     h_psi        :    359.57s CPU    366.47s WALL (     603 calls)
     s_psi        :     70.56s CPU     70.63s WALL (     603 calls)
     g_psi        :      0.53s CPU      0.54s WALL (     438 calls)

     Called by h_psi:
     h_psi:calbec :     88.03s CPU     93.16s WALL (     603 calls)
     vloc_psi     :    200.30s CPU    201.19s WALL (     603 calls)
     add_vuspsi   :     70.35s CPU     71.20s WALL (     603 calls)

     General routines
     calbec       :    130.10s CPU    137.77s WALL (     771 calls)
     fft          :     17.09s CPU     18.93s WALL (    1471 calls)
     ffts         :     14.87s CPU     14.93s WALL (    9959 calls)
     fftw         :    225.26s CPU    226.22s WALL (  273530 calls)
     interpolate  :      1.51s CPU      1.61s WALL (     162 calls)
 
     Parallel routines
 
     PWSCF        :  19m10.09s CPU  20m15.28s WALL

 
   This run was terminated on:   2:44:25  18Nov2025            

=------------------------------------------------------------------------------=
   JOB DONE.
=------------------------------------------------------------------------------=
