
     Program PWSCF v.7.2 starts on 18Nov2025 at  0:51:37 

     This program is part of the open-source Quantum ESPRESSO suite
     for quantum simulation of materials; please cite
         "P. Giannozzi et al., J. Phys.:Condens. Matter 21 395502 (2009);
         "P. Giannozzi et al., J. Phys.:Condens. Matter 29 465901 (2017);
         "P. Giannozzi et al., J. Chem. Phys. 152 154105 (2020);
          URL http://www.quantum-espresso.org", 
     in publications or presentations arising from this work. More details at
     http://www.quantum-espresso.org/quote

     Parallel version (MPI), running on    64 processors

     MPI processes distributed on     4 nodes
     362273 MiB available memory on the printing compute node when the environment starts
 
     Reading input from PWINPUT_atm158_yp

     Current dimensions of program PWSCF are:
     Max number of different atomic species (ntypx) = 10
     Max number of k-points (npk) =  40000
     Max angular momentum in pseudopotentials (lmaxx) =  4
     Presently no symmetry can be used with electric field

     file Ni.pbe-n-rrkjus_psl.1.0.0.UPF: wavefunction(s)  3D renormalized
     file Mn.pbe-spn-rrkjus_psl.0.3.1.UPF: wavefunction(s)  3D renormalized
     file O.pbe-rrkjus.UPF: wavefunction(s)  2S renormalized
     file H.pbe-rrkjus.UPF: wavefunction(s)  1S renormalized

     gamma-point specific algorithms are used
 
     R & G space division:  proc/nbgrp/npool/nimage =      64
     Subspace diagonalization in iterative solution of the eigenvalue problem:
     one sub-group per band group will be used
     custom distributed-memory algorithm (size of sub-group:  7*  7 procs)

 
     Parallelization info
     --------------------
     sticks:   dense  smooth     PW     G-vecs:    dense   smooth      PW
     Min         207      82     20                60552    15302    1896
     Max         210      84     22                60574    15336    1950
     Sum       13325    5345   1333              3876045   980655  122653
 
     Using Slab Decomposition
 


     bravais-lattice index     =            0
     lattice parameter (alat)  =      17.4067  a.u.
     unit-cell volume          =   20529.8182 (a.u.)^3
     number of atoms/cell      =          158
     number of atomic types    =            5
     number of electrons       =      1093.00
     number of Kohn-Sham states=          656
     kinetic-energy cutoff     =      50.0000  Ry
     charge density cutoff     =     500.0000  Ry
     scf convergence threshold =      1.0E-06
     mixing beta               =       0.1000
     number of iterations used =            8  local-TF  mixing
     Exchange-correlation=  SLA  PW   PBE  PBE
                           (   1   4   3   4   0   0   0)

     celldm(1)=  17.406729  celldm(2)=   0.000000  celldm(3)=   0.000000
     celldm(4)=   0.000000  celldm(5)=   0.000000  celldm(6)=   0.000000

     crystal axes: (cart. coord. in units of alat)
               a(1) = (   1.000000   0.000000   0.000000 )  
               a(2) = (  -0.001404   1.105696   0.000000 )  
               a(3) = (   0.000000   0.000000   3.520448 )  

     reciprocal axes: (cart. coord. in units 2 pi/alat)
               b(1) = (  1.000000  0.001270  0.000000 )  
               b(2) = (  0.000000  0.904408  0.000000 )  
               b(3) = (  0.000000  0.000000  0.284055 )  


     PseudoPot. # 1 for Ni read from file:
     ~/PSEUDO/Ni.pbe-n-rrkjus_psl.1.0.0.UPF
     MD5 check sum: Not computed, couldn't open file
     Pseudo is Ultrasoft + core correction, Zval = 10.0
     Generated using "atomic" code by A. Dal Corso  v.5.1.2
     Using radial grid of 1195 points,  6 beta functions with: 
                l(1) =   0
                l(2) =   0
                l(3) =   1
                l(4) =   1
                l(5) =   2
                l(6) =   2
     Q(r) pseudized with 0 coefficients 


     PseudoPot. # 2 for Mn read from file:
     ~/PSEUDO/Mn.pbe-spn-rrkjus_psl.0.3.1.UPF
     MD5 check sum: Not computed, couldn't open file
     Pseudo is Ultrasoft + core correction, Zval = 15.0
     Generated using &quot;atomic&quot; code by A. Dal Corso  v.6.2.2
     Using radial grid of 1187 points,  6 beta functions with: 
                l(1) =   0
                l(2) =   0
                l(3) =   1
                l(4) =   1
                l(5) =   2
                l(6) =   2
     Q(r) pseudized with 0 coefficients 


     PseudoPot. # 3 for P  read from file:
     ~/PSEUDO/P.pbe-n-rrkjus_psl.1.0.0.UPF
     MD5 check sum: Not computed, couldn't open file
     Pseudo is Ultrasoft + core correction, Zval =  5.0
     Generated using "atomic" code by A. Dal Corso  v.5.1
     Using radial grid of 1147 points,  6 beta functions with: 
                l(1) =   0
                l(2) =   0
                l(3) =   1
                l(4) =   1
                l(5) =   2
                l(6) =   2
     Q(r) pseudized with 0 coefficients 


     PseudoPot. # 4 for O  read from file:
     ~/PSEUDO/O.pbe-rrkjus.UPF
     MD5 check sum: Not computed, couldn't open file
     Pseudo is Ultrasoft, Zval =  6.0
     Generated by new atomic code, or converted to UPF format
     Using radial grid of 1269 points,  4 beta functions with: 
                l(1) =   0
                l(2) =   0
                l(3) =   1
                l(4) =   1
     Q(r) pseudized with 0 coefficients 


     PseudoPot. # 5 for H  read from file:
     ~/PSEUDO/H.pbe-rrkjus.UPF
     MD5 check sum: Not computed, couldn't open file
     Pseudo is Ultrasoft, Zval =  1.0
     Generated by new atomic code, or converted to UPF format
     Using radial grid of 1061 points,  2 beta functions with: 
                l(1) =   0
                l(2) =   0
     Q(r) pseudized with 0 coefficients 


     atomic species   valence    mass     pseudopotential
     Ni               10.00    58.69300     Ni( 1.00)
     Mn               15.00    54.93800     Mn( 1.00)
     P                 5.00    30.97300     P ( 1.00)
     O                 6.00    15.99900     O ( 1.00)
     H                 1.00     1.00790     H ( 1.00)

     Starting magnetic structure 
     atomic species   magnetization
     Ni              1.000
     Mn              1.000
     P               1.000
     O               1.000
     H               0.000

     No symmetry found



   Cartesian axes

     site n.     atom                  positions (alat units)
         1        Ni     tau(   1) = (   0.2421002   0.8609138   0.1302181  )
         2        Mn     tau(   2) = (   0.4924481   0.7886602   0.4655392  )
         3        Ni     tau(   3) = (   0.0052341   0.3031820   0.1284544  )
         4        Ni     tau(   4) = (   0.2570603   0.2374878   0.4617901  )
         5        Ni     tau(   5) = (   0.4976584   1.1048203   0.2964410  )
         6        Ni     tau(   6) = (   0.2495781   0.5440308   0.2953805  )
         7        P      tau(   7) = (   0.2083492   0.9982113   0.4588145  )
         8        P      tau(   8) = (   0.4584476   0.6559264   0.1347090  )
         9        P      tau(   9) = (   0.2889394   0.1031966   0.1319347  )
        10        P      tau(  10) = (   0.0400379   0.4338094   0.4586283  )
        11        O      tau(  11) = (   0.1314218   0.9248062   0.3189972  )
        12        O      tau(  12) = (   0.3797244   0.7272031   0.2742874  )
        13        O      tau(  13) = (   0.3662315   0.1762062   0.2720888  )
        14        O      tau(  14) = (   0.1171240   0.3646150   0.3169340  )
        15        O      tau(  15) = (   0.1510364   0.9068326   0.5881934  )
        16        O      tau(  16) = (   0.3981989   0.7453439   0.0053495  )
        17        O      tau(  17) = (   0.3490561   0.1888693   0.0010856  )
        18        O      tau(  18) = (   0.0982395   0.3475583   0.5894443  )
        19        O      tau(  19) = (   0.0992163   0.5918099   0.4542505  )
        20        O      tau(  20) = (   0.3467441   1.0504690   0.1405000  )
        21        O      tau(  21) = (   0.3739183   0.4303319   0.4477971  )
        22        O      tau(  22) = (   0.1230967   0.1088895   0.1422960  )
        23        O      tau(  23) = (   0.1242901   0.6635968   0.1442928  )
        24        O      tau(  24) = (   0.4011802   0.4971632   0.1376281  )
        25        O      tau(  25) = (   0.1484006   0.0497464   0.4550965  )
        26        O      tau(  26) = (   0.3736100   0.9942556   0.4492158  )
        27        Ni     tau(  27) = (   0.2413539   0.8509941   0.7820408  )
        28        Mn     tau(  28) = (   0.4917018   0.7787406   1.1173619  )
        29        Ni     tau(  29) = (   0.0044877   0.2932623   0.7802771  )
        30        Ni     tau(  30) = (   0.2563139   0.2275682   1.1136128  )
        31        Ni     tau(  31) = (   0.4969120   1.0949007   0.9482637  )
        32        Ni     tau(  32) = (   0.2488318   0.5341111   0.9472032  )
        33        P      tau(  33) = (   0.2076029   0.9882917   1.1106372  )
        34        P      tau(  34) = (   0.4577012   0.6460068   0.7865316  )
        35        P      tau(  35) = (   0.2881931   0.0932770   0.7837574  )
        36        P      tau(  36) = (   0.0392916   0.4238898   1.1104509  )
        37        O      tau(  37) = (   0.1306755   0.9148866   0.9708199  )
        38        O      tau(  38) = (   0.3789780   0.7172835   0.9261101  )
        39        O      tau(  39) = (   0.3654852   0.1662865   0.9239115  )
        40        O      tau(  40) = (   0.1163776   0.3546954   0.9687567  )
        41        O      tau(  41) = (   0.1502901   0.8969129   1.2400160  )
        42        O      tau(  42) = (   0.3974525   0.7354243   0.6571722  )
        43        O      tau(  43) = (   0.3483097   0.1789497   0.6529083  )
        44        O      tau(  44) = (   0.0974932   0.3376387   1.2412670  )
        45        O      tau(  45) = (   0.0984699   0.5818903   1.1060732  )
        46        O      tau(  46) = (   0.3459978   1.0405493   0.7923226  )
        47        O      tau(  47) = (   0.3731719   0.4204123   1.0996198  )
        48        O      tau(  48) = (   0.1223503   0.0989699   0.7941187  )
        49        O      tau(  49) = (   0.1235438   0.6536772   0.7961155  )
        50        O      tau(  50) = (   0.4004339   0.4872435   0.7894508  )
        51        O      tau(  51) = (   0.1476543   0.0398268   1.1069192  )
        52        O      tau(  52) = (   0.3728637   0.9843360   1.1010385  )
        53        Ni     tau(  53) = (   0.2370412   0.8309538   1.4331176  )
        54        Mn     tau(  54) = (   0.4926631   0.7628968   1.7632485  )
        55        Ni     tau(  55) = (   0.0034911   0.2761505   1.4288190  )
        56        Ni     tau(  56) = (   0.2447240   0.2143424   1.7402852  )
        57        Ni     tau(  57) = (   0.4995763   1.0749455   1.5940578  )
        58        Ni     tau(  58) = (   0.2416135   0.5184975   1.5926664  )
        59        P      tau(  59) = (   0.2112504   0.9662532   1.7634059  )
        60        P      tau(  60) = (   0.4542182   0.6277361   1.4346135  )
        61        P      tau(  61) = (   0.2883980   0.0741680   1.4295170  )
        62        P      tau(  62) = (   0.0313409   0.4059310   1.7580048  )
        63        O      tau(  63) = (   0.1301929   0.8896257   1.6241257  )
        64        O      tau(  64) = (   0.3764588   0.7005702   1.5725819  )
        65        O      tau(  65) = (   0.3665257   0.1482364   1.5677237  )
        66        O      tau(  66) = (   0.1091997   0.3432023   1.6091719  )
        67        O      tau(  67) = (   0.1578284   0.8739230   1.8896615  )
        68        O      tau(  68) = (   0.3933424   0.7186889   1.3072492  )
        69        O      tau(  69) = (   0.3501246   0.1627399   1.3008447  )
        70        O      tau(  70) = (   0.0912886   0.3068810   1.8752755  )
        71        O      tau(  71) = (   0.0914117   0.5660224   1.7516325  )
        72        O      tau(  72) = (   0.3458000   1.0214174   1.4372269  )
        73        O      tau(  73) = (   0.3623972   0.4009134   1.7433105  )
        74        O      tau(  74) = (   0.1220058   0.0808885   1.4419267  )
        75        O      tau(  75) = (   0.1203913   0.6366918   1.4432295  )
        76        O      tau(  76) = (   0.3954417   0.4696211   1.4353043  )
        77        O      tau(  77) = (   0.1540582   0.0191928   1.7538461  )
        78        O      tau(  78) = (   0.3779668   0.9615796   1.7458500  )
        79        Ni     tau(  79) = (   0.7421002   0.8609138   0.1302181  )
        80        Mn     tau(  80) = (   0.9924481   0.7886602   0.4655392  )
        81        Ni     tau(  81) = (   0.5052341   0.3031820   0.1284544  )
        82        Ni     tau(  82) = (   0.7570603   0.2374878   0.4617901  )
        83        Ni     tau(  83) = (   0.9976584   1.1048203   0.2964410  )
        84        Ni     tau(  84) = (   0.7495781   0.5440308   0.2953805  )
        85        P      tau(  85) = (   0.7083492   0.9982113   0.4588145  )
        86        P      tau(  86) = (   0.9584476   0.6559264   0.1347090  )
        87        P      tau(  87) = (   0.7889394   0.1031966   0.1319347  )
        88        P      tau(  88) = (   0.5400379   0.4338094   0.4586283  )
        89        O      tau(  89) = (   0.6314218   0.9248062   0.3189972  )
        90        O      tau(  90) = (   0.8797244   0.7272031   0.2742874  )
        91        O      tau(  91) = (   0.8662315   0.1762062   0.2720888  )
        92        O      tau(  92) = (   0.6171240   0.3646150   0.3169340  )
        93        O      tau(  93) = (   0.6510364   0.9068326   0.5881934  )
        94        O      tau(  94) = (   0.8981989   0.7453439   0.0053495  )
        95        O      tau(  95) = (   0.8490561   0.1888693   0.0010856  )
        96        O      tau(  96) = (   0.5982395   0.3475583   0.5894443  )
        97        O      tau(  97) = (   0.5992163   0.5918099   0.4542505  )
        98        O      tau(  98) = (   0.8467441   1.0504690   0.1405000  )
        99        O      tau(  99) = (   0.8739183   0.4303319   0.4477971  )
       100        O      tau( 100) = (   0.6230967   0.1088895   0.1422960  )
       101        O      tau( 101) = (   0.6242901   0.6635968   0.1442928  )
       102        O      tau( 102) = (   0.9011802   0.4971632   0.1376281  )
       103        O      tau( 103) = (   0.6484006   0.0497464   0.4550965  )
       104        O      tau( 104) = (   0.8736100   0.9942556   0.4492158  )
       105        Ni     tau( 105) = (   0.7413539   0.8509941   0.7820408  )
       106        Mn     tau( 106) = (   0.9917018   0.7787406   1.1173619  )
       107        Ni     tau( 107) = (   0.5044877   0.2932623   0.7802771  )
       108        Ni     tau( 108) = (   0.7563139   0.2275682   1.1136128  )
       109        Ni     tau( 109) = (   0.9969120   1.0949007   0.9482637  )
       110        Ni     tau( 110) = (   0.7488318   0.5341111   0.9472032  )
       111        P      tau( 111) = (   0.7076029   0.9882917   1.1106372  )
       112        P      tau( 112) = (   0.9577012   0.6460068   0.7865316  )
       113        P      tau( 113) = (   0.7881931   0.0932770   0.7837574  )
       114        P      tau( 114) = (   0.5392916   0.4238898   1.1104509  )
       115        O      tau( 115) = (   0.6306755   0.9148866   0.9708199  )
       116        O      tau( 116) = (   0.8789780   0.7172835   0.9261101  )
       117        O      tau( 117) = (   0.8654852   0.1662865   0.9239115  )
       118        O      tau( 118) = (   0.6163776   0.3546954   0.9687567  )
       119        O      tau( 119) = (   0.6502901   0.8969129   1.2400160  )
       120        O      tau( 120) = (   0.8974525   0.7354243   0.6571722  )
       121        O      tau( 121) = (   0.8483097   0.1789497   0.6529083  )
       122        O      tau( 122) = (   0.5974932   0.3376387   1.2412670  )
       123        O      tau( 123) = (   0.5984699   0.5818903   1.1060732  )
       124        O      tau( 124) = (   0.8459978   1.0405493   0.7923226  )
       125        O      tau( 125) = (   0.8731719   0.4204123   1.0996198  )
       126        O      tau( 126) = (   0.6223503   0.0989699   0.7941187  )
       127        O      tau( 127) = (   0.6235438   0.6536772   0.7961155  )
       128        O      tau( 128) = (   0.9004339   0.4872435   0.7894508  )
       129        O      tau( 129) = (   0.6476543   0.0398268   1.1069192  )
       130        O      tau( 130) = (   0.8728637   0.9843360   1.1010385  )
       131        Ni     tau( 131) = (   0.7405475   0.8318259   1.4311132  )
       132        Mn     tau( 132) = (   0.9956110   0.7649913   1.7729082  )
       133        Ni     tau( 133) = (   0.5039471   0.2761330   1.4286777  )
       134        Ni     tau( 134) = (   0.7471906   0.2159197   1.7400299  )
       135        Ni     tau( 135) = (   0.9997237   1.0727158   1.5948335  )
       136        Ni     tau( 136) = (   0.7423591   0.5225842   1.5983173  )
       137        P      tau( 137) = (   0.7106654   0.9687571   1.7578636  )
       138        P      tau( 138) = (   0.9535148   0.6281623   1.4350960  )
       139        P      tau( 139) = (   0.7895630   0.0747538   1.4291325  )
       140        P      tau( 140) = (   0.5297546   0.4018931   1.7598490  )
       141        O      tau( 141) = (   0.6360973   0.9008987   1.6134331  )
       142        O      tau( 142) = (   0.8772031   0.7029798   1.5721256  )
       143        O      tau( 143) = (   0.8675063   0.1478470   1.5680249  )
       144        O      tau( 144) = (   0.6092829   0.3462856   1.6101587  )
       145        O      tau( 145) = (   0.6496647   0.8750286   1.8813068  )
       146        O      tau( 146) = (   0.8923560   0.7173781   1.3061853  )
       147        O      tau( 147) = (   0.8502327   0.1643644   1.3007850  )
       148        O      tau( 148) = (   0.5890056   0.3002177   1.8750650  )
       149        O      tau( 149) = (   0.5837121   0.5633300   1.7648578  )
       150        O      tau( 150) = (   0.8492978   1.0227497   1.4347303  )
       151        O      tau( 151) = (   0.8642300   0.4033737   1.7425194  )
       152        O      tau( 152) = (   0.6231466   0.0817702   1.4418230  )
       153        O      tau( 153) = (   0.6205382   0.6372338   1.4467102  )
       154        O      tau( 154) = (   0.8948089   0.4700688   1.4374848  )
       155        O      tau( 155) = (   0.6554469   0.0221206   1.7549295  )
       156        O      tau( 156) = (   0.8783489   0.9609671   1.7489419  )
       157        O      tau( 157) = (   0.8834747   0.6919478   1.9099437  )
       158        H      tau( 158) = (   0.7942685   0.7508599   1.9280084  )

     -------------------------------------------------
     Parameters for Dispersion (Grimme-D2) Correction:
     -------------------------------------------------
       atom      VdW radius       C_6     

        Ni         2.952        374.666
        Mn         2.952        374.666
        P          3.222        271.980
        O          2.536         24.284
        H          1.892          4.857

     number of k points=     1  Gaussian smearing, width (Ry)=  0.0100
                       cart. coord. in units 2pi/alat
        k(    1) = (   0.0000000   0.0000000   0.0000000), wk =   1.0000000

     Dense  grid:  1938023 G-vectors     FFT dimensions: ( 125, 144, 450)

     Smooth grid:   490328 G-vectors     FFT dimensions: (  80,  90, 288)

     Estimated max dynamical RAM per process >     326.29 MB

     Estimated total dynamical RAM >      20.39 GB

     Check: negative core charge=   -0.000001
     Generating pointlists ...
     new r_m :   0.0887 (alat units)  1.5433 (a.u.) for type    1
     new r_m :   0.0790 (alat units)  1.3753 (a.u.) for type    2
     new r_m :   0.0679 (alat units)  1.1825 (a.u.) for type    3
     new r_m :   0.0447 (alat units)  0.7785 (a.u.) for type    4
     new r_m :   0.0447 (alat units)  0.7785 (a.u.) for type    5

     Initial potential from superposition of free atoms

     starting charge    1092.8893, renormalised to    1093.0000

     negative rho (up, down):  1.403E-03 4.554E-04
 
     Adding external electric field

     Computed dipole along edir(3) : 
        Dipole                1.6282 Ry au,          4.1384 Debye
        Dipole field          0.0010 Ry au, 
 
        Potential amp.       -0.1099 Ry
        Total length         55.1515 bohr
 
 
     Adding external electric field

     Computed dipole along edir(3) : 
        Dipole                1.6282 Ry au,          4.1384 Debye
        Dipole field          0.0010 Ry au, 
 
        Potential amp.       -0.1099 Ry
        Total length         55.1515 bohr
 
     Starting wfcs are  815 randomized atomic wfcs

     total cpu time spent up to now is       12.9 secs

     Self-consistent Calculation

     iteration #  1     ecut=    50.00 Ry     beta= 0.10
     Davidson diagonalization with overlap
     ethr =  1.00E-02,  avg # of iterations =  6.0

     negative rho (up, down):  3.738E-01 2.968E-07
 
     Adding external electric field

     Computed dipole along edir(3) : 
        Dipole               -3.6054 Ry au,         -9.1639 Debye
        Dipole field         -0.0022 Ry au, 
 
        Potential amp.        0.2434 Ry
        Total length         55.1515 bohr
 
 
     Adding external electric field

     Computed dipole along edir(3) : 
        Dipole               -3.6054 Ry au,         -9.1639 Debye
        Dipole field         -0.0022 Ry au, 
 
        Potential amp.        0.2434 Ry
        Total length         55.1515 bohr
 

     total cpu time spent up to now is       48.4 secs

     total energy              =   -7517.03470648 Ry
     estimated scf accuracy    <     736.98030545 Ry

     total magnetization       =   219.00 Bohr mag/cell
     absolute magnetization    =   307.58 Bohr mag/cell

     iteration #  2     ecut=    50.00 Ry     beta= 0.10
     Davidson diagonalization with overlap
     ethr =  1.00E-02,  avg # of iterations =  2.0

     negative rho (up, down):  3.557E-01 1.050E-07
 
     Adding external electric field

     Computed dipole along edir(3) : 
        Dipole               -2.3676 Ry au,         -6.0179 Debye
        Dipole field         -0.0014 Ry au, 
 
        Potential amp.        0.1599 Ry
        Total length         55.1515 bohr
 
 
     Adding external electric field

     Computed dipole along edir(3) : 
        Dipole               -2.3676 Ry au,         -6.0179 Debye
        Dipole field         -0.0014 Ry au, 
 
        Potential amp.        0.1599 Ry
        Total length         55.1515 bohr
 

     total cpu time spent up to now is       69.7 secs

     total energy              =   -7600.38253304 Ry
     estimated scf accuracy    <     215.40253663 Ry

     total magnetization       =   159.11 Bohr mag/cell
     absolute magnetization    =   207.26 Bohr mag/cell

     iteration #  3     ecut=    50.00 Ry     beta= 0.10
     Davidson diagonalization with overlap
     ethr =  1.00E-02,  avg # of iterations =  1.5

     negative rho (up, down):  3.162E-01 9.613E-08
 
     Adding external electric field

     Computed dipole along edir(3) : 
        Dipole               -2.0588 Ry au,         -5.2328 Debye
        Dipole field         -0.0013 Ry au, 
 
        Potential amp.        0.1390 Ry
        Total length         55.1515 bohr
 
 
     Adding external electric field

     Computed dipole along edir(3) : 
        Dipole               -2.0588 Ry au,         -5.2328 Debye
        Dipole field         -0.0013 Ry au, 
 
        Potential amp.        0.1390 Ry
        Total length         55.1515 bohr
 

     total cpu time spent up to now is       86.1 secs

     total energy              =   -7630.39962930 Ry
     estimated scf accuracy    <     100.61103146 Ry

     total magnetization       =   135.66 Bohr mag/cell
     absolute magnetization    =   186.29 Bohr mag/cell

     iteration #  4     ecut=    50.00 Ry     beta= 0.10
     Davidson diagonalization with overlap
     ethr =  9.21E-03,  avg # of iterations =  1.0

     negative rho (up, down):  2.438E-01 2.357E-08
 
     Adding external electric field

     Computed dipole along edir(3) : 
        Dipole               -1.9457 Ry au,         -4.9454 Debye
        Dipole field         -0.0012 Ry au, 
 
        Potential amp.        0.1314 Ry
        Total length         55.1515 bohr
 
 
     Adding external electric field

     Computed dipole along edir(3) : 
        Dipole               -1.9457 Ry au,         -4.9454 Debye
        Dipole field         -0.0012 Ry au, 
 
        Potential amp.        0.1314 Ry
        Total length         55.1515 bohr
 

     total cpu time spent up to now is      102.0 secs

     total energy              =   -7664.00822708 Ry
     estimated scf accuracy    <      82.27059280 Ry

     total magnetization       =   119.76 Bohr mag/cell
     absolute magnetization    =   171.99 Bohr mag/cell

     iteration #  5     ecut=    50.00 Ry     beta= 0.10
     Davidson diagonalization with overlap
     ethr =  7.53E-03,  avg # of iterations =  1.0

     negative rho (up, down):  2.446E-02 3.906E-07
 
     Adding external electric field

     Computed dipole along edir(3) : 
        Dipole               -1.5378 Ry au,         -3.9087 Debye
        Dipole field         -0.0009 Ry au, 
 
        Potential amp.        0.1038 Ry
        Total length         55.1515 bohr
 
 
     Adding external electric field

     Computed dipole along edir(3) : 
        Dipole               -1.5378 Ry au,         -3.9087 Debye
        Dipole field         -0.0009 Ry au, 
 
        Potential amp.        0.1038 Ry
        Total length         55.1515 bohr
 

     total cpu time spent up to now is      117.9 secs

     total energy              =   -7723.64745179 Ry
     estimated scf accuracy    <      65.17120020 Ry

     total magnetization       =    97.16 Bohr mag/cell
     absolute magnetization    =   152.90 Bohr mag/cell

     iteration #  6     ecut=    50.00 Ry     beta= 0.10
     Davidson diagonalization with overlap
     ethr =  5.96E-03,  avg # of iterations =  1.0

     negative rho (up, down):  7.787E-04 1.482E-03
 
     Adding external electric field

     Computed dipole along edir(3) : 
        Dipole               -1.2108 Ry au,         -3.0774 Debye
        Dipole field         -0.0007 Ry au, 
 
        Potential amp.        0.0817 Ry
        Total length         55.1515 bohr
 
 
     Adding external electric field

     Computed dipole along edir(3) : 
        Dipole               -1.2108 Ry au,         -3.0774 Debye
        Dipole field         -0.0007 Ry au, 
 
        Potential amp.        0.0817 Ry
        Total length         55.1515 bohr
 

     total cpu time spent up to now is      133.9 secs

     total energy              =   -7735.68258905 Ry
     estimated scf accuracy    <      13.39553182 Ry

     total magnetization       =    91.00 Bohr mag/cell
     absolute magnetization    =   124.73 Bohr mag/cell

     iteration #  7     ecut=    50.00 Ry     beta= 0.10
     Davidson diagonalization with overlap
     ethr =  1.23E-03,  avg # of iterations =  7.0

     negative rho (up, down):  7.446E-04 1.379E-03
 
     Adding external electric field

     Computed dipole along edir(3) : 
        Dipole               -1.1922 Ry au,         -3.0304 Debye
        Dipole field         -0.0007 Ry au, 
 
        Potential amp.        0.0805 Ry
        Total length         55.1515 bohr
 
 
     Adding external electric field

     Computed dipole along edir(3) : 
        Dipole               -1.1922 Ry au,         -3.0304 Debye
        Dipole field         -0.0007 Ry au, 
 
        Potential amp.        0.0805 Ry
        Total length         55.1515 bohr
 

     total cpu time spent up to now is      163.4 secs

     total energy              =   -7738.49260658 Ry
     estimated scf accuracy    <      37.20852488 Ry

     total magnetization       =    65.14 Bohr mag/cell
     absolute magnetization    =    82.86 Bohr mag/cell

     iteration #  8     ecut=    50.00 Ry     beta= 0.10
     Davidson diagonalization with overlap
     ethr =  1.23E-03,  avg # of iterations =  1.0

     negative rho (up, down):  6.368E-04 1.097E-03
 
     Adding external electric field

     Computed dipole along edir(3) : 
        Dipole               -1.1304 Ry au,         -2.8731 Debye
        Dipole field         -0.0007 Ry au, 
 
        Potential amp.        0.0763 Ry
        Total length         55.1515 bohr
 
 
     Adding external electric field

     Computed dipole along edir(3) : 
        Dipole               -1.1304 Ry au,         -2.8731 Debye
        Dipole field         -0.0007 Ry au, 
 
        Potential amp.        0.0763 Ry
        Total length         55.1515 bohr
 

     total cpu time spent up to now is      178.8 secs

     total energy              =   -7738.37970710 Ry
     estimated scf accuracy    <      33.94792282 Ry

     total magnetization       =    66.20 Bohr mag/cell
     absolute magnetization    =    83.48 Bohr mag/cell

     iteration #  9     ecut=    50.00 Ry     beta= 0.10
     Davidson diagonalization with overlap
     ethr =  1.23E-03,  avg # of iterations =  1.0

     negative rho (up, down):  5.772E-04 1.009E-03
 
     Adding external electric field

     Computed dipole along edir(3) : 
        Dipole               -1.1142 Ry au,         -2.8319 Debye
        Dipole field         -0.0007 Ry au, 
 
        Potential amp.        0.0752 Ry
        Total length         55.1515 bohr
 
 
     Adding external electric field

     Computed dipole along edir(3) : 
        Dipole               -1.1142 Ry au,         -2.8319 Debye
        Dipole field         -0.0007 Ry au, 
 
        Potential amp.        0.0752 Ry
        Total length         55.1515 bohr
 

     total cpu time spent up to now is      192.8 secs

     total energy              =   -7738.35500996 Ry
     estimated scf accuracy    <      26.53111378 Ry

     total magnetization       =    67.99 Bohr mag/cell
     absolute magnetization    =    84.41 Bohr mag/cell

     iteration # 10     ecut=    50.00 Ry     beta= 0.10
     Davidson diagonalization with overlap
     ethr =  1.23E-03,  avg # of iterations =  1.0

     negative rho (up, down):  4.583E-04 9.046E-04
 
     Adding external electric field

     Computed dipole along edir(3) : 
        Dipole               -1.1593 Ry au,         -2.9466 Debye
        Dipole field         -0.0007 Ry au, 
 
        Potential amp.        0.0783 Ry
        Total length         55.1515 bohr
 
 
     Adding external electric field

     Computed dipole along edir(3) : 
        Dipole               -1.1593 Ry au,         -2.9466 Debye
        Dipole field         -0.0007 Ry au, 
 
        Potential amp.        0.0783 Ry
        Total length         55.1515 bohr
 

     total cpu time spent up to now is      205.6 secs

     total energy              =   -7738.24164092 Ry
     estimated scf accuracy    <      24.21344211 Ry

     total magnetization       =    68.51 Bohr mag/cell
     absolute magnetization    =    84.37 Bohr mag/cell

     iteration # 11     ecut=    50.00 Ry     beta= 0.10
     Davidson diagonalization with overlap
     ethr =  1.23E-03,  avg # of iterations =  1.0

     negative rho (up, down):  5.394E-04 9.618E-04
 
     Adding external electric field

     Computed dipole along edir(3) : 
        Dipole               -1.2036 Ry au,         -3.0592 Debye
        Dipole field         -0.0007 Ry au, 
 
        Potential amp.        0.0813 Ry
        Total length         55.1515 bohr
 
 
     Adding external electric field

     Computed dipole along edir(3) : 
        Dipole               -1.2036 Ry au,         -3.0592 Debye
        Dipole field         -0.0007 Ry au, 
 
        Potential amp.        0.0813 Ry
        Total length         55.1515 bohr
 

     total cpu time spent up to now is      218.5 secs

     total energy              =   -7737.58537068 Ry
     estimated scf accuracy    <      23.08969183 Ry

     total magnetization       =    68.08 Bohr mag/cell
     absolute magnetization    =    83.16 Bohr mag/cell

     iteration # 12     ecut=    50.00 Ry     beta= 0.10
     Davidson diagonalization with overlap
     ethr =  1.23E-03,  avg # of iterations =  1.0

     negative rho (up, down):  2.994E-04 6.739E-04
 
     Adding external electric field

     Computed dipole along edir(3) : 
        Dipole               -1.0625 Ry au,         -2.7006 Debye
        Dipole field         -0.0007 Ry au, 
 
        Potential amp.        0.0717 Ry
        Total length         55.1515 bohr
 
 
     Adding external electric field

     Computed dipole along edir(3) : 
        Dipole               -1.0625 Ry au,         -2.7006 Debye
        Dipole field         -0.0007 Ry au, 
 
        Potential amp.        0.0717 Ry
        Total length         55.1515 bohr
 

     total cpu time spent up to now is      232.4 secs

     total energy              =   -7738.01211134 Ry
     estimated scf accuracy    <       4.70274740 Ry

     total magnetization       =    84.03 Bohr mag/cell
     absolute magnetization    =    93.78 Bohr mag/cell

     iteration # 13     ecut=    50.00 Ry     beta= 0.10
     Davidson diagonalization with overlap
     ethr =  4.30E-04,  avg # of iterations =  1.5

     negative rho (up, down):  1.542E-04 4.278E-04
 
     Adding external electric field

     Computed dipole along edir(3) : 
        Dipole               -0.9414 Ry au,         -2.3928 Debye
        Dipole field         -0.0006 Ry au, 
 
        Potential amp.        0.0636 Ry
        Total length         55.1515 bohr
 
 
     Adding external electric field

     Computed dipole along edir(3) : 
        Dipole               -0.9414 Ry au,         -2.3928 Debye
        Dipole field         -0.0006 Ry au, 
 
        Potential amp.        0.0636 Ry
        Total length         55.1515 bohr
 

     total cpu time spent up to now is      246.8 secs

     total energy              =   -7738.02423566 Ry
     estimated scf accuracy    <       1.82555744 Ry

     total magnetization       =    85.32 Bohr mag/cell
     absolute magnetization    =    94.39 Bohr mag/cell

     iteration # 14     ecut=    50.00 Ry     beta= 0.10
     Davidson diagonalization with overlap
     ethr =  1.67E-04,  avg # of iterations =  1.5

     negative rho (up, down):  8.116E-05 2.444E-04
 
     Adding external electric field

     Computed dipole along edir(3) : 
        Dipole               -0.8549 Ry au,         -2.1730 Debye
        Dipole field         -0.0005 Ry au, 
 
        Potential amp.        0.0577 Ry
        Total length         55.1515 bohr
 
 
     Adding external electric field

     Computed dipole along edir(3) : 
        Dipole               -0.8549 Ry au,         -2.1730 Debye
        Dipole field         -0.0005 Ry au, 
 
        Potential amp.        0.0577 Ry
        Total length         55.1515 bohr
 

     total cpu time spent up to now is      261.2 secs

     total energy              =   -7738.05209675 Ry
     estimated scf accuracy    <       0.74345580 Ry

     total magnetization       =    86.48 Bohr mag/cell
     absolute magnetization    =    94.90 Bohr mag/cell

     iteration # 15     ecut=    50.00 Ry     beta= 0.10
     Davidson diagonalization with overlap
     ethr =  6.80E-05,  avg # of iterations = 11.0

     negative rho (up, down):  3.885E-05 8.623E-05
 
     Adding external electric field

     Computed dipole along edir(3) : 
        Dipole               -0.7837 Ry au,         -1.9920 Debye
        Dipole field         -0.0005 Ry au, 
 
        Potential amp.        0.0529 Ry
        Total length         55.1515 bohr
 
 
     Adding external electric field

     Computed dipole along edir(3) : 
        Dipole               -0.7837 Ry au,         -1.9920 Debye
        Dipole field         -0.0005 Ry au, 
 
        Potential amp.        0.0529 Ry
        Total length         55.1515 bohr
 

     total cpu time spent up to now is      286.6 secs

     total energy              =   -7738.12484596 Ry
     estimated scf accuracy    <       0.55477214 Ry

     total magnetization       =    86.73 Bohr mag/cell
     absolute magnetization    =    94.71 Bohr mag/cell

     iteration # 16     ecut=    50.00 Ry     beta= 0.10
     Davidson diagonalization with overlap
     ethr =  5.08E-05,  avg # of iterations =  1.5

     negative rho (up, down):  2.929E-05 4.641E-05
 
     Adding external electric field

     Computed dipole along edir(3) : 
        Dipole               -0.7635 Ry au,         -1.9406 Debye
        Dipole field         -0.0005 Ry au, 
 
        Potential amp.        0.0515 Ry
        Total length         55.1515 bohr
 
 
     Adding external electric field

     Computed dipole along edir(3) : 
        Dipole               -0.7635 Ry au,         -1.9406 Debye
        Dipole field         -0.0005 Ry au, 
 
        Potential amp.        0.0515 Ry
        Total length         55.1515 bohr
 

     total cpu time spent up to now is      301.3 secs

     total energy              =   -7738.21044227 Ry
     estimated scf accuracy    <       0.47415227 Ry

     total magnetization       =    87.95 Bohr mag/cell
     absolute magnetization    =    95.24 Bohr mag/cell

     iteration # 17     ecut=    50.00 Ry     beta= 0.10
     Davidson diagonalization with overlap
     ethr =  4.34E-05,  avg # of iterations =  1.5

     negative rho (up, down):  2.148E-04 2.388E-04
 
     Adding external electric field

     Computed dipole along edir(3) : 
        Dipole               -0.7490 Ry au,         -1.9038 Debye
        Dipole field         -0.0005 Ry au, 
 
        Potential amp.        0.0506 Ry
        Total length         55.1515 bohr
 
 
     Adding external electric field

     Computed dipole along edir(3) : 
        Dipole               -0.7490 Ry au,         -1.9038 Debye
        Dipole field         -0.0005 Ry au, 
 
        Potential amp.        0.0506 Ry
        Total length         55.1515 bohr
 

     total cpu time spent up to now is      316.7 secs

     total energy              =   -7738.35426401 Ry
     estimated scf accuracy    <       0.53123024 Ry

     total magnetization       =    88.71 Bohr mag/cell
     absolute magnetization    =    94.81 Bohr mag/cell

     iteration # 18     ecut=    50.00 Ry     beta= 0.10
     Davidson diagonalization with overlap
     ethr =  4.34E-05,  avg # of iterations =  2.0

     negative rho (up, down):  9.401E-05 1.073E-04
 
     Adding external electric field

     Computed dipole along edir(3) : 
        Dipole               -0.6507 Ry au,         -1.6538 Debye
        Dipole field         -0.0004 Ry au, 
 
        Potential amp.        0.0439 Ry
        Total length         55.1515 bohr
 
 
     Adding external electric field

     Computed dipole along edir(3) : 
        Dipole               -0.6507 Ry au,         -1.6538 Debye
        Dipole field         -0.0004 Ry au, 
 
        Potential amp.        0.0439 Ry
        Total length         55.1515 bohr
 

     total cpu time spent up to now is      333.1 secs

     total energy              =   -7738.37759984 Ry
     estimated scf accuracy    <       0.59352382 Ry

     total magnetization       =    88.83 Bohr mag/cell
     absolute magnetization    =    92.19 Bohr mag/cell

     iteration # 19     ecut=    50.00 Ry     beta= 0.10
     Davidson diagonalization with overlap
     ethr =  4.34E-05,  avg # of iterations =  1.5

     negative rho (up, down):  1.631E-06 1.223E-06
 
     Adding external electric field

     Computed dipole along edir(3) : 
        Dipole               -0.4815 Ry au,         -1.2239 Debye
        Dipole field         -0.0003 Ry au, 
 
        Potential amp.        0.0325 Ry
        Total length         55.1515 bohr
 
 
     Adding external electric field

     Computed dipole along edir(3) : 
        Dipole               -0.4815 Ry au,         -1.2239 Debye
        Dipole field         -0.0003 Ry au, 
 
        Potential amp.        0.0325 Ry
        Total length         55.1515 bohr
 

     total cpu time spent up to now is      348.5 secs

     total energy              =   -7738.35603168 Ry
     estimated scf accuracy    <       0.38336309 Ry

     total magnetization       =    88.22 Bohr mag/cell
     absolute magnetization    =    90.71 Bohr mag/cell

     iteration # 20     ecut=    50.00 Ry     beta= 0.10
     Davidson diagonalization with overlap
     ethr =  3.51E-05,  avg # of iterations =  1.5

     negative rho (up, down):  1.794E-07 1.321E-07
 
     Adding external electric field

     Computed dipole along edir(3) : 
        Dipole               -0.4334 Ry au,         -1.1017 Debye
        Dipole field         -0.0003 Ry au, 
 
        Potential amp.        0.0293 Ry
        Total length         55.1515 bohr
 
 
     Adding external electric field

     Computed dipole along edir(3) : 
        Dipole               -0.4334 Ry au,         -1.1017 Debye
        Dipole field         -0.0003 Ry au, 
 
        Potential amp.        0.0293 Ry
        Total length         55.1515 bohr
 

     total cpu time spent up to now is      364.2 secs

     total energy              =   -7738.33202720 Ry
     estimated scf accuracy    <       0.28406487 Ry

     total magnetization       =    87.74 Bohr mag/cell
     absolute magnetization    =    89.93 Bohr mag/cell

     iteration # 21     ecut=    50.00 Ry     beta= 0.10
     Davidson diagonalization with overlap
     ethr =  2.60E-05,  avg # of iterations = 11.0

     negative rho (up, down):  1.371E-07 2.540E-07
 
     Adding external electric field

     Computed dipole along edir(3) : 
        Dipole               -0.4143 Ry au,         -1.0531 Debye
        Dipole field         -0.0003 Ry au, 
 
        Potential amp.        0.0280 Ry
        Total length         55.1515 bohr
 
 
     Adding external electric field

     Computed dipole along edir(3) : 
        Dipole               -0.4143 Ry au,         -1.0531 Debye
        Dipole field         -0.0003 Ry au, 
 
        Potential amp.        0.0280 Ry
        Total length         55.1515 bohr
 

     total cpu time spent up to now is      385.1 secs

     total energy              =   -7738.34927589 Ry
     estimated scf accuracy    <       0.19634576 Ry

     total magnetization       =    87.75 Bohr mag/cell
     absolute magnetization    =    90.37 Bohr mag/cell

     iteration # 22     ecut=    50.00 Ry     beta= 0.10
     Davidson diagonalization with overlap
     ethr =  1.80E-05,  avg # of iterations =  9.5

     negative rho (up, down):  1.064E-07 3.734E-07
 
     Adding external electric field

     Computed dipole along edir(3) : 
        Dipole               -0.3674 Ry au,         -0.9338 Debye
        Dipole field         -0.0002 Ry au, 
 
        Potential amp.        0.0248 Ry
        Total length         55.1515 bohr
 
 
     Adding external electric field

     Computed dipole along edir(3) : 
        Dipole               -0.3674 Ry au,         -0.9338 Debye
        Dipole field         -0.0002 Ry au, 
 
        Potential amp.        0.0248 Ry
        Total length         55.1515 bohr
 

     total cpu time spent up to now is      406.6 secs

     total energy              =   -7738.35415729 Ry
     estimated scf accuracy    <       0.11052645 Ry

     total magnetization       =    88.05 Bohr mag/cell
     absolute magnetization    =    89.95 Bohr mag/cell

     iteration # 23     ecut=    50.00 Ry     beta= 0.10
     Davidson diagonalization with overlap
     ethr =  1.01E-05,  avg # of iterations = 23.0

     negative rho (up, down):  7.147E-08 2.490E-07
 
     Adding external electric field

     Computed dipole along edir(3) : 
        Dipole               -0.3599 Ry au,         -0.9148 Debye
        Dipole field         -0.0002 Ry au, 
 
        Potential amp.        0.0243 Ry
        Total length         55.1515 bohr
 
 
     Adding external electric field

     Computed dipole along edir(3) : 
        Dipole               -0.3599 Ry au,         -0.9148 Debye
        Dipole field         -0.0002 Ry au, 
 
        Potential amp.        0.0243 Ry
        Total length         55.1515 bohr
 

     total cpu time spent up to now is      448.5 secs

     total energy              =   -7738.35519862 Ry
     estimated scf accuracy    <       0.08798664 Ry

     total magnetization       =    87.38 Bohr mag/cell
     absolute magnetization    =    89.07 Bohr mag/cell

     iteration # 24     ecut=    50.00 Ry     beta= 0.10
     Davidson diagonalization with overlap
     ethr =  8.05E-06,  avg # of iterations =  2.0

     negative rho (up, down):  2.071E-08 9.863E-08
 
     Adding external electric field

     Computed dipole along edir(3) : 
        Dipole               -0.2984 Ry au,         -0.7585 Debye
        Dipole field         -0.0002 Ry au, 
 
        Potential amp.        0.0201 Ry
        Total length         55.1515 bohr
 
 
     Adding external electric field

     Computed dipole along edir(3) : 
        Dipole               -0.2984 Ry au,         -0.7585 Debye
        Dipole field         -0.0002 Ry au, 
 
        Potential amp.        0.0201 Ry
        Total length         55.1515 bohr
 

     total cpu time spent up to now is      463.3 secs

     total energy              =   -7738.35148680 Ry
     estimated scf accuracy    <       0.06919302 Ry

     total magnetization       =    87.34 Bohr mag/cell
     absolute magnetization    =    89.06 Bohr mag/cell

     iteration # 25     ecut=    50.00 Ry     beta= 0.10
     Davidson diagonalization with overlap
     c_bands:  3 eigenvalues not converged
     ethr =  6.33E-06,  avg # of iterations = 12.0

     negative rho (up, down):  5.879E-08 2.812E-07
 
     Adding external electric field

     Computed dipole along edir(3) : 
        Dipole               -0.3449 Ry au,         -0.8766 Debye
        Dipole field         -0.0002 Ry au, 
 
        Potential amp.        0.0233 Ry
        Total length         55.1515 bohr
 
 
     Adding external electric field

     Computed dipole along edir(3) : 
        Dipole               -0.3449 Ry au,         -0.8766 Debye
        Dipole field         -0.0002 Ry au, 
 
        Potential amp.        0.0233 Ry
        Total length         55.1515 bohr
 

     total cpu time spent up to now is      487.4 secs

     total energy              =   -7738.35125095 Ry
     estimated scf accuracy    <       0.15185799 Ry

     total magnetization       =    86.00 Bohr mag/cell
     absolute magnetization    =    87.76 Bohr mag/cell

     iteration # 26     ecut=    50.00 Ry     beta= 0.10
     Davidson diagonalization with overlap
     ethr =  6.33E-06,  avg # of iterations = 15.0

     negative rho (up, down):  1.090E-07 1.059E-07
 
     Adding external electric field

     Computed dipole along edir(3) : 
        Dipole               -0.3402 Ry au,         -0.8647 Debye
        Dipole field         -0.0002 Ry au, 
 
        Potential amp.        0.0230 Ry
        Total length         55.1515 bohr
 
 
     Adding external electric field

     Computed dipole along edir(3) : 
        Dipole               -0.3402 Ry au,         -0.8647 Debye
        Dipole field         -0.0002 Ry au, 
 
        Potential amp.        0.0230 Ry
        Total length         55.1515 bohr
 

     total cpu time spent up to now is      511.4 secs

     total energy              =   -7738.35440965 Ry
     estimated scf accuracy    <       0.07296105 Ry

     total magnetization       =    86.79 Bohr mag/cell
     absolute magnetization    =    88.55 Bohr mag/cell

     iteration # 27     ecut=    50.00 Ry     beta= 0.10
     Davidson diagonalization with overlap
     ethr =  6.33E-06,  avg # of iterations =  2.0

     negative rho (up, down):  9.119E-06 1.135E-06
 
     Adding external electric field

     Computed dipole along edir(3) : 
        Dipole               -0.2691 Ry au,         -0.6840 Debye
        Dipole field         -0.0002 Ry au, 
 
        Potential amp.        0.0182 Ry
        Total length         55.1515 bohr
 
 
     Adding external electric field

     Computed dipole along edir(3) : 
        Dipole               -0.2691 Ry au,         -0.6840 Debye
        Dipole field         -0.0002 Ry au, 
 
        Potential amp.        0.0182 Ry
        Total length         55.1515 bohr
 

     total cpu time spent up to now is      527.8 secs

     total energy              =   -7738.35121347 Ry
     estimated scf accuracy    <       0.06802375 Ry

     total magnetization       =    87.61 Bohr mag/cell
     absolute magnetization    =    89.23 Bohr mag/cell

     iteration # 28     ecut=    50.00 Ry     beta= 0.10
     Davidson diagonalization with overlap
     ethr =  6.22E-06,  avg # of iterations =  2.0

     negative rho (up, down):  2.076E-05 9.702E-06
 
     Adding external electric field

     Computed dipole along edir(3) : 
        Dipole               -0.2669 Ry au,         -0.6784 Debye
        Dipole field         -0.0002 Ry au, 
 
        Potential amp.        0.0180 Ry
        Total length         55.1515 bohr
 
 
     Adding external electric field

     Computed dipole along edir(3) : 
        Dipole               -0.2669 Ry au,         -0.6784 Debye
        Dipole field         -0.0002 Ry au, 
 
        Potential amp.        0.0180 Ry
        Total length         55.1515 bohr
 

     total cpu time spent up to now is      543.7 secs

     total energy              =   -7738.35378912 Ry
     estimated scf accuracy    <       0.08126014 Ry

     total magnetization       =    87.76 Bohr mag/cell
     absolute magnetization    =    89.19 Bohr mag/cell

     iteration # 29     ecut=    50.00 Ry     beta= 0.10
     Davidson diagonalization with overlap
     ethr =  6.22E-06,  avg # of iterations =  1.5

     negative rho (up, down):  9.347E-06 2.576E-06
 
     Adding external electric field

     Computed dipole along edir(3) : 
        Dipole               -0.2317 Ry au,         -0.5890 Debye
        Dipole field         -0.0001 Ry au, 
 
        Potential amp.        0.0156 Ry
        Total length         55.1515 bohr
 
 
     Adding external electric field

     Computed dipole along edir(3) : 
        Dipole               -0.2317 Ry au,         -0.5890 Debye
        Dipole field         -0.0001 Ry au, 
 
        Potential amp.        0.0156 Ry
        Total length         55.1515 bohr
 

     total cpu time spent up to now is      558.2 secs

     total energy              =   -7738.35312369 Ry
     estimated scf accuracy    <       0.07425665 Ry

     total magnetization       =    87.97 Bohr mag/cell
     absolute magnetization    =    89.34 Bohr mag/cell

     iteration # 30     ecut=    50.00 Ry     beta= 0.10
     Davidson diagonalization with overlap
     ethr =  6.22E-06,  avg # of iterations =  1.5

     negative rho (up, down):  1.063E-05 3.481E-06
 
     Adding external electric field

     Computed dipole along edir(3) : 
        Dipole               -0.2428 Ry au,         -0.6171 Debye
        Dipole field         -0.0001 Ry au, 
 
        Potential amp.        0.0164 Ry
        Total length         55.1515 bohr
 
 
     Adding external electric field

     Computed dipole along edir(3) : 
        Dipole               -0.2428 Ry au,         -0.6171 Debye
        Dipole field         -0.0001 Ry au, 
 
        Potential amp.        0.0164 Ry
        Total length         55.1515 bohr
 

     total cpu time spent up to now is      571.9 secs

     total energy              =   -7738.35373928 Ry
     estimated scf accuracy    <       0.05276132 Ry

     total magnetization       =    87.65 Bohr mag/cell
     absolute magnetization    =    89.08 Bohr mag/cell

     iteration # 31     ecut=    50.00 Ry     beta= 0.10
     Davidson diagonalization with overlap
     ethr =  4.83E-06,  avg # of iterations =  1.5

     negative rho (up, down):  7.532E-06 3.973E-06
 
     Adding external electric field

     Computed dipole along edir(3) : 
        Dipole               -0.2512 Ry au,         -0.6384 Debye
        Dipole field         -0.0002 Ry au, 
 
        Potential amp.        0.0170 Ry
        Total length         55.1515 bohr
 
 
     Adding external electric field

     Computed dipole along edir(3) : 
        Dipole               -0.2512 Ry au,         -0.6384 Debye
        Dipole field         -0.0002 Ry au, 
 
        Potential amp.        0.0170 Ry
        Total length         55.1515 bohr
 

     total cpu time spent up to now is      586.7 secs

     total energy              =   -7738.35270641 Ry
     estimated scf accuracy    <       0.05446943 Ry

     total magnetization       =    87.70 Bohr mag/cell
     absolute magnetization    =    89.11 Bohr mag/cell

     iteration # 32     ecut=    50.00 Ry     beta= 0.10
     Davidson diagonalization with overlap
     ethr =  4.83E-06,  avg # of iterations =  2.0

     negative rho (up, down):  4.652E-06 6.582E-07
 
     Adding external electric field

     Computed dipole along edir(3) : 
        Dipole               -0.2672 Ry au,         -0.6791 Debye
        Dipole field         -0.0002 Ry au, 
 
        Potential amp.        0.0180 Ry
        Total length         55.1515 bohr
 
 
     Adding external electric field

     Computed dipole along edir(3) : 
        Dipole               -0.2672 Ry au,         -0.6791 Debye
        Dipole field         -0.0002 Ry au, 
 
        Potential amp.        0.0180 Ry
        Total length         55.1515 bohr
 

     total cpu time spent up to now is      602.3 secs

     total energy              =   -7738.35176928 Ry
     estimated scf accuracy    <       0.04381444 Ry

     total magnetization       =    87.32 Bohr mag/cell
     absolute magnetization    =    88.68 Bohr mag/cell

     iteration # 33     ecut=    50.00 Ry     beta= 0.10
     Davidson diagonalization with overlap
     ethr =  4.01E-06,  avg # of iterations =  1.0

     negative rho (up, down):  3.031E-06 7.830E-07
 
     Adding external electric field

     Computed dipole along edir(3) : 
        Dipole               -0.3001 Ry au,         -0.7627 Debye
        Dipole field         -0.0002 Ry au, 
 
        Potential amp.        0.0203 Ry
        Total length         55.1515 bohr
 
 
     Adding external electric field

     Computed dipole along edir(3) : 
        Dipole               -0.3001 Ry au,         -0.7627 Debye
        Dipole field         -0.0002 Ry au, 
 
        Potential amp.        0.0203 Ry
        Total length         55.1515 bohr
 

     total cpu time spent up to now is      615.9 secs

     total energy              =   -7738.35304360 Ry
     estimated scf accuracy    <       0.05067997 Ry

     total magnetization       =    87.64 Bohr mag/cell
     absolute magnetization    =    89.16 Bohr mag/cell

     iteration # 34     ecut=    50.00 Ry     beta= 0.10
     Davidson diagonalization with overlap
     ethr =  4.01E-06,  avg # of iterations =  1.5

     negative rho (up, down):  2.958E-06 3.126E-06
 
     Adding external electric field

     Computed dipole along edir(3) : 
        Dipole               -0.3227 Ry au,         -0.8203 Debye
        Dipole field         -0.0002 Ry au, 
 
        Potential amp.        0.0218 Ry
        Total length         55.1515 bohr
 
 
     Adding external electric field

     Computed dipole along edir(3) : 
        Dipole               -0.3227 Ry au,         -0.8203 Debye
        Dipole field         -0.0002 Ry au, 
 
        Potential amp.        0.0218 Ry
        Total length         55.1515 bohr
 

     total cpu time spent up to now is      630.8 secs

     total energy              =   -7738.35407411 Ry
     estimated scf accuracy    <       0.04797310 Ry

     total magnetization       =    87.65 Bohr mag/cell
     absolute magnetization    =    89.23 Bohr mag/cell

     iteration # 35     ecut=    50.00 Ry     beta= 0.10
     Davidson diagonalization with overlap
     ethr =  4.01E-06,  avg # of iterations =  1.0

     negative rho (up, down):  1.642E-06 2.565E-06
 
     Adding external electric field

     Computed dipole along edir(3) : 
        Dipole               -0.3324 Ry au,         -0.8448 Debye
        Dipole field         -0.0002 Ry au, 
 
        Potential amp.        0.0224 Ry
        Total length         55.1515 bohr
 
 
     Adding external electric field

     Computed dipole along edir(3) : 
        Dipole               -0.3324 Ry au,         -0.8448 Debye
        Dipole field         -0.0002 Ry au, 
 
        Potential amp.        0.0224 Ry
        Total length         55.1515 bohr
 

     total cpu time spent up to now is      644.6 secs

     total energy              =   -7738.35413528 Ry
     estimated scf accuracy    <       0.03807367 Ry

     total magnetization       =    87.30 Bohr mag/cell
     absolute magnetization    =    88.89 Bohr mag/cell

     iteration # 36     ecut=    50.00 Ry     beta= 0.10
     Davidson diagonalization with overlap
     ethr =  3.48E-06,  avg # of iterations =  2.0

     negative rho (up, down):  1.216E-06 1.672E-06
 
     Adding external electric field

     Computed dipole along edir(3) : 
        Dipole               -0.4033 Ry au,         -1.0252 Debye
        Dipole field         -0.0002 Ry au, 
 
        Potential amp.        0.0272 Ry
        Total length         55.1515 bohr
 
 
     Adding external electric field

     Computed dipole along edir(3) : 
        Dipole               -0.4033 Ry au,         -1.0252 Debye
        Dipole field         -0.0002 Ry au, 
 
        Potential amp.        0.0272 Ry
        Total length         55.1515 bohr
 

     total cpu time spent up to now is      660.1 secs

     total energy              =   -7738.35412791 Ry
     estimated scf accuracy    <       0.03721223 Ry

     total magnetization       =    87.02 Bohr mag/cell
     absolute magnetization    =    88.60 Bohr mag/cell

     iteration # 37     ecut=    50.00 Ry     beta= 0.10
     Davidson diagonalization with overlap
     ethr =  3.40E-06,  avg # of iterations =  1.5

     negative rho (up, down):  1.790E-06 1.867E-06
 
     Adding external electric field

     Computed dipole along edir(3) : 
        Dipole               -0.3620 Ry au,         -0.9202 Debye
        Dipole field         -0.0002 Ry au, 
 
        Potential amp.        0.0244 Ry
        Total length         55.1515 bohr
 
 
     Adding external electric field

     Computed dipole along edir(3) : 
        Dipole               -0.3620 Ry au,         -0.9202 Debye
        Dipole field         -0.0002 Ry au, 
 
        Potential amp.        0.0244 Ry
        Total length         55.1515 bohr
 

     total cpu time spent up to now is      674.6 secs

     total energy              =   -7738.35465235 Ry
     estimated scf accuracy    <       0.03653428 Ry

     total magnetization       =    87.37 Bohr mag/cell
     absolute magnetization    =    88.99 Bohr mag/cell

     iteration # 38     ecut=    50.00 Ry     beta= 0.10
     Davidson diagonalization with overlap
     ethr =  3.34E-06,  avg # of iterations =  1.5

     negative rho (up, down):  1.740E-06 1.614E-06
 
     Adding external electric field

     Computed dipole along edir(3) : 
        Dipole               -0.3866 Ry au,         -0.9826 Debye
        Dipole field         -0.0002 Ry au, 
 
        Potential amp.        0.0261 Ry
        Total length         55.1515 bohr
 
 
     Adding external electric field

     Computed dipole along edir(3) : 
        Dipole               -0.3866 Ry au,         -0.9826 Debye
        Dipole field         -0.0002 Ry au, 
 
        Potential amp.        0.0261 Ry
        Total length         55.1515 bohr
 

     total cpu time spent up to now is      688.8 secs

     total energy              =   -7738.35505218 Ry
     estimated scf accuracy    <       0.04311711 Ry

     total magnetization       =    87.54 Bohr mag/cell
     absolute magnetization    =    89.16 Bohr mag/cell

     iteration # 39     ecut=    50.00 Ry     beta= 0.10
     Davidson diagonalization with overlap
     ethr =  3.34E-06,  avg # of iterations =  1.5

     negative rho (up, down):  2.082E-07 6.357E-07
 
     Adding external electric field

     Computed dipole along edir(3) : 
        Dipole               -0.2765 Ry au,         -0.7027 Debye
        Dipole field         -0.0002 Ry au, 
 
        Potential amp.        0.0187 Ry
        Total length         55.1515 bohr
 
 
     Adding external electric field

     Computed dipole along edir(3) : 
        Dipole               -0.2765 Ry au,         -0.7027 Debye
        Dipole field         -0.0002 Ry au, 
 
        Potential amp.        0.0187 Ry
        Total length         55.1515 bohr
 

     total cpu time spent up to now is      702.8 secs

     total energy              =   -7738.35204361 Ry
     estimated scf accuracy    <       0.04552302 Ry

     total magnetization       =    87.59 Bohr mag/cell
     absolute magnetization    =    89.19 Bohr mag/cell

     iteration # 40     ecut=    50.00 Ry     beta= 0.10
     Davidson diagonalization with overlap
     ethr =  3.34E-06,  avg # of iterations =  2.0

     negative rho (up, down):  8.833E-07 1.180E-06
 
     Adding external electric field

     Computed dipole along edir(3) : 
        Dipole               -0.3665 Ry au,         -0.9315 Debye
        Dipole field         -0.0002 Ry au, 
 
        Potential amp.        0.0247 Ry
        Total length         55.1515 bohr
 
 
     Adding external electric field

     Computed dipole along edir(3) : 
        Dipole               -0.3665 Ry au,         -0.9315 Debye
        Dipole field         -0.0002 Ry au, 
 
        Potential amp.        0.0247 Ry
        Total length         55.1515 bohr
 

     total cpu time spent up to now is      718.5 secs

     total energy              =   -7738.35428979 Ry
     estimated scf accuracy    <       0.05020781 Ry

     total magnetization       =    87.07 Bohr mag/cell
     absolute magnetization    =    88.70 Bohr mag/cell

     iteration # 41     ecut=    50.00 Ry     beta= 0.10
     Davidson diagonalization with overlap
     ethr =  3.34E-06,  avg # of iterations =  1.5

     negative rho (up, down):  6.994E-07 8.898E-07
 
     Adding external electric field

     Computed dipole along edir(3) : 
        Dipole               -0.3765 Ry au,         -0.9569 Debye
        Dipole field         -0.0002 Ry au, 
 
        Potential amp.        0.0254 Ry
        Total length         55.1515 bohr
 
 
     Adding external electric field

     Computed dipole along edir(3) : 
        Dipole               -0.3765 Ry au,         -0.9569 Debye
        Dipole field         -0.0002 Ry au, 
 
        Potential amp.        0.0254 Ry
        Total length         55.1515 bohr
 

     total cpu time spent up to now is      732.6 secs

     total energy              =   -7738.35350536 Ry
     estimated scf accuracy    <       0.03793624 Ry

     total magnetization       =    86.96 Bohr mag/cell
     absolute magnetization    =    88.54 Bohr mag/cell

     iteration # 42     ecut=    50.00 Ry     beta= 0.10
     Davidson diagonalization with overlap
     ethr =  3.34E-06,  avg # of iterations =  1.0

     negative rho (up, down):  4.455E-07 8.183E-07
 
     Adding external electric field

     Computed dipole along edir(3) : 
        Dipole               -0.4015 Ry au,         -1.0205 Debye
        Dipole field         -0.0002 Ry au, 
 
        Potential amp.        0.0271 Ry
        Total length         55.1515 bohr
 
 
     Adding external electric field

     Computed dipole along edir(3) : 
        Dipole               -0.4015 Ry au,         -1.0205 Debye
        Dipole field         -0.0002 Ry au, 
 
        Potential amp.        0.0271 Ry
        Total length         55.1515 bohr
 

     total cpu time spent up to now is      746.1 secs

     total energy              =   -7738.35417046 Ry
     estimated scf accuracy    <       0.03564671 Ry

     total magnetization       =    87.03 Bohr mag/cell
     absolute magnetization    =    88.73 Bohr mag/cell

     iteration # 43     ecut=    50.00 Ry     beta= 0.10
     Davidson diagonalization with overlap
     ethr =  3.26E-06,  avg # of iterations =  1.5

     negative rho (up, down):  1.058E-06 1.691E-06
 
     Adding external electric field

     Computed dipole along edir(3) : 
        Dipole               -0.3589 Ry au,         -0.9122 Debye
        Dipole field         -0.0002 Ry au, 
 
        Potential amp.        0.0242 Ry
        Total length         55.1515 bohr
 
 
     Adding external electric field

     Computed dipole along edir(3) : 
        Dipole               -0.3589 Ry au,         -0.9122 Debye
        Dipole field         -0.0002 Ry au, 
 
        Potential amp.        0.0242 Ry
        Total length         55.1515 bohr
 

     total cpu time spent up to now is      760.9 secs

     total energy              =   -7738.35406654 Ry
     estimated scf accuracy    <       0.04115214 Ry

     total magnetization       =    86.92 Bohr mag/cell
     absolute magnetization    =    88.56 Bohr mag/cell

     iteration # 44     ecut=    50.00 Ry     beta= 0.10
     Davidson diagonalization with overlap
     ethr =  3.26E-06,  avg # of iterations =  1.5

     negative rho (up, down):  1.264E-06 1.800E-06
 
     Adding external electric field

     Computed dipole along edir(3) : 
        Dipole               -0.3597 Ry au,         -0.9143 Debye
        Dipole field         -0.0002 Ry au, 
 
        Potential amp.        0.0243 Ry
        Total length         55.1515 bohr
 
 
     Adding external electric field

     Computed dipole along edir(3) : 
        Dipole               -0.3597 Ry au,         -0.9143 Debye
        Dipole field         -0.0002 Ry au, 
 
        Potential amp.        0.0243 Ry
        Total length         55.1515 bohr
 

     total cpu time spent up to now is      775.2 secs

     total energy              =   -7738.35429943 Ry
     estimated scf accuracy    <       0.03502850 Ry

     total magnetization       =    87.00 Bohr mag/cell
     absolute magnetization    =    88.64 Bohr mag/cell

     iteration # 45     ecut=    50.00 Ry     beta= 0.10
     Davidson diagonalization with overlap
     ethr =  3.20E-06,  avg # of iterations =  1.0

     negative rho (up, down):  1.581E-06 1.662E-06
 
     Adding external electric field

     Computed dipole along edir(3) : 
        Dipole               -0.3419 Ry au,         -0.8690 Debye
        Dipole field         -0.0002 Ry au, 
 
        Potential amp.        0.0231 Ry
        Total length         55.1515 bohr
 
 
     Adding external electric field

     Computed dipole along edir(3) : 
        Dipole               -0.3419 Ry au,         -0.8690 Debye
        Dipole field         -0.0002 Ry au, 
 
        Potential amp.        0.0231 Ry
        Total length         55.1515 bohr
 

     total cpu time spent up to now is      788.4 secs

     total energy              =   -7738.35428675 Ry
     estimated scf accuracy    <       0.03381180 Ry

     total magnetization       =    87.05 Bohr mag/cell
     absolute magnetization    =    88.69 Bohr mag/cell

     iteration # 46     ecut=    50.00 Ry     beta= 0.10
     Davidson diagonalization with overlap
     ethr =  3.09E-06,  avg # of iterations =  1.5

     negative rho (up, down):  1.332E-06 1.704E-06
 
     Adding external electric field

     Computed dipole along edir(3) : 
        Dipole               -0.3553 Ry au,         -0.9031 Debye
        Dipole field         -0.0002 Ry au, 
 
        Potential amp.        0.0240 Ry
        Total length         55.1515 bohr
 
 
     Adding external electric field

     Computed dipole along edir(3) : 
        Dipole               -0.3553 Ry au,         -0.9031 Debye
        Dipole field         -0.0002 Ry au, 
 
        Potential amp.        0.0240 Ry
        Total length         55.1515 bohr
 

     total cpu time spent up to now is      802.0 secs

     total energy              =   -7738.35435488 Ry
     estimated scf accuracy    <       0.03430018 Ry

     total magnetization       =    87.09 Bohr mag/cell
     absolute magnetization    =    88.70 Bohr mag/cell

     iteration # 47     ecut=    50.00 Ry     beta= 0.10
     Davidson diagonalization with overlap
     ethr =  3.09E-06,  avg # of iterations =  1.0

     negative rho (up, down):  3.709E-06 3.271E-06
 
     Adding external electric field

     Computed dipole along edir(3) : 
        Dipole               -0.3245 Ry au,         -0.8248 Debye
        Dipole field         -0.0002 Ry au, 
 
        Potential amp.        0.0219 Ry
        Total length         55.1515 bohr
 
 
     Adding external electric field

     Computed dipole along edir(3) : 
        Dipole               -0.3245 Ry au,         -0.8248 Debye
        Dipole field         -0.0002 Ry au, 
 
        Potential amp.        0.0219 Ry
        Total length         55.1515 bohr
 

     total cpu time spent up to now is      815.5 secs

     total energy              =   -7738.35385638 Ry
     estimated scf accuracy    <       0.03443230 Ry

     total magnetization       =    87.07 Bohr mag/cell
     absolute magnetization    =    88.69 Bohr mag/cell

     iteration # 48     ecut=    50.00 Ry     beta= 0.10
     Davidson diagonalization with overlap
     ethr =  3.09E-06,  avg # of iterations =  1.5

     negative rho (up, down):  7.644E-06 7.002E-06
 
     Adding external electric field

     Computed dipole along edir(3) : 
        Dipole               -0.3510 Ry au,         -0.8922 Debye
        Dipole field         -0.0002 Ry au, 
 
        Potential amp.        0.0237 Ry
        Total length         55.1515 bohr
 
 
     Adding external electric field

     Computed dipole along edir(3) : 
        Dipole               -0.3510 Ry au,         -0.8922 Debye
        Dipole field         -0.0002 Ry au, 
 
        Potential amp.        0.0237 Ry
        Total length         55.1515 bohr
 

     total cpu time spent up to now is      829.7 secs

     total energy              =   -7738.35397550 Ry
     estimated scf accuracy    <       0.03353153 Ry

     total magnetization       =    87.02 Bohr mag/cell
     absolute magnetization    =    88.61 Bohr mag/cell

     iteration # 49     ecut=    50.00 Ry     beta= 0.10
     Davidson diagonalization with overlap
     ethr =  3.07E-06,  avg # of iterations =  1.5

     negative rho (up, down):  6.494E-06 6.365E-06
 
     Adding external electric field

     Computed dipole along edir(3) : 
        Dipole               -0.3284 Ry au,         -0.8346 Debye
        Dipole field         -0.0002 Ry au, 
 
        Potential amp.        0.0222 Ry
        Total length         55.1515 bohr
 
 
     Adding external electric field

     Computed dipole along edir(3) : 
        Dipole               -0.3284 Ry au,         -0.8346 Debye
        Dipole field         -0.0002 Ry au, 
 
        Potential amp.        0.0222 Ry
        Total length         55.1515 bohr
 

     total cpu time spent up to now is      844.3 secs

     total energy              =   -7738.35388381 Ry
     estimated scf accuracy    <       0.03314142 Ry

     total magnetization       =    87.08 Bohr mag/cell
     absolute magnetization    =    88.66 Bohr mag/cell

     iteration # 50     ecut=    50.00 Ry     beta= 0.10
     Davidson diagonalization with overlap
     ethr =  3.03E-06,  avg # of iterations =  1.0

     negative rho (up, down):  8.172E-06 7.390E-06
 
     Adding external electric field

     Computed dipole along edir(3) : 
        Dipole               -0.3501 Ry au,         -0.8898 Debye
        Dipole field         -0.0002 Ry au, 
 
        Potential amp.        0.0236 Ry
        Total length         55.1515 bohr
 
 
     Adding external electric field

     Computed dipole along edir(3) : 
        Dipole               -0.3501 Ry au,         -0.8898 Debye
        Dipole field         -0.0002 Ry au, 
 
        Potential amp.        0.0236 Ry
        Total length         55.1515 bohr
 

     total cpu time spent up to now is      857.8 secs

     total energy              =   -7738.35399928 Ry
     estimated scf accuracy    <       0.03345834 Ry

     total magnetization       =    87.07 Bohr mag/cell
     absolute magnetization    =    88.65 Bohr mag/cell

     iteration # 51     ecut=    50.00 Ry     beta= 0.10
     Davidson diagonalization with overlap
     ethr =  3.03E-06,  avg # of iterations =  1.5

     negative rho (up, down):  8.421E-06 8.177E-06
 
     Adding external electric field

     Computed dipole along edir(3) : 
        Dipole               -0.3622 Ry au,         -0.9206 Debye
        Dipole field         -0.0002 Ry au, 
 
        Potential amp.        0.0245 Ry
        Total length         55.1515 bohr
 
 
     Adding external electric field

     Computed dipole along edir(3) : 
        Dipole               -0.3622 Ry au,         -0.9206 Debye
        Dipole field         -0.0002 Ry au, 
 
        Potential amp.        0.0245 Ry
        Total length         55.1515 bohr
 

     total cpu time spent up to now is      872.0 secs

     total energy              =   -7738.35381987 Ry
     estimated scf accuracy    <       0.03263809 Ry

     total magnetization       =    87.07 Bohr mag/cell
     absolute magnetization    =    88.65 Bohr mag/cell

     iteration # 52     ecut=    50.00 Ry     beta= 0.10
     Davidson diagonalization with overlap
     ethr =  2.99E-06,  avg # of iterations =  1.5

     negative rho (up, down):  1.097E-05 1.557E-05
 
     Adding external electric field

     Computed dipole along edir(3) : 
        Dipole               -0.3413 Ry au,         -0.8675 Debye
        Dipole field         -0.0002 Ry au, 
 
        Potential amp.        0.0230 Ry
        Total length         55.1515 bohr
 
 
     Adding external electric field

     Computed dipole along edir(3) : 
        Dipole               -0.3413 Ry au,         -0.8675 Debye
        Dipole field         -0.0002 Ry au, 
 
        Potential amp.        0.0230 Ry
        Total length         55.1515 bohr
 

     total cpu time spent up to now is      886.2 secs

     total energy              =   -7738.35378226 Ry
     estimated scf accuracy    <       0.03307897 Ry

     total magnetization       =    87.06 Bohr mag/cell
     absolute magnetization    =    88.69 Bohr mag/cell

     iteration # 53     ecut=    50.00 Ry     beta= 0.10
     Davidson diagonalization with overlap
     ethr =  2.99E-06,  avg # of iterations =  1.5

     negative rho (up, down):  8.927E-06 1.105E-05
 
     Adding external electric field

     Computed dipole along edir(3) : 
        Dipole               -0.3442 Ry au,         -0.8749 Debye
        Dipole field         -0.0002 Ry au, 
 
        Potential amp.        0.0232 Ry
        Total length         55.1515 bohr
 
 
     Adding external electric field

     Computed dipole along edir(3) : 
        Dipole               -0.3442 Ry au,         -0.8749 Debye
        Dipole field         -0.0002 Ry au, 
 
        Potential amp.        0.0232 Ry
        Total length         55.1515 bohr
 

     total cpu time spent up to now is      900.6 secs

     total energy              =   -7738.35410106 Ry
     estimated scf accuracy    <       0.03301774 Ry

     total magnetization       =    87.01 Bohr mag/cell
     absolute magnetization    =    88.52 Bohr mag/cell

     iteration # 54     ecut=    50.00 Ry     beta= 0.10
     Davidson diagonalization with overlap
     ethr =  2.99E-06,  avg # of iterations =  1.0

     negative rho (up, down):  9.580E-06 1.519E-05
 
     Adding external electric field

     Computed dipole along edir(3) : 
        Dipole               -0.3570 Ry au,         -0.9075 Debye
        Dipole field         -0.0002 Ry au, 
 
        Potential amp.        0.0241 Ry
        Total length         55.1515 bohr
 
 
     Adding external electric field

     Computed dipole along edir(3) : 
        Dipole               -0.3570 Ry au,         -0.9075 Debye
        Dipole field         -0.0002 Ry au, 
 
        Potential amp.        0.0241 Ry
        Total length         55.1515 bohr
 

     total cpu time spent up to now is      913.2 secs

     total energy              =   -7738.35404490 Ry
     estimated scf accuracy    <       0.03285317 Ry

     total magnetization       =    87.03 Bohr mag/cell
     absolute magnetization    =    88.56 Bohr mag/cell

     iteration # 55     ecut=    50.00 Ry     beta= 0.10
     Davidson diagonalization with overlap
     ethr =  2.99E-06,  avg # of iterations =  1.5

     negative rho (up, down):  6.870E-06 1.186E-05
 
     Adding external electric field

     Computed dipole along edir(3) : 
        Dipole               -0.3242 Ry au,         -0.8241 Debye
        Dipole field         -0.0002 Ry au, 
 
        Potential amp.        0.0219 Ry
        Total length         55.1515 bohr
 
 
     Adding external electric field

     Computed dipole along edir(3) : 
        Dipole               -0.3242 Ry au,         -0.8241 Debye
        Dipole field         -0.0002 Ry au, 
 
        Potential amp.        0.0219 Ry
        Total length         55.1515 bohr
 

     total cpu time spent up to now is      927.2 secs

     total energy              =   -7738.35385722 Ry
     estimated scf accuracy    <       0.03450614 Ry

     total magnetization       =    86.98 Bohr mag/cell
     absolute magnetization    =    88.53 Bohr mag/cell

     iteration # 56     ecut=    50.00 Ry     beta= 0.10
     Davidson diagonalization with overlap
     ethr =  2.99E-06,  avg # of iterations =  1.0

     negative rho (up, down):  5.481E-05 3.841E-05
 
     Adding external electric field

     Computed dipole along edir(3) : 
        Dipole               -0.2528 Ry au,         -0.6425 Debye
        Dipole field         -0.0002 Ry au, 
 
        Potential amp.        0.0171 Ry
        Total length         55.1515 bohr
 
 
     Adding external electric field

     Computed dipole along edir(3) : 
        Dipole               -0.2528 Ry au,         -0.6425 Debye
        Dipole field         -0.0002 Ry au, 
 
        Potential amp.        0.0171 Ry
        Total length         55.1515 bohr
 

     total cpu time spent up to now is      941.0 secs

     total energy              =   -7738.35195885 Ry
     estimated scf accuracy    <       0.03432431 Ry

     total magnetization       =    86.97 Bohr mag/cell
     absolute magnetization    =    88.51 Bohr mag/cell

     iteration # 57     ecut=    50.00 Ry     beta= 0.10
     Davidson diagonalization with overlap
     ethr =  2.99E-06,  avg # of iterations =  1.5

     negative rho (up, down):  6.378E-06 1.159E-05
 
     Adding external electric field

     Computed dipole along edir(3) : 
        Dipole               -0.3372 Ry au,         -0.8571 Debye
        Dipole field         -0.0002 Ry au, 
 
        Potential amp.        0.0228 Ry
        Total length         55.1515 bohr
 
 
     Adding external electric field

     Computed dipole along edir(3) : 
        Dipole               -0.3372 Ry au,         -0.8571 Debye
        Dipole field         -0.0002 Ry au, 
 
        Potential amp.        0.0228 Ry
        Total length         55.1515 bohr
 

     total cpu time spent up to now is      955.8 secs

     total energy              =   -7738.35337884 Ry
     estimated scf accuracy    <       0.03801899 Ry

     total magnetization       =    87.01 Bohr mag/cell
     absolute magnetization    =    88.43 Bohr mag/cell

     iteration # 58     ecut=    50.00 Ry     beta= 0.10
     Davidson diagonalization with overlap
     ethr =  2.99E-06,  avg # of iterations =  1.0

     negative rho (up, down):  1.684E-05 1.613E-05
 
     Adding external electric field

     Computed dipole along edir(3) : 
        Dipole               -0.3256 Ry au,         -0.8277 Debye
        Dipole field         -0.0002 Ry au, 
 
        Potential amp.        0.0220 Ry
        Total length         55.1515 bohr
 
 
[...]
    -5.9693  -5.9458  -5.9235  -5.9191  -5.9037  -5.8801  -5.8762  -5.8456
    -5.8171  -5.8139  -5.7972  -5.7718  -5.7475  -5.7404  -5.7022  -5.6965
    -5.6888  -5.6556  -5.6136  -5.5900  -5.5808  -5.5459  -5.5286  -5.5087
    -5.4993  -5.4915  -5.4719  -5.4621  -5.4247  -5.4155  -5.3939  -5.3700
    -5.3017  -5.2399  -5.2311  -5.2070  -5.1957  -5.1837  -5.1511  -5.1062
    -5.0416  -5.0315  -5.0055  -4.9667  -4.9558  -4.9393  -4.9214  -4.8678
    -4.8234  -4.7718  -4.7657  -4.7562  -4.7468  -4.7055  -4.6740  -4.6646
    -4.5788  -4.5437  -4.4989  -4.4899  -4.4332  -4.4253  -4.3985  -4.3775
    -4.3681  -4.3413  -4.2248  -4.2158  -4.1898  -4.1657  -4.1377  -4.1102
    -4.0987  -4.0912  -4.0714  -3.9990  -3.9739  -3.9515  -3.9314  -3.9163
    -3.8686  -3.8310  -3.8257  -3.8016  -3.7954  -3.7677  -3.7358  -3.6983
    -3.6770  -3.6438  -3.6227  -3.6148  -3.6114  -3.5901  -3.5900  -3.5709
    -3.5392  -3.5208  -3.5100  -3.4876  -3.4832  -3.4659  -3.4541  -3.4231
    -3.4041  -3.3962  -3.3813  -3.3638  -3.3405  -3.3056  -3.2890  -3.2646
    -3.2379  -3.2368  -3.2174  -3.2069  -3.1948  -3.1478  -3.1275  -3.1009
    -3.0535  -3.0497  -3.0413  -3.0328  -3.0313  -3.0241  -3.0163  -2.9750
    -2.9447  -2.9387  -2.9293  -2.8807  -2.8700  -2.8662  -2.8121  -2.7956
    -2.7703  -2.7680  -2.7588  -2.7555  -2.7355  -2.7306  -2.7102  -2.7044
    -2.6891  -2.6664  -2.6585  -2.6296  -2.6256  -2.6117  -2.6055  -2.5972
    -2.5940  -2.5756  -2.5589  -2.5405  -2.5261  -2.5208  -2.4798  -2.4730
    -2.4518  -2.4423  -2.4209  -2.3938  -2.3602  -2.3535  -2.3331  -2.3007
    -2.2796  -2.2697  -2.2499  -2.2203  -2.2041  -2.1811  -2.1648  -2.1360
    -2.1277  -2.1199  -2.1122  -2.1033  -2.0759  -2.0646  -2.0235  -1.9946
    -1.9768  -1.9631  -1.9503  -1.9318  -1.9165  -1.9100  -1.8932  -1.8638
    -1.8538  -1.8374  -1.8171  -1.8092  -1.8027  -1.7876  -1.7725  -1.7655
    -1.7465  -1.7196  -1.7022  -1.6419  -1.6384  -1.6304  -1.5799  -1.5674
    -1.5626  -1.5327  -1.5112  -1.5004  -1.4902  -1.4821  -1.4493  -1.4347
    -1.4200  -1.4085  -1.3984  -1.3806  -1.3545  -1.3357  -1.3239  -1.3159
    -1.2728  -1.2613  -1.2420  -1.2107  -1.1885  -1.1523  -1.1202  -1.0787
    -1.0111  -0.9066  -0.8889  -0.8699  -0.8490  -0.7233  -0.7155  -0.5329
    -0.4805  -0.3166  -0.2701  -0.1380   0.1808   0.2117   0.2290   0.2456
     0.2515   0.2675   0.2942   0.3065   0.3285   0.3316   0.3515   0.3629
     0.3687   0.3745   0.3910   0.4047   0.4141   0.4155   0.4180   0.4239
     0.4285   0.4320   0.4478   0.4549   0.4576   0.4632   0.4759   0.4908
     0.4938   0.5018   0.5062   0.5140   0.5228   0.5338   0.5340   0.5409
     0.5613   0.5675   0.5760   0.5766   0.5835   0.5963   0.5990   0.6133
     0.6229   0.6245   0.6412   0.6434   0.6476   0.6515   0.6751   0.6788
     0.6824   0.6908   0.6964   0.7062   0.7121   0.7324   0.7370   0.7493
     0.7570   0.7606   0.7624   0.7729   0.7940   0.7969   0.8050   0.8104
     0.8192   0.8209   0.8297   0.8398   0.8514   0.8592   0.8695   0.8696
     0.8796   0.8916   0.9268   0.9375   0.9524   0.9545   0.9583   0.9841
     0.9994   1.0126   1.0979   1.1002   1.1988   1.2210   1.7475   1.7524
     1.7594   1.7724   1.7791   1.7875   1.8054   1.8199   1.8257   1.9045
     1.9201   1.9359   1.9657   1.9829   2.0237   2.0307   2.0454   2.1017
     2.1212   2.1342   2.1466   2.1482   2.1888   2.1943   2.2192   2.2303
     2.2447   2.2574   2.2852   2.2925   2.3031   2.3412   2.3551   2.3619
     2.3743   2.3890   2.3966   2.4157   2.4314   2.4482   2.4562   2.4766
     2.4867   2.5063   2.5087   2.5274   2.5358   2.5562   2.5872   2.6116
     2.6214   2.6354   2.6388   2.6951   2.7761   2.7942   2.8420   2.8618
     2.8901   2.9090   3.3066   3.5096   3.6352   3.6967   3.7673   3.8590
     3.9050   3.9278   3.9303   3.9568   3.9994   4.0685   4.0766   4.0887
     4.1113   4.1422   4.1501   4.1675   4.1841   4.4099   4.4910   4.6387
     4.8320   4.8803   4.9127   4.9365   4.9679   5.0314   5.0480   5.1049
     5.1263   5.1650   5.3939   6.2677   6.3596   6.4964   6.6010   6.6834
     6.7525   6.8327   6.8563   6.9072   6.9609   7.0449   7.0901   7.1819
     7.2438   7.3233   7.3528   7.3984   7.4707   7.5204   7.6168   7.6632
     7.6934   7.7023   7.7424   7.7759   7.8520   7.8616   7.8985   7.9473
     7.9846   8.0079   8.0566   8.0792   8.1161   8.1733   8.2036   8.2195
     8.2219   8.2751   8.3135   8.3338   8.3878   8.4113   8.4229   8.4403
     8.4520   8.4757   8.5070   8.5186   8.5434   8.5663   8.6071   8.6289
     8.6583   8.6911   8.6978   8.7286   8.7482   8.7862   8.8265   8.8704

     the Fermi energy is     1.6612 ev

!    total energy              =   -7738.34983492 Ry
     estimated scf accuracy    <       0.00000082 Ry
     smearing contrib. (-TS)   =      -0.02172281 Ry
     internal energy E=F+TS    =   -7738.32811211 Ry

     The total energy is F=E-TS. E is the sum of the following terms:
     one-electron contribution =  -95225.74481093 Ry
     hartree contribution      =   48228.99375945 Ry
     xc contribution           =   -2218.73644037 Ry
     ewald contribution        =   41478.96916608 Ry
     Dispersion Correction     =      -1.80988808 Ry
     electric field correction =       0.00010174 Ry

     total magnetization       =    86.98 Bohr mag/cell
     absolute magnetization    =    88.48 Bohr mag/cell

     convergence has been achieved in 109 iterations

     negative rho (up, down):  1.049E-03 5.971E-04

     Forces acting on atoms (cartesian axes, Ry/au):

     atom    1 type  1   force =     0.02521633   -0.03092641    0.01825977
     atom    2 type  2   force =    -0.01382229   -0.00152192   -0.01017520
     atom    3 type  1   force =    -0.02320963   -0.01856131    0.01964958
     atom    4 type  1   force =     0.00574956    0.00409375   -0.00654146
     atom    5 type  1   force =    -0.00192732    0.00118655   -0.00541086
     atom    6 type  1   force =     0.00211894    0.00771455   -0.00919714
     atom    7 type  3   force =    -0.00770507    0.00119571   -0.01043776
     atom    8 type  3   force =    -0.03500984    0.05414721   -0.08327813
     atom    9 type  3   force =     0.03413931    0.03816952   -0.06429039
     atom   10 type  3   force =    -0.00303827   -0.00245834   -0.01165017
     atom   11 type  4   force =     0.00669775    0.00556692    0.01394232
     atom   12 type  4   force =    -0.00025326   -0.00295742    0.01476866
     atom   13 type  4   force =     0.00194005    0.00168315    0.01734812
     atom   14 type  4   force =    -0.00050942   -0.00128042    0.01275561
     atom   15 type  4   force =    -0.00069267    0.00455002   -0.00194527
     atom   16 type  4   force =    -0.00041427    0.00261344    0.04037473
     atom   17 type  4   force =     0.00169329    0.00807128    0.03789163
     atom   18 type  4   force =     0.00799400   -0.00450954   -0.00043751
     atom   19 type  4   force =     0.00045293    0.01187873    0.00426632
     atom   20 type  4   force =    -0.00968465   -0.02671723   -0.00367453
     atom   21 type  4   force =    -0.01112086   -0.00044466    0.00064753
     atom   22 type  4   force =    -0.03201641    0.00311152    0.00787061
     atom   23 type  4   force =     0.03201421    0.00058298    0.01409878
     atom   24 type  4   force =     0.00704825   -0.03691667    0.00379951
     atom   25 type  4   force =    -0.00313428    0.00171912    0.00393879
     atom   26 type  4   force =     0.01781153   -0.00685174    0.00077558
     atom   27 type  1   force =    -0.00523986   -0.00866244    0.00269668
     atom   28 type  2   force =    -0.01351633    0.00022994    0.00443233
     atom   29 type  1   force =     0.00300767   -0.00518610   -0.00148223
     atom   30 type  1   force =     0.00257823    0.00373332   -0.00152057
     atom   31 type  1   force =     0.00139371   -0.00472422    0.00008522
     atom   32 type  1   force =    -0.00095673    0.00132604   -0.00169964
     atom   33 type  3   force =    -0.00689485   -0.00334613   -0.00082542
     atom   34 type  3   force =    -0.00810560    0.00270839   -0.00020798
     atom   35 type  3   force =     0.00442133   -0.00069326    0.00267718
     atom   36 type  3   force =     0.00062242    0.00040445   -0.00504244
     atom   37 type  4   force =     0.00876337    0.00548915    0.00716171
     atom   38 type  4   force =     0.00379023   -0.00086799   -0.01933212
     atom   39 type  4   force =    -0.00147224    0.00370075   -0.00970399
     atom   40 type  4   force =    -0.00129127   -0.00272820    0.00946215
     atom   41 type  4   force =    -0.00304150    0.00409493   -0.00702375
     atom   42 type  4   force =    -0.00426033   -0.00451646    0.01782099
     atom   43 type  4   force =     0.00770451    0.00338817    0.00773561
     atom   44 type  4   force =     0.01038899   -0.00564523   -0.00581689
     atom   45 type  4   force =     0.00317725    0.00375528   -0.00014740
     atom   46 type  4   force =     0.00243898   -0.00009828   -0.00557640
     atom   47 type  4   force =    -0.01288629   -0.00076721   -0.00332472
     atom   48 type  4   force =    -0.01472218    0.00126900    0.00339489
     atom   49 type  4   force =     0.01360583    0.00250411    0.00432154
     atom   50 type  4   force =    -0.00273433   -0.00508009   -0.00047839
     atom   51 type  4   force =    -0.00565012    0.00217588    0.00003386
     atom   52 type  4   force =     0.01579535   -0.00356093   -0.00451835
     atom   53 type  1   force =     0.00024319    0.00002043    0.00037015
     atom   54 type  2   force =    -0.00080572   -0.00019015    0.00056737
     atom   55 type  1   force =    -0.00021921   -0.00000786    0.00015787
     atom   56 type  1   force =    -0.00023275    0.00013608   -0.00018878
     atom   57 type  1   force =     0.00025606   -0.00049579    0.00085487
     atom   58 type  1   force =    -0.00011110    0.00014797    0.00075566
     atom   59 type  3   force =     0.00002134   -0.00011415    0.00008490
     atom   60 type  3   force =     0.00021686   -0.00019272    0.00015791
     atom   61 type  3   force =     0.00001481    0.00011866    0.00011455
     atom   62 type  3   force =     0.00016841   -0.00030683    0.00017043
     atom   63 type  4   force =    -0.00000368    0.00027089   -0.00012003
     atom   64 type  4   force =     0.00004182    0.00013257    0.00003805
     atom   65 type  4   force =     0.00008722   -0.00007686    0.00046438
     atom   66 type  4   force =     0.00014887   -0.00010040   -0.00013421
     atom   67 type  4   force =     0.00041456    0.00012647    0.00015902
     atom   68 type  4   force =    -0.00010836    0.00026078    0.00034742
     atom   69 type  4   force =     0.00002763   -0.00044685   -0.00008201
     atom   70 type  4   force =     0.00012769   -0.00014129    0.00023253
     atom   71 type  4   force =     0.00025829   -0.00029551    0.00000919
     atom   72 type  4   force =     0.00042103   -0.00040622    0.00012314
     atom   73 type  4   force =     0.00015422   -0.00063350   -0.00011096
     atom   74 type  4   force =     0.00009808   -0.00018334   -0.00007291
     atom   75 type  4   force =     0.00019145   -0.00016230   -0.00032357
     atom   76 type  4   force =     0.00039011   -0.00034943   -0.00027161
     atom   77 type  4   force =    -0.00045726   -0.00013103    0.00025094
     atom   78 type  4   force =     0.00004736    0.00003252   -0.00009010
     atom   79 type  1   force =     0.02515370   -0.03090990    0.01826327
     atom   80 type  2   force =    -0.01368774   -0.00147115   -0.01021229
     atom   81 type  1   force =    -0.02321144   -0.01856182    0.01965584
     atom   82 type  1   force =     0.00572098    0.00409425   -0.00654564
     atom   83 type  1   force =    -0.00190789    0.00122209   -0.00543067
     atom   84 type  1   force =     0.00205056    0.00769548   -0.00917559
     atom   85 type  3   force =    -0.00768409    0.00123243   -0.01049600
     atom   86 type  3   force =    -0.03501038    0.05414851   -0.08328351
     atom   87 type  3   force =     0.03414575    0.03817023   -0.06429216
     atom   88 type  3   force =    -0.00305451   -0.00246309   -0.01165563
     atom   89 type  4   force =     0.00683428    0.00558922    0.01395301
     atom   90 type  4   force =    -0.00016020   -0.00286751    0.01477026
     atom   91 type  4   force =     0.00202789    0.00167843    0.01732511
     atom   92 type  4   force =    -0.00035036   -0.00127211    0.01276283
     atom   93 type  4   force =    -0.00068578    0.00475563   -0.00179919
     atom   94 type  4   force =    -0.00047300    0.00256584    0.04016731
     atom   95 type  4   force =     0.00182305    0.00807230    0.03789058
     atom   96 type  4   force =     0.00779160   -0.00452345   -0.00044846
     atom   97 type  4   force =     0.00055664    0.01195843    0.00415667
     atom   98 type  4   force =    -0.00957965   -0.02655618   -0.00364483
     atom   99 type  4   force =    -0.01114939   -0.00040731    0.00084699
     atom  100 type  4   force =    -0.03204593    0.00300506    0.00774793
     atom  101 type  4   force =     0.03203309    0.00058830    0.01410568
     atom  102 type  4   force =     0.00686693   -0.03692561    0.00379992
     atom  103 type  4   force =    -0.00304338    0.00164920    0.00391933
     atom  104 type  4   force =     0.01790650   -0.00685389    0.00078805
     atom  105 type  1   force =    -0.00517345   -0.00873264    0.00272434
     atom  106 type  2   force =    -0.01323159   -0.00022052    0.00443435
     atom  107 type  1   force =     0.00297072   -0.00516786   -0.00151805
     atom  108 type  1   force =     0.00257778    0.00450727   -0.00210960
     atom  109 type  1   force =     0.00154054   -0.00474206    0.00018473
     atom  110 type  1   force =    -0.00071726    0.00131257   -0.00173406
     atom  111 type  3   force =    -0.00663715   -0.00308702   -0.00163013
     atom  112 type  3   force =    -0.00786277    0.00257481   -0.00003071
     atom  113 type  3   force =     0.00443280   -0.00060552    0.00267272
     atom  114 type  3   force =     0.00061160   -0.00037885   -0.00554175
     atom  115 type  4   force =     0.00849694    0.00514817    0.00708324
     atom  116 type  4   force =     0.00374232   -0.00083934   -0.01933023
     atom  117 type  4   force =    -0.00137020    0.00370375   -0.00974152
     atom  118 type  4   force =    -0.00143700   -0.00276592    0.00958414
     atom  119 type  4   force =    -0.00218014    0.00510803   -0.00741933
     atom  120 type  4   force =    -0.00438850   -0.00443977    0.01787572
     atom  121 type  4   force =     0.00772427    0.00335690    0.00777990
     atom  122 type  4   force =     0.01027020   -0.00573810   -0.00647237
     atom  123 type  4   force =     0.00265457    0.00405500    0.00067761
     atom  124 type  4   force =     0.00226253   -0.00019678   -0.00560845
     atom  125 type  4   force =    -0.01279713   -0.00071883   -0.00339108
     atom  126 type  4   force =    -0.01477840    0.00125039    0.00341827
     atom  127 type  4   force =     0.01373077    0.00245032    0.00452939
     atom  128 type  4   force =    -0.00291417   -0.00507457   -0.00051395
     atom  129 type  4   force =    -0.00539384    0.00207161    0.00029673
     atom  130 type  4   force =     0.01565676   -0.00347936   -0.00461140
     atom  131 type  1   force =     0.00027142    0.00056207    0.00081332
     atom  132 type  2   force =     0.00019716   -0.00027351    0.00037418
     atom  133 type  1   force =    -0.00005353    0.00028290    0.00016044
     atom  134 type  1   force =    -0.00012817    0.00018125    0.00060440
     atom  135 type  1   force =     0.00022773   -0.00024105    0.00072988
     atom  136 type  1   force =    -0.00047757   -0.00005168    0.00058162
     atom  137 type  3   force =    -0.00017132    0.00023884   -0.00057735
     atom  138 type  3   force =     0.00005404   -0.00011399   -0.00012535
     atom  139 type  3   force =     0.00021613   -0.00014336    0.00014639
     atom  140 type  3   force =     0.00025781   -0.00010967    0.00016645
     atom  141 type  4   force =    -0.00025863   -0.00019286   -0.00000188
     atom  142 type  4   force =    -0.00005982   -0.00015249   -0.00001502
     atom  143 type  4   force =     0.00054298   -0.00007915    0.00011253
     atom  144 type  4   force =    -0.00012066    0.00018556   -0.00020688
     atom  145 type  4   force =     0.00090088    0.00009613    0.00066813
     atom  146 type  4   force =     0.00000358    0.00029903    0.00020969
     atom  147 type  4   force =     0.00045688   -0.00002277   -0.00070814
     atom  148 type  4   force =     0.00032181    0.00032554    0.00047613
     atom  149 type  4   force =     0.00006105   -0.00031268    0.00038615
     atom  150 type  4   force =     0.00000707    0.00016007    0.00007558
     atom  151 type  4   force =     0.00019382   -0.00039331   -0.00002983
     atom  152 type  4   force =     0.00008403   -0.00043281   -0.00017758
     atom  153 type  4   force =     0.00034136    0.00028440    0.00038406
     atom  154 type  4   force =    -0.00007395   -0.00053728    0.00024613
     atom  155 type  4   force =    -0.00010835   -0.00053949    0.00056186
     atom  156 type  4   force =     0.00000971   -0.00073673   -0.00040468
     atom  157 type  4   force =    -0.00739701    0.00429587    0.00151423
     atom  158 type  5   force =     0.00739906   -0.00459770   -0.00067702

     Total force =     0.263016     Total SCF correction =     0.004517
 
     init_run     :      9.75s CPU     10.51s WALL (       1 calls)
     electrons    :   1670.11s CPU   1758.01s WALL (       1 calls)
     forces       :      4.45s CPU      4.89s WALL (       1 calls)
     force_london :      0.14s CPU      0.14s WALL (       1 calls)

     Called by init_run:
     wfcinit      :      5.84s CPU      6.03s WALL (       1 calls)
     potinit      :      0.54s CPU      0.71s WALL (       1 calls)
     hinit0       :      1.58s CPU      1.72s WALL (       1 calls)

     Called by electrons:
     c_bands      :   1308.32s CPU   1354.74s WALL (     109 calls)
     sum_band     :    227.93s CPU    249.92s WALL (     109 calls)
     v_of_rho     :     29.24s CPU     30.76s WALL (     110 calls)
     newd         :     65.94s CPU     83.67s WALL (     110 calls)
     mix_rho      :     36.82s CPU     37.06s WALL (     109 calls)
     energy_londo :      0.11s CPU      0.11s WALL (       1 calls)

     Called by c_bands:
     init_us_2    :      3.87s CPU      4.00s WALL (     440 calls)
     init_us_2:cp :      3.87s CPU      4.00s WALL (     440 calls)
     regterg      :   1278.55s CPU   1324.44s WALL (     220 calls)

     Called by *egterg:
     rdiaghg      :    361.00s CPU    380.94s WALL (     842 calls)
     h_psi        :    520.43s CPU    530.77s WALL (     844 calls)
     s_psi        :     94.37s CPU     94.47s WALL (     844 calls)
     g_psi        :      0.70s CPU      0.72s WALL (     622 calls)

     Called by h_psi:
     h_psi:calbec :    126.70s CPU    134.75s WALL (     844 calls)
     vloc_psi     :    298.32s CPU    299.48s WALL (     844 calls)
     add_vuspsi   :     94.17s CPU     95.27s WALL (     844 calls)

     General routines
     calbec       :    186.42s CPU    198.45s WALL (    1070 calls)
     fft          :     27.61s CPU     29.74s WALL (    1993 calls)
     ffts         :     21.78s CPU     21.86s WALL (   13613 calls)
     fftw         :    334.28s CPU    335.52s WALL (  367572 calls)
     interpolate  :      2.10s CPU      2.34s WALL (     220 calls)
 
     Parallel routines
 
     PWSCF        :  28m 6.49s CPU  29m35.92s WALL

 
   This run was terminated on:   1:21:13  18Nov2025            

=------------------------------------------------------------------------------=
   JOB DONE.
=------------------------------------------------------------------------------=
