
     Program PWSCF v.7.2 starts on 17Nov2025 at 20:59:23 

     This program is part of the open-source Quantum ESPRESSO suite
     for quantum simulation of materials; please cite
         "P. Giannozzi et al., J. Phys.:Condens. Matter 21 395502 (2009);
         "P. Giannozzi et al., J. Phys.:Condens. Matter 29 465901 (2017);
         "P. Giannozzi et al., J. Chem. Phys. 152 154105 (2020);
          URL http://www.quantum-espresso.org", 
     in publications or presentations arising from this work. More details at
     http://www.quantum-espresso.org/quote

     Parallel version (MPI), running on    64 processors

     MPI processes distributed on     4 nodes
     370127 MiB available memory on the printing compute node when the environment starts
 
     Reading input from PWINPUT_atm157_xp

     Current dimensions of program PWSCF are:
     Max number of different atomic species (ntypx) = 10
     Max number of k-points (npk) =  40000
     Max angular momentum in pseudopotentials (lmaxx) =  4
     Presently no symmetry can be used with electric field

     file Ni.pbe-n-rrkjus_psl.1.0.0.UPF: wavefunction(s)  3D renormalized
     file Mn.pbe-spn-rrkjus_psl.0.3.1.UPF: wavefunction(s)  3D renormalized
     file O.pbe-rrkjus.UPF: wavefunction(s)  2S renormalized
     file H.pbe-rrkjus.UPF: wavefunction(s)  1S renormalized

     gamma-point specific algorithms are used
 
     R & G space division:  proc/nbgrp/npool/nimage =      64
     Subspace diagonalization in iterative solution of the eigenvalue problem:
     one sub-group per band group will be used
     custom distributed-memory algorithm (size of sub-group:  7*  7 procs)

 
     Parallelization info
     --------------------
     sticks:   dense  smooth     PW     G-vecs:    dense   smooth      PW
     Min         207      82     20                60552    15302    1896
     Max         210      84     22                60574    15336    1950
     Sum       13325    5345   1333              3876045   980655  122653
 
     Using Slab Decomposition
 


     bravais-lattice index     =            0
     lattice parameter (alat)  =      17.4067  a.u.
     unit-cell volume          =   20529.8182 (a.u.)^3
     number of atoms/cell      =          158
     number of atomic types    =            5
     number of electrons       =      1093.00
     number of Kohn-Sham states=          656
     kinetic-energy cutoff     =      50.0000  Ry
     charge density cutoff     =     500.0000  Ry
     scf convergence threshold =      1.0E-06
     mixing beta               =       0.1000
     number of iterations used =            8  local-TF  mixing
     Exchange-correlation=  SLA  PW   PBE  PBE
                           (   1   4   3   4   0   0   0)

     celldm(1)=  17.406729  celldm(2)=   0.000000  celldm(3)=   0.000000
     celldm(4)=   0.000000  celldm(5)=   0.000000  celldm(6)=   0.000000

     crystal axes: (cart. coord. in units of alat)
               a(1) = (   1.000000   0.000000   0.000000 )  
               a(2) = (  -0.001404   1.105696   0.000000 )  
               a(3) = (   0.000000   0.000000   3.520448 )  

     reciprocal axes: (cart. coord. in units 2 pi/alat)
               b(1) = (  1.000000  0.001270  0.000000 )  
               b(2) = (  0.000000  0.904408  0.000000 )  
               b(3) = (  0.000000  0.000000  0.284055 )  


     PseudoPot. # 1 for Ni read from file:
     ~/PSEUDO/Ni.pbe-n-rrkjus_psl.1.0.0.UPF
     MD5 check sum: Not computed, couldn't open file
     Pseudo is Ultrasoft + core correction, Zval = 10.0
     Generated using "atomic" code by A. Dal Corso  v.5.1.2
     Using radial grid of 1195 points,  6 beta functions with: 
                l(1) =   0
                l(2) =   0
                l(3) =   1
                l(4) =   1
                l(5) =   2
                l(6) =   2
     Q(r) pseudized with 0 coefficients 


     PseudoPot. # 2 for Mn read from file:
     ~/PSEUDO/Mn.pbe-spn-rrkjus_psl.0.3.1.UPF
     MD5 check sum: Not computed, couldn't open file
     Pseudo is Ultrasoft + core correction, Zval = 15.0
     Generated using &quot;atomic&quot; code by A. Dal Corso  v.6.2.2
     Using radial grid of 1187 points,  6 beta functions with: 
                l(1) =   0
                l(2) =   0
                l(3) =   1
                l(4) =   1
                l(5) =   2
                l(6) =   2
     Q(r) pseudized with 0 coefficients 


     PseudoPot. # 3 for P  read from file:
     ~/PSEUDO/P.pbe-n-rrkjus_psl.1.0.0.UPF
     MD5 check sum: Not computed, couldn't open file
     Pseudo is Ultrasoft + core correction, Zval =  5.0
     Generated using "atomic" code by A. Dal Corso  v.5.1
     Using radial grid of 1147 points,  6 beta functions with: 
                l(1) =   0
                l(2) =   0
                l(3) =   1
                l(4) =   1
                l(5) =   2
                l(6) =   2
     Q(r) pseudized with 0 coefficients 


     PseudoPot. # 4 for O  read from file:
     ~/PSEUDO/O.pbe-rrkjus.UPF
     MD5 check sum: Not computed, couldn't open file
     Pseudo is Ultrasoft, Zval =  6.0
     Generated by new atomic code, or converted to UPF format
     Using radial grid of 1269 points,  4 beta functions with: 
                l(1) =   0
                l(2) =   0
                l(3) =   1
                l(4) =   1
     Q(r) pseudized with 0 coefficients 


     PseudoPot. # 5 for H  read from file:
     ~/PSEUDO/H.pbe-rrkjus.UPF
     MD5 check sum: Not computed, couldn't open file
     Pseudo is Ultrasoft, Zval =  1.0
     Generated by new atomic code, or converted to UPF format
     Using radial grid of 1061 points,  2 beta functions with: 
                l(1) =   0
                l(2) =   0
     Q(r) pseudized with 0 coefficients 


     atomic species   valence    mass     pseudopotential
     Ni               10.00    58.69300     Ni( 1.00)
     Mn               15.00    54.93800     Mn( 1.00)
     P                 5.00    30.97300     P ( 1.00)
     O                 6.00    15.99900     O ( 1.00)
     H                 1.00     1.00790     H ( 1.00)

     Starting magnetic structure 
     atomic species   magnetization
     Ni              1.000
     Mn              1.000
     P               1.000
     O               1.000
     H               0.000

     No symmetry found



   Cartesian axes

     site n.     atom                  positions (alat units)
         1        Ni     tau(   1) = (   0.2421002   0.8609138   0.1302181  )
         2        Mn     tau(   2) = (   0.4924481   0.7886602   0.4655392  )
         3        Ni     tau(   3) = (   0.0052341   0.3031820   0.1284544  )
         4        Ni     tau(   4) = (   0.2570603   0.2374878   0.4617901  )
         5        Ni     tau(   5) = (   0.4976584   1.1048203   0.2964410  )
         6        Ni     tau(   6) = (   0.2495781   0.5440308   0.2953805  )
         7        P      tau(   7) = (   0.2083492   0.9982113   0.4588145  )
         8        P      tau(   8) = (   0.4584476   0.6559264   0.1347090  )
         9        P      tau(   9) = (   0.2889394   0.1031966   0.1319347  )
        10        P      tau(  10) = (   0.0400379   0.4338094   0.4586283  )
        11        O      tau(  11) = (   0.1314218   0.9248062   0.3189972  )
        12        O      tau(  12) = (   0.3797244   0.7272031   0.2742874  )
        13        O      tau(  13) = (   0.3662315   0.1762062   0.2720888  )
        14        O      tau(  14) = (   0.1171240   0.3646150   0.3169340  )
        15        O      tau(  15) = (   0.1510364   0.9068326   0.5881934  )
        16        O      tau(  16) = (   0.3981989   0.7453439   0.0053495  )
        17        O      tau(  17) = (   0.3490561   0.1888693   0.0010856  )
        18        O      tau(  18) = (   0.0982395   0.3475583   0.5894443  )
        19        O      tau(  19) = (   0.0992163   0.5918099   0.4542505  )
        20        O      tau(  20) = (   0.3467441   1.0504690   0.1405000  )
        21        O      tau(  21) = (   0.3739183   0.4303319   0.4477971  )
        22        O      tau(  22) = (   0.1230967   0.1088895   0.1422960  )
        23        O      tau(  23) = (   0.1242901   0.6635968   0.1442928  )
        24        O      tau(  24) = (   0.4011802   0.4971632   0.1376281  )
        25        O      tau(  25) = (   0.1484006   0.0497464   0.4550965  )
        26        O      tau(  26) = (   0.3736100   0.9942556   0.4492158  )
        27        Ni     tau(  27) = (   0.2413539   0.8509941   0.7820408  )
        28        Mn     tau(  28) = (   0.4917018   0.7787406   1.1173619  )
        29        Ni     tau(  29) = (   0.0044877   0.2932623   0.7802771  )
        30        Ni     tau(  30) = (   0.2563139   0.2275682   1.1136128  )
        31        Ni     tau(  31) = (   0.4969120   1.0949007   0.9482637  )
        32        Ni     tau(  32) = (   0.2488318   0.5341111   0.9472032  )
        33        P      tau(  33) = (   0.2076029   0.9882917   1.1106372  )
        34        P      tau(  34) = (   0.4577012   0.6460068   0.7865316  )
        35        P      tau(  35) = (   0.2881931   0.0932770   0.7837574  )
        36        P      tau(  36) = (   0.0392916   0.4238898   1.1104509  )
        37        O      tau(  37) = (   0.1306755   0.9148866   0.9708199  )
        38        O      tau(  38) = (   0.3789780   0.7172835   0.9261101  )
        39        O      tau(  39) = (   0.3654852   0.1662865   0.9239115  )
        40        O      tau(  40) = (   0.1163776   0.3546954   0.9687567  )
        41        O      tau(  41) = (   0.1502901   0.8969129   1.2400160  )
        42        O      tau(  42) = (   0.3974525   0.7354243   0.6571722  )
        43        O      tau(  43) = (   0.3483097   0.1789497   0.6529083  )
        44        O      tau(  44) = (   0.0974932   0.3376387   1.2412670  )
        45        O      tau(  45) = (   0.0984699   0.5818903   1.1060732  )
        46        O      tau(  46) = (   0.3459978   1.0405493   0.7923226  )
        47        O      tau(  47) = (   0.3731719   0.4204123   1.0996198  )
        48        O      tau(  48) = (   0.1223503   0.0989699   0.7941187  )
        49        O      tau(  49) = (   0.1235438   0.6536772   0.7961155  )
        50        O      tau(  50) = (   0.4004339   0.4872435   0.7894508  )
        51        O      tau(  51) = (   0.1476543   0.0398268   1.1069192  )
        52        O      tau(  52) = (   0.3728637   0.9843360   1.1010385  )
        53        Ni     tau(  53) = (   0.2370412   0.8309538   1.4331176  )
        54        Mn     tau(  54) = (   0.4926631   0.7628968   1.7632485  )
        55        Ni     tau(  55) = (   0.0034911   0.2761505   1.4288190  )
        56        Ni     tau(  56) = (   0.2447240   0.2143424   1.7402852  )
        57        Ni     tau(  57) = (   0.4995763   1.0749455   1.5940578  )
        58        Ni     tau(  58) = (   0.2416135   0.5184975   1.5926664  )
        59        P      tau(  59) = (   0.2112504   0.9662532   1.7634059  )
        60        P      tau(  60) = (   0.4542182   0.6277361   1.4346135  )
        61        P      tau(  61) = (   0.2883980   0.0741680   1.4295170  )
        62        P      tau(  62) = (   0.0313409   0.4059310   1.7580048  )
        63        O      tau(  63) = (   0.1301929   0.8896257   1.6241257  )
        64        O      tau(  64) = (   0.3764588   0.7005702   1.5725819  )
        65        O      tau(  65) = (   0.3665257   0.1482364   1.5677237  )
        66        O      tau(  66) = (   0.1091997   0.3432023   1.6091719  )
        67        O      tau(  67) = (   0.1578284   0.8739230   1.8896615  )
        68        O      tau(  68) = (   0.3933424   0.7186889   1.3072492  )
        69        O      tau(  69) = (   0.3501246   0.1627399   1.3008447  )
        70        O      tau(  70) = (   0.0912886   0.3068810   1.8752755  )
        71        O      tau(  71) = (   0.0914117   0.5660224   1.7516325  )
        72        O      tau(  72) = (   0.3458000   1.0214174   1.4372269  )
        73        O      tau(  73) = (   0.3623972   0.4009134   1.7433105  )
        74        O      tau(  74) = (   0.1220058   0.0808885   1.4419267  )
        75        O      tau(  75) = (   0.1203913   0.6366918   1.4432295  )
        76        O      tau(  76) = (   0.3954417   0.4696211   1.4353043  )
        77        O      tau(  77) = (   0.1540582   0.0191928   1.7538461  )
        78        O      tau(  78) = (   0.3779668   0.9615796   1.7458500  )
        79        Ni     tau(  79) = (   0.7421002   0.8609138   0.1302181  )
        80        Mn     tau(  80) = (   0.9924481   0.7886602   0.4655392  )
        81        Ni     tau(  81) = (   0.5052341   0.3031820   0.1284544  )
        82        Ni     tau(  82) = (   0.7570603   0.2374878   0.4617901  )
        83        Ni     tau(  83) = (   0.9976584   1.1048203   0.2964410  )
        84        Ni     tau(  84) = (   0.7495781   0.5440308   0.2953805  )
        85        P      tau(  85) = (   0.7083492   0.9982113   0.4588145  )
        86        P      tau(  86) = (   0.9584476   0.6559264   0.1347090  )
        87        P      tau(  87) = (   0.7889394   0.1031966   0.1319347  )
        88        P      tau(  88) = (   0.5400379   0.4338094   0.4586283  )
        89        O      tau(  89) = (   0.6314218   0.9248062   0.3189972  )
        90        O      tau(  90) = (   0.8797244   0.7272031   0.2742874  )
        91        O      tau(  91) = (   0.8662315   0.1762062   0.2720888  )
        92        O      tau(  92) = (   0.6171240   0.3646150   0.3169340  )
        93        O      tau(  93) = (   0.6510364   0.9068326   0.5881934  )
        94        O      tau(  94) = (   0.8981989   0.7453439   0.0053495  )
        95        O      tau(  95) = (   0.8490561   0.1888693   0.0010856  )
        96        O      tau(  96) = (   0.5982395   0.3475583   0.5894443  )
        97        O      tau(  97) = (   0.5992163   0.5918099   0.4542505  )
        98        O      tau(  98) = (   0.8467441   1.0504690   0.1405000  )
        99        O      tau(  99) = (   0.8739183   0.4303319   0.4477971  )
       100        O      tau( 100) = (   0.6230967   0.1088895   0.1422960  )
       101        O      tau( 101) = (   0.6242901   0.6635968   0.1442928  )
       102        O      tau( 102) = (   0.9011802   0.4971632   0.1376281  )
       103        O      tau( 103) = (   0.6484006   0.0497464   0.4550965  )
       104        O      tau( 104) = (   0.8736100   0.9942556   0.4492158  )
       105        Ni     tau( 105) = (   0.7413539   0.8509941   0.7820408  )
       106        Mn     tau( 106) = (   0.9917018   0.7787406   1.1173619  )
       107        Ni     tau( 107) = (   0.5044877   0.2932623   0.7802771  )
       108        Ni     tau( 108) = (   0.7563139   0.2275682   1.1136128  )
       109        Ni     tau( 109) = (   0.9969120   1.0949007   0.9482637  )
       110        Ni     tau( 110) = (   0.7488318   0.5341111   0.9472032  )
       111        P      tau( 111) = (   0.7076029   0.9882917   1.1106372  )
       112        P      tau( 112) = (   0.9577012   0.6460068   0.7865316  )
       113        P      tau( 113) = (   0.7881931   0.0932770   0.7837574  )
       114        P      tau( 114) = (   0.5392916   0.4238898   1.1104509  )
       115        O      tau( 115) = (   0.6306755   0.9148866   0.9708199  )
       116        O      tau( 116) = (   0.8789780   0.7172835   0.9261101  )
       117        O      tau( 117) = (   0.8654852   0.1662865   0.9239115  )
       118        O      tau( 118) = (   0.6163776   0.3546954   0.9687567  )
       119        O      tau( 119) = (   0.6502901   0.8969129   1.2400160  )
       120        O      tau( 120) = (   0.8974525   0.7354243   0.6571722  )
       121        O      tau( 121) = (   0.8483097   0.1789497   0.6529083  )
       122        O      tau( 122) = (   0.5974932   0.3376387   1.2412670  )
       123        O      tau( 123) = (   0.5984699   0.5818903   1.1060732  )
       124        O      tau( 124) = (   0.8459978   1.0405493   0.7923226  )
       125        O      tau( 125) = (   0.8731719   0.4204123   1.0996198  )
       126        O      tau( 126) = (   0.6223503   0.0989699   0.7941187  )
       127        O      tau( 127) = (   0.6235438   0.6536772   0.7961155  )
       128        O      tau( 128) = (   0.9004339   0.4872435   0.7894508  )
       129        O      tau( 129) = (   0.6476543   0.0398268   1.1069192  )
       130        O      tau( 130) = (   0.8728637   0.9843360   1.1010385  )
       131        Ni     tau( 131) = (   0.7405475   0.8318259   1.4311132  )
       132        Mn     tau( 132) = (   0.9956110   0.7649913   1.7729082  )
       133        Ni     tau( 133) = (   0.5039471   0.2761330   1.4286777  )
       134        Ni     tau( 134) = (   0.7471906   0.2159197   1.7400299  )
       135        Ni     tau( 135) = (   0.9997237   1.0727158   1.5948335  )
       136        Ni     tau( 136) = (   0.7423591   0.5225842   1.5983173  )
       137        P      tau( 137) = (   0.7106654   0.9687571   1.7578636  )
       138        P      tau( 138) = (   0.9535148   0.6281623   1.4350960  )
       139        P      tau( 139) = (   0.7895630   0.0747538   1.4291325  )
       140        P      tau( 140) = (   0.5297546   0.4018931   1.7598490  )
       141        O      tau( 141) = (   0.6360973   0.9008987   1.6134331  )
       142        O      tau( 142) = (   0.8772031   0.7029798   1.5721256  )
       143        O      tau( 143) = (   0.8675063   0.1478470   1.5680249  )
       144        O      tau( 144) = (   0.6092829   0.3462856   1.6101587  )
       145        O      tau( 145) = (   0.6496647   0.8750286   1.8813068  )
       146        O      tau( 146) = (   0.8923560   0.7173781   1.3061853  )
       147        O      tau( 147) = (   0.8502327   0.1643644   1.3007850  )
       148        O      tau( 148) = (   0.5890056   0.3002177   1.8750650  )
       149        O      tau( 149) = (   0.5837121   0.5633300   1.7648578  )
       150        O      tau( 150) = (   0.8492978   1.0227497   1.4347303  )
       151        O      tau( 151) = (   0.8642300   0.4033737   1.7425194  )
       152        O      tau( 152) = (   0.6231466   0.0817702   1.4418230  )
       153        O      tau( 153) = (   0.6205382   0.6372338   1.4467102  )
       154        O      tau( 154) = (   0.8948089   0.4700688   1.4374848  )
       155        O      tau( 155) = (   0.6554469   0.0221206   1.7549295  )
       156        O      tau( 156) = (   0.8783489   0.9609671   1.7489419  )
       157        O      tau( 157) = (   0.8845603   0.6919478   1.9099437  )
       158        H      tau( 158) = (   0.7942685   0.7497743   1.9280084  )

     -------------------------------------------------
     Parameters for Dispersion (Grimme-D2) Correction:
     -------------------------------------------------
       atom      VdW radius       C_6     

        Ni         2.952        374.666
        Mn         2.952        374.666
        P          3.222        271.980
        O          2.536         24.284
        H          1.892          4.857

     number of k points=     1  Gaussian smearing, width (Ry)=  0.0100
                       cart. coord. in units 2pi/alat
        k(    1) = (   0.0000000   0.0000000   0.0000000), wk =   1.0000000

     Dense  grid:  1938023 G-vectors     FFT dimensions: ( 125, 144, 450)

     Smooth grid:   490328 G-vectors     FFT dimensions: (  80,  90, 288)

     Estimated max dynamical RAM per process >     326.29 MB

     Estimated total dynamical RAM >      20.39 GB

     Check: negative core charge=   -0.000001
     Generating pointlists ...
     new r_m :   0.0887 (alat units)  1.5433 (a.u.) for type    1
     new r_m :   0.0788 (alat units)  1.3708 (a.u.) for type    2
     new r_m :   0.0679 (alat units)  1.1825 (a.u.) for type    3
     new r_m :   0.0449 (alat units)  0.7807 (a.u.) for type    4
     new r_m :   0.0449 (alat units)  0.7807 (a.u.) for type    5

     Initial potential from superposition of free atoms

     starting charge    1092.8893, renormalised to    1093.0000

     negative rho (up, down):  1.403E-03 4.538E-04
 
     Adding external electric field

     Computed dipole along edir(3) : 
        Dipole                1.6282 Ry au,          4.1384 Debye
        Dipole field          0.0010 Ry au, 
 
        Potential amp.       -0.1099 Ry
        Total length         55.1515 bohr
 
 
     Adding external electric field

     Computed dipole along edir(3) : 
        Dipole                1.6282 Ry au,          4.1384 Debye
        Dipole field          0.0010 Ry au, 
 
        Potential amp.       -0.1099 Ry
        Total length         55.1515 bohr
 
     Starting wfcs are  815 randomized atomic wfcs

     total cpu time spent up to now is       12.9 secs

     Self-consistent Calculation

     iteration #  1     ecut=    50.00 Ry     beta= 0.10
     Davidson diagonalization with overlap
     ethr =  1.00E-02,  avg # of iterations =  6.0

     negative rho (up, down):  3.746E-01 3.386E-07
 
     Adding external electric field

     Computed dipole along edir(3) : 
        Dipole               -3.6019 Ry au,         -9.1551 Debye
        Dipole field         -0.0022 Ry au, 
 
        Potential amp.        0.2432 Ry
        Total length         55.1515 bohr
 
 
     Adding external electric field

     Computed dipole along edir(3) : 
        Dipole               -3.6019 Ry au,         -9.1551 Debye
        Dipole field         -0.0022 Ry au, 
 
        Potential amp.        0.2432 Ry
        Total length         55.1515 bohr
 

     total cpu time spent up to now is       45.1 secs

     total energy              =   -7517.25869737 Ry
     estimated scf accuracy    <     737.38517084 Ry

     total magnetization       =   219.00 Bohr mag/cell
     absolute magnetization    =   307.59 Bohr mag/cell

     iteration #  2     ecut=    50.00 Ry     beta= 0.10
     Davidson diagonalization with overlap
     ethr =  1.00E-02,  avg # of iterations =  2.0

     negative rho (up, down):  3.557E-01 1.422E-07
 
     Adding external electric field

     Computed dipole along edir(3) : 
        Dipole               -2.3774 Ry au,         -6.0429 Debye
        Dipole field         -0.0015 Ry au, 
 
        Potential amp.        0.1605 Ry
        Total length         55.1515 bohr
 
 
     Adding external electric field

     Computed dipole along edir(3) : 
        Dipole               -2.3774 Ry au,         -6.0429 Debye
        Dipole field         -0.0015 Ry au, 
 
        Potential amp.        0.1605 Ry
        Total length         55.1515 bohr
 

     total cpu time spent up to now is       65.7 secs

     total energy              =   -7600.46669187 Ry
     estimated scf accuracy    <     212.44926481 Ry

     total magnetization       =   158.67 Bohr mag/cell
     absolute magnetization    =   206.98 Bohr mag/cell

     iteration #  3     ecut=    50.00 Ry     beta= 0.10
     Davidson diagonalization with overlap
     ethr =  1.00E-02,  avg # of iterations =  1.5

     negative rho (up, down):  3.157E-01 1.246E-07
 
     Adding external electric field

     Computed dipole along edir(3) : 
        Dipole               -2.0551 Ry au,         -5.2235 Debye
        Dipole field         -0.0013 Ry au, 
 
        Potential amp.        0.1388 Ry
        Total length         55.1515 bohr
 
 
     Adding external electric field

     Computed dipole along edir(3) : 
        Dipole               -2.0551 Ry au,         -5.2235 Debye
        Dipole field         -0.0013 Ry au, 
 
        Potential amp.        0.1388 Ry
        Total length         55.1515 bohr
 

     total cpu time spent up to now is       81.0 secs

     total energy              =   -7630.75413401 Ry
     estimated scf accuracy    <     100.79967562 Ry

     total magnetization       =   135.33 Bohr mag/cell
     absolute magnetization    =   186.07 Bohr mag/cell

     iteration #  4     ecut=    50.00 Ry     beta= 0.10
     Davidson diagonalization with overlap
     ethr =  9.22E-03,  avg # of iterations =  1.5

     negative rho (up, down):  2.441E-01 5.288E-08
 
     Adding external electric field

     Computed dipole along edir(3) : 
        Dipole               -1.9794 Ry au,         -5.0310 Debye
        Dipole field         -0.0012 Ry au, 
 
        Potential amp.        0.1336 Ry
        Total length         55.1515 bohr
 
 
     Adding external electric field

     Computed dipole along edir(3) : 
        Dipole               -1.9794 Ry au,         -5.0310 Debye
        Dipole field         -0.0012 Ry au, 
 
        Potential amp.        0.1336 Ry
        Total length         55.1515 bohr
 

     total cpu time spent up to now is       96.6 secs

     total energy              =   -7663.99010348 Ry
     estimated scf accuracy    <      82.15682764 Ry

     total magnetization       =   119.48 Bohr mag/cell
     absolute magnetization    =   171.74 Bohr mag/cell

     iteration #  5     ecut=    50.00 Ry     beta= 0.10
     Davidson diagonalization with overlap
     ethr =  7.52E-03,  avg # of iterations =  1.0

     negative rho (up, down):  2.192E-02 3.561E-07
 
     Adding external electric field

     Computed dipole along edir(3) : 
        Dipole               -1.6242 Ry au,         -4.1284 Debye
        Dipole field         -0.0010 Ry au, 
 
        Potential amp.        0.1097 Ry
        Total length         55.1515 bohr
 
 
     Adding external electric field

     Computed dipole along edir(3) : 
        Dipole               -1.6242 Ry au,         -4.1284 Debye
        Dipole field         -0.0010 Ry au, 
 
        Potential amp.        0.1097 Ry
        Total length         55.1515 bohr
 

     total cpu time spent up to now is      111.6 secs

     total energy              =   -7723.84316148 Ry
     estimated scf accuracy    <      65.26389655 Ry

     total magnetization       =    97.16 Bohr mag/cell
     absolute magnetization    =   152.82 Bohr mag/cell

     iteration #  6     ecut=    50.00 Ry     beta= 0.10
     Davidson diagonalization with overlap
     ethr =  5.97E-03,  avg # of iterations =  1.5

     negative rho (up, down):  6.619E-04 1.164E-03
 
     Adding external electric field

     Computed dipole along edir(3) : 
        Dipole               -1.3117 Ry au,         -3.3340 Debye
        Dipole field         -0.0008 Ry au, 
 
        Potential amp.        0.0886 Ry
        Total length         55.1515 bohr
 
 
     Adding external electric field

     Computed dipole along edir(3) : 
        Dipole               -1.3117 Ry au,         -3.3340 Debye
        Dipole field         -0.0008 Ry au, 
 
        Potential amp.        0.0886 Ry
        Total length         55.1515 bohr
 

     total cpu time spent up to now is      126.6 secs

     total energy              =   -7735.73616072 Ry
     estimated scf accuracy    <      13.35409228 Ry

     total magnetization       =    91.00 Bohr mag/cell
     absolute magnetization    =   124.43 Bohr mag/cell

     iteration #  7     ecut=    50.00 Ry     beta= 0.10
     Davidson diagonalization with overlap
     ethr =  1.22E-03,  avg # of iterations =  7.0

     negative rho (up, down):  6.238E-04 1.069E-03
 
     Adding external electric field

     Computed dipole along edir(3) : 
        Dipole               -1.2829 Ry au,         -3.2609 Debye
        Dipole field         -0.0008 Ry au, 
 
        Potential amp.        0.0866 Ry
        Total length         55.1515 bohr
 
 
     Adding external electric field

     Computed dipole along edir(3) : 
        Dipole               -1.2829 Ry au,         -3.2609 Debye
        Dipole field         -0.0008 Ry au, 
 
        Potential amp.        0.0866 Ry
        Total length         55.1515 bohr
 

     total cpu time spent up to now is      155.5 secs

     total energy              =   -7738.52430035 Ry
     estimated scf accuracy    <      39.66520813 Ry

     total magnetization       =    64.56 Bohr mag/cell
     absolute magnetization    =    82.33 Bohr mag/cell

     iteration #  8     ecut=    50.00 Ry     beta= 0.10
     Davidson diagonalization with overlap
     ethr =  1.22E-03,  avg # of iterations =  1.0

     negative rho (up, down):  5.210E-04 8.204E-04
 
     Adding external electric field

     Computed dipole along edir(3) : 
        Dipole               -1.2032 Ry au,         -3.0582 Debye
        Dipole field         -0.0007 Ry au, 
 
        Potential amp.        0.0812 Ry
        Total length         55.1515 bohr
 
 
     Adding external electric field

     Computed dipole along edir(3) : 
        Dipole               -1.2032 Ry au,         -3.0582 Debye
        Dipole field         -0.0007 Ry au, 
 
        Potential amp.        0.0812 Ry
        Total length         55.1515 bohr
 

     total cpu time spent up to now is      169.1 secs

     total energy              =   -7738.41229162 Ry
     estimated scf accuracy    <      35.77191880 Ry

     total magnetization       =    65.81 Bohr mag/cell
     absolute magnetization    =    83.11 Bohr mag/cell

     iteration #  9     ecut=    50.00 Ry     beta= 0.10
     Davidson diagonalization with overlap
     ethr =  1.22E-03,  avg # of iterations =  1.0

     negative rho (up, down):  4.093E-04 6.725E-04
 
     Adding external electric field

     Computed dipole along edir(3) : 
        Dipole               -1.1275 Ry au,         -2.8659 Debye
        Dipole field         -0.0007 Ry au, 
 
        Potential amp.        0.0761 Ry
        Total length         55.1515 bohr
 
 
     Adding external electric field

     Computed dipole along edir(3) : 
        Dipole               -1.1275 Ry au,         -2.8659 Debye
        Dipole field         -0.0007 Ry au, 
 
        Potential amp.        0.0761 Ry
        Total length         55.1515 bohr
 

     total cpu time spent up to now is      183.7 secs

     total energy              =   -7738.32332964 Ry
     estimated scf accuracy    <      28.01500103 Ry

     total magnetization       =    67.70 Bohr mag/cell
     absolute magnetization    =    84.20 Bohr mag/cell

     iteration # 10     ecut=    50.00 Ry     beta= 0.10
     Davidson diagonalization with overlap
     ethr =  1.22E-03,  avg # of iterations =  1.0

     negative rho (up, down):  4.465E-04 7.907E-04
 
     Adding external electric field

     Computed dipole along edir(3) : 
        Dipole               -1.1510 Ry au,         -2.9254 Debye
        Dipole field         -0.0007 Ry au, 
 
        Potential amp.        0.0777 Ry
        Total length         55.1515 bohr
 
 
     Adding external electric field

     Computed dipole along edir(3) : 
        Dipole               -1.1510 Ry au,         -2.9254 Debye
        Dipole field         -0.0007 Ry au, 
 
        Potential amp.        0.0777 Ry
        Total length         55.1515 bohr
 

     total cpu time spent up to now is      198.1 secs

     total energy              =   -7738.45530261 Ry
     estimated scf accuracy    <      22.66286904 Ry

     total magnetization       =    68.87 Bohr mag/cell
     absolute magnetization    =    84.41 Bohr mag/cell

     iteration # 11     ecut=    50.00 Ry     beta= 0.10
     Davidson diagonalization with overlap
     ethr =  1.22E-03,  avg # of iterations =  1.0

     negative rho (up, down):  3.538E-04 8.330E-04
 
     Adding external electric field

     Computed dipole along edir(3) : 
        Dipole               -1.0951 Ry au,         -2.7835 Debye
        Dipole field         -0.0007 Ry au, 
 
        Potential amp.        0.0739 Ry
        Total length         55.1515 bohr
 
 
     Adding external electric field

     Computed dipole along edir(3) : 
        Dipole               -1.0951 Ry au,         -2.7835 Debye
        Dipole field         -0.0007 Ry au, 
 
        Potential amp.        0.0739 Ry
        Total length         55.1515 bohr
 

     total cpu time spent up to now is      211.0 secs

     total energy              =   -7738.20722390 Ry
     estimated scf accuracy    <      24.94830152 Ry

     total magnetization       =    68.22 Bohr mag/cell
     absolute magnetization    =    83.84 Bohr mag/cell

     iteration # 12     ecut=    50.00 Ry     beta= 0.10
     Davidson diagonalization with overlap
     ethr =  1.22E-03,  avg # of iterations =  1.0

     negative rho (up, down):  7.387E-04 2.122E-03
 
     Adding external electric field

     Computed dipole along edir(3) : 
        Dipole               -0.9591 Ry au,         -2.4379 Debye
        Dipole field         -0.0006 Ry au, 
 
        Potential amp.        0.0648 Ry
        Total length         55.1515 bohr
 
 
     Adding external electric field

     Computed dipole along edir(3) : 
        Dipole               -0.9591 Ry au,         -2.4379 Debye
        Dipole field         -0.0006 Ry au, 
 
        Potential amp.        0.0648 Ry
        Total length         55.1515 bohr
 

     total cpu time spent up to now is      224.9 secs

     total energy              =   -7737.89718584 Ry
     estimated scf accuracy    <      21.50122228 Ry

     total magnetization       =    68.60 Bohr mag/cell
     absolute magnetization    =    83.07 Bohr mag/cell

     iteration # 13     ecut=    50.00 Ry     beta= 0.10
     Davidson diagonalization with overlap
     ethr =  1.22E-03,  avg # of iterations =  1.0

     negative rho (up, down):  2.530E-03 4.315E-03
 
     Adding external electric field

     Computed dipole along edir(3) : 
        Dipole               -0.7212 Ry au,         -1.8331 Debye
        Dipole field         -0.0004 Ry au, 
 
        Potential amp.        0.0487 Ry
        Total length         55.1515 bohr
 
 
     Adding external electric field

     Computed dipole along edir(3) : 
        Dipole               -0.7212 Ry au,         -1.8331 Debye
        Dipole field         -0.0004 Ry au, 
 
        Potential amp.        0.0487 Ry
        Total length         55.1515 bohr
 

     total cpu time spent up to now is      238.7 secs

     total energy              =   -7737.97969547 Ry
     estimated scf accuracy    <       9.72510828 Ry

     total magnetization       =    79.46 Bohr mag/cell
     absolute magnetization    =    90.54 Bohr mag/cell

     iteration # 14     ecut=    50.00 Ry     beta= 0.10
     Davidson diagonalization with overlap
     ethr =  8.90E-04,  avg # of iterations =  1.0

     negative rho (up, down):  2.246E-03 3.489E-03
 
     Adding external electric field

     Computed dipole along edir(3) : 
        Dipole               -0.5977 Ry au,         -1.5192 Debye
        Dipole field         -0.0004 Ry au, 
 
        Potential amp.        0.0404 Ry
        Total length         55.1515 bohr
 
 
     Adding external electric field

     Computed dipole along edir(3) : 
        Dipole               -0.5977 Ry au,         -1.5192 Debye
        Dipole field         -0.0004 Ry au, 
 
        Potential amp.        0.0404 Ry
        Total length         55.1515 bohr
 

     total cpu time spent up to now is      251.9 secs

     total energy              =   -7738.12519821 Ry
     estimated scf accuracy    <       1.97781464 Ry

     total magnetization       =    85.67 Bohr mag/cell
     absolute magnetization    =    93.84 Bohr mag/cell

     iteration # 15     ecut=    50.00 Ry     beta= 0.10
     Davidson diagonalization with overlap
     ethr =  1.81E-04,  avg # of iterations =  1.5

     negative rho (up, down):  7.945E-04 1.373E-03
 
     Adding external electric field

     Computed dipole along edir(3) : 
        Dipole               -0.6128 Ry au,         -1.5576 Debye
        Dipole field         -0.0004 Ry au, 
 
        Potential amp.        0.0414 Ry
        Total length         55.1515 bohr
 
 
     Adding external electric field

     Computed dipole along edir(3) : 
        Dipole               -0.6128 Ry au,         -1.5576 Debye
        Dipole field         -0.0004 Ry au, 
 
        Potential amp.        0.0414 Ry
        Total length         55.1515 bohr
 

     total cpu time spent up to now is      266.4 secs

     total energy              =   -7738.13911149 Ry
     estimated scf accuracy    <       1.02889019 Ry

     total magnetization       =    88.31 Bohr mag/cell
     absolute magnetization    =    95.48 Bohr mag/cell

     iteration # 16     ecut=    50.00 Ry     beta= 0.10
     Davidson diagonalization with overlap
     ethr =  9.41E-05,  avg # of iterations =  5.5

     negative rho (up, down):  9.561E-04 1.479E-03
 
     Adding external electric field

     Computed dipole along edir(3) : 
        Dipole               -0.6108 Ry au,         -1.5526 Debye
        Dipole field         -0.0004 Ry au, 
 
        Potential amp.        0.0412 Ry
        Total length         55.1515 bohr
 
 
     Adding external electric field

     Computed dipole along edir(3) : 
        Dipole               -0.6108 Ry au,         -1.5526 Debye
        Dipole field         -0.0004 Ry au, 
 
        Potential amp.        0.0412 Ry
        Total length         55.1515 bohr
 

     total cpu time spent up to now is      283.3 secs

     total energy              =   -7738.15017249 Ry
     estimated scf accuracy    <       0.82878283 Ry

     total magnetization       =    88.15 Bohr mag/cell
     absolute magnetization    =    95.60 Bohr mag/cell

     iteration # 17     ecut=    50.00 Ry     beta= 0.10
     Davidson diagonalization with overlap
     ethr =  7.58E-05,  avg # of iterations =  1.5

     negative rho (up, down):  1.552E-04 7.292E-04
 
     Adding external electric field

     Computed dipole along edir(3) : 
        Dipole               -0.6253 Ry au,         -1.5893 Debye
        Dipole field         -0.0004 Ry au, 
 
        Potential amp.        0.0422 Ry
        Total length         55.1515 bohr
 
 
     Adding external electric field

     Computed dipole along edir(3) : 
        Dipole               -0.6253 Ry au,         -1.5893 Debye
        Dipole field         -0.0004 Ry au, 
 
        Potential amp.        0.0422 Ry
        Total length         55.1515 bohr
 

     total cpu time spent up to now is      298.0 secs

     total energy              =   -7738.11954080 Ry
     estimated scf accuracy    <       0.86196042 Ry

     total magnetization       =    88.28 Bohr mag/cell
     absolute magnetization    =    95.72 Bohr mag/cell

     iteration # 18     ecut=    50.00 Ry     beta= 0.10
     Davidson diagonalization with overlap
     c_bands:  1 eigenvalues not converged
     ethr =  7.58E-05,  avg # of iterations = 11.0

     negative rho (up, down):  2.374E-05 6.489E-05
 
     Adding external electric field

     Computed dipole along edir(3) : 
        Dipole               -0.6063 Ry au,         -1.5412 Debye
        Dipole field         -0.0004 Ry au, 
 
        Potential amp.        0.0409 Ry
        Total length         55.1515 bohr
 
 
     Adding external electric field

     Computed dipole along edir(3) : 
        Dipole               -0.6063 Ry au,         -1.5412 Debye
        Dipole field         -0.0004 Ry au, 
 
        Potential amp.        0.0409 Ry
        Total length         55.1515 bohr
 

     total cpu time spent up to now is      319.2 secs

     total energy              =   -7738.12995234 Ry
     estimated scf accuracy    <       0.58529202 Ry

     total magnetization       =    87.22 Bohr mag/cell
     absolute magnetization    =    94.26 Bohr mag/cell

     iteration # 19     ecut=    50.00 Ry     beta= 0.10
     Davidson diagonalization with overlap
     ethr =  5.35E-05,  avg # of iterations =  2.5

     negative rho (up, down):  2.104E-05 6.094E-05
 
     Adding external electric field

     Computed dipole along edir(3) : 
        Dipole               -0.6033 Ry au,         -1.5336 Debye
        Dipole field         -0.0004 Ry au, 
 
        Potential amp.        0.0407 Ry
        Total length         55.1515 bohr
 
 
     Adding external electric field

     Computed dipole along edir(3) : 
        Dipole               -0.6033 Ry au,         -1.5336 Debye
        Dipole field         -0.0004 Ry au, 
 
        Potential amp.        0.0407 Ry
        Total length         55.1515 bohr
 

     total cpu time spent up to now is      334.4 secs

     total energy              =   -7738.17710558 Ry
     estimated scf accuracy    <       2.19604160 Ry

     total magnetization       =    81.88 Bohr mag/cell
     absolute magnetization    =    89.00 Bohr mag/cell

     iteration # 20     ecut=    50.00 Ry     beta= 0.10
     Davidson diagonalization with overlap
     ethr =  5.35E-05,  avg # of iterations =  1.5

     negative rho (up, down):  1.174E-05 2.985E-05
 
     Adding external electric field

     Computed dipole along edir(3) : 
        Dipole               -0.5595 Ry au,         -1.4220 Debye
        Dipole field         -0.0003 Ry au, 
 
        Potential amp.        0.0378 Ry
        Total length         55.1515 bohr
 
 
     Adding external electric field

     Computed dipole along edir(3) : 
        Dipole               -0.5595 Ry au,         -1.4220 Debye
        Dipole field         -0.0003 Ry au, 
 
        Potential amp.        0.0378 Ry
        Total length         55.1515 bohr
 

     total cpu time spent up to now is      348.5 secs

     total energy              =   -7738.19708425 Ry
     estimated scf accuracy    <       2.27790911 Ry

     total magnetization       =    81.64 Bohr mag/cell
     absolute magnetization    =    88.74 Bohr mag/cell

     iteration # 21     ecut=    50.00 Ry     beta= 0.10
     Davidson diagonalization with overlap
     ethr =  5.35E-05,  avg # of iterations =  2.0

     negative rho (up, down):  1.354E-06 3.977E-06
 
     Adding external electric field

     Computed dipole along edir(3) : 
        Dipole               -0.4777 Ry au,         -1.2143 Debye
        Dipole field         -0.0003 Ry au, 
 
        Potential amp.        0.0323 Ry
        Total length         55.1515 bohr
 
 
     Adding external electric field

     Computed dipole along edir(3) : 
        Dipole               -0.4777 Ry au,         -1.2143 Debye
        Dipole field         -0.0003 Ry au, 
 
        Potential amp.        0.0323 Ry
        Total length         55.1515 bohr
 

     total cpu time spent up to now is      363.2 secs

     total energy              =   -7738.30443039 Ry
     estimated scf accuracy    <       1.10513677 Ry

     total magnetization       =    84.38 Bohr mag/cell
     absolute magnetization    =    90.62 Bohr mag/cell

     iteration # 22     ecut=    50.00 Ry     beta= 0.10
     Davidson diagonalization with overlap
     ethr =  5.35E-05,  avg # of iterations =  2.0

     negative rho (up, down):  1.039E-06 2.198E-06
 
     Adding external electric field

     Computed dipole along edir(3) : 
        Dipole               -0.4717 Ry au,         -1.1990 Debye
        Dipole field         -0.0003 Ry au, 
 
        Potential amp.        0.0318 Ry
        Total length         55.1515 bohr
 
 
     Adding external electric field

     Computed dipole along edir(3) : 
        Dipole               -0.4717 Ry au,         -1.1990 Debye
        Dipole field         -0.0003 Ry au, 
 
        Potential amp.        0.0318 Ry
        Total length         55.1515 bohr
 

     total cpu time spent up to now is      377.7 secs

     total energy              =   -7738.30684402 Ry
     estimated scf accuracy    <       3.50627886 Ry

     total magnetization       =    79.86 Bohr mag/cell
     absolute magnetization    =    84.71 Bohr mag/cell

     iteration # 23     ecut=    50.00 Ry     beta= 0.10
     Davidson diagonalization with overlap
     ethr =  5.35E-05,  avg # of iterations =  1.5

     negative rho (up, down):  1.079E-06 1.800E-06
 
     Adding external electric field

     Computed dipole along edir(3) : 
        Dipole               -0.4295 Ry au,         -1.0918 Debye
        Dipole field         -0.0003 Ry au, 
 
        Potential amp.        0.0290 Ry
        Total length         55.1515 bohr
 
 
     Adding external electric field

     Computed dipole along edir(3) : 
        Dipole               -0.4295 Ry au,         -1.0918 Debye
        Dipole field         -0.0003 Ry au, 
 
        Potential amp.        0.0290 Ry
        Total length         55.1515 bohr
 

     total cpu time spent up to now is      392.2 secs

     total energy              =   -7738.31524829 Ry
     estimated scf accuracy    <       1.70575837 Ry

     total magnetization       =    82.27 Bohr mag/cell
     absolute magnetization    =    86.81 Bohr mag/cell

     iteration # 24     ecut=    50.00 Ry     beta= 0.10
     Davidson diagonalization with overlap
     ethr =  5.35E-05,  avg # of iterations =  2.0

     negative rho (up, down):  1.022E-06 2.054E-06
 
     Adding external electric field

     Computed dipole along edir(3) : 
        Dipole               -0.4043 Ry au,         -1.0277 Debye
        Dipole field         -0.0002 Ry au, 
 
        Potential amp.        0.0273 Ry
        Total length         55.1515 bohr
 
 
     Adding external electric field

     Computed dipole along edir(3) : 
        Dipole               -0.4043 Ry au,         -1.0277 Debye
        Dipole field         -0.0002 Ry au, 
 
        Potential amp.        0.0273 Ry
        Total length         55.1515 bohr
 

     total cpu time spent up to now is      407.5 secs

     total energy              =   -7738.32764071 Ry
     estimated scf accuracy    <       0.50384078 Ry

     total magnetization       =    84.53 Bohr mag/cell
     absolute magnetization    =    88.14 Bohr mag/cell

     iteration # 25     ecut=    50.00 Ry     beta= 0.10
     Davidson diagonalization with overlap
     ethr =  4.61E-05,  avg # of iterations =  1.0

     negative rho (up, down):  8.743E-07 3.703E-06
 
     Adding external electric field

     Computed dipole along edir(3) : 
        Dipole               -0.3777 Ry au,         -0.9601 Debye
        Dipole field         -0.0002 Ry au, 
 
        Potential amp.        0.0255 Ry
        Total length         55.1515 bohr
 
 
     Adding external electric field

     Computed dipole along edir(3) : 
        Dipole               -0.3777 Ry au,         -0.9601 Debye
        Dipole field         -0.0002 Ry au, 
 
        Potential amp.        0.0255 Ry
        Total length         55.1515 bohr
 

     total cpu time spent up to now is      421.6 secs

     total energy              =   -7738.30755354 Ry
     estimated scf accuracy    <       0.54421870 Ry

     total magnetization       =    84.15 Bohr mag/cell
     absolute magnetization    =    87.29 Bohr mag/cell

     iteration # 26     ecut=    50.00 Ry     beta= 0.10
     Davidson diagonalization with overlap
     ethr =  4.61E-05,  avg # of iterations =  2.0

     negative rho (up, down):  9.187E-07 4.380E-06
 
     Adding external electric field

     Computed dipole along edir(3) : 
        Dipole               -0.3103 Ry au,         -0.7886 Debye
        Dipole field         -0.0002 Ry au, 
 
        Potential amp.        0.0209 Ry
        Total length         55.1515 bohr
 
 
     Adding external electric field

     Computed dipole along edir(3) : 
        Dipole               -0.3103 Ry au,         -0.7886 Debye
        Dipole field         -0.0002 Ry au, 
 
        Potential amp.        0.0209 Ry
        Total length         55.1515 bohr
 

     total cpu time spent up to now is      436.5 secs

     total energy              =   -7738.33511857 Ry
     estimated scf accuracy    <       0.18127551 Ry

     total magnetization       =    85.70 Bohr mag/cell
     absolute magnetization    =    88.40 Bohr mag/cell

     iteration # 27     ecut=    50.00 Ry     beta= 0.10
     Davidson diagonalization with overlap
     ethr =  1.66E-05,  avg # of iterations = 22.5

     negative rho (up, down):  1.742E-05 1.701E-04
 
     Adding external electric field

     Computed dipole along edir(3) : 
        Dipole               -0.2221 Ry au,         -0.5646 Debye
        Dipole field         -0.0001 Ry au, 
 
        Potential amp.        0.0150 Ry
        Total length         55.1515 bohr
 
 
     Adding external electric field

     Computed dipole along edir(3) : 
        Dipole               -0.2221 Ry au,         -0.5646 Debye
        Dipole field         -0.0001 Ry au, 
 
        Potential amp.        0.0150 Ry
        Total length         55.1515 bohr
 

     total cpu time spent up to now is      480.0 secs

     total energy              =   -7738.34506965 Ry
     estimated scf accuracy    <       0.10102213 Ry

     total magnetization       =    87.02 Bohr mag/cell
     absolute magnetization    =    88.91 Bohr mag/cell

     iteration # 28     ecut=    50.00 Ry     beta= 0.10
     Davidson diagonalization with overlap
     c_bands:  2 eigenvalues not converged
     ethr =  9.24E-06,  avg # of iterations = 11.0

     negative rho (up, down):  5.459E-05 2.216E-04
 
     Adding external electric field

     Computed dipole along edir(3) : 
        Dipole               -0.1791 Ry au,         -0.4552 Debye
        Dipole field         -0.0001 Ry au, 
 
        Potential amp.        0.0121 Ry
        Total length         55.1515 bohr
 
 
     Adding external electric field

     Computed dipole along edir(3) : 
        Dipole               -0.1791 Ry au,         -0.4552 Debye
        Dipole field         -0.0001 Ry au, 
 
        Potential amp.        0.0121 Ry
        Total length         55.1515 bohr
 

     total cpu time spent up to now is      500.0 secs

     total energy              =   -7738.34972590 Ry
     estimated scf accuracy    <       0.12808937 Ry

     total magnetization       =    87.60 Bohr mag/cell
     absolute magnetization    =    89.03 Bohr mag/cell

     iteration # 29     ecut=    50.00 Ry     beta= 0.10
     Davidson diagonalization with overlap
     c_bands:  1 eigenvalues not converged
     ethr =  9.24E-06,  avg # of iterations = 11.0

     negative rho (up, down):  6.223E-07 3.320E-06
 
     Adding external electric field

     Computed dipole along edir(3) : 
        Dipole               -0.1705 Ry au,         -0.4334 Debye
        Dipole field         -0.0001 Ry au, 
 
        Potential amp.        0.0115 Ry
        Total length         55.1515 bohr
 
 
     Adding external electric field

     Computed dipole along edir(3) : 
        Dipole               -0.1705 Ry au,         -0.4334 Debye
        Dipole field         -0.0001 Ry au, 
 
        Potential amp.        0.0115 Ry
        Total length         55.1515 bohr
 

     total cpu time spent up to now is      520.8 secs

     total energy              =   -7738.34985974 Ry
     estimated scf accuracy    <       0.13362805 Ry

     total magnetization       =    87.56 Bohr mag/cell
     absolute magnetization    =    88.80 Bohr mag/cell

     iteration # 30     ecut=    50.00 Ry     beta= 0.10
     Davidson diagonalization with overlap
     ethr =  9.24E-06,  avg # of iterations =  2.0

     negative rho (up, down):  2.108E-05 1.841E-04
 
     Adding external electric field

     Computed dipole along edir(3) : 
        Dipole               -0.2083 Ry au,         -0.5295 Debye
        Dipole field         -0.0001 Ry au, 
 
        Potential amp.        0.0141 Ry
        Total length         55.1515 bohr
 
 
     Adding external electric field

     Computed dipole along edir(3) : 
        Dipole               -0.2083 Ry au,         -0.5295 Debye
        Dipole field         -0.0001 Ry au, 
 
        Potential amp.        0.0141 Ry
        Total length         55.1515 bohr
 

     total cpu time spent up to now is      536.0 secs

     total energy              =   -7738.34812310 Ry
     estimated scf accuracy    <       0.10361419 Ry

     total magnetization       =    87.16 Bohr mag/cell
     absolute magnetization    =    88.39 Bohr mag/cell

     iteration # 31     ecut=    50.00 Ry     beta= 0.10
     Davidson diagonalization with overlap
     ethr =  9.24E-06,  avg # of iterations =  1.5

     negative rho (up, down):  2.323E-05 2.113E-04
 
     Adding external electric field

     Computed dipole along edir(3) : 
        Dipole               -0.2149 Ry au,         -0.5461 Debye
        Dipole field         -0.0001 Ry au, 
 
        Potential amp.        0.0145 Ry
        Total length         55.1515 bohr
 
 
     Adding external electric field

     Computed dipole along edir(3) : 
        Dipole               -0.2149 Ry au,         -0.5461 Debye
        Dipole field         -0.0001 Ry au, 
 
        Potential amp.        0.0145 Ry
        Total length         55.1515 bohr
 

     total cpu time spent up to now is      550.9 secs

     total energy              =   -7738.34905202 Ry
     estimated scf accuracy    <       0.10596765 Ry

     total magnetization       =    87.32 Bohr mag/cell
     absolute magnetization    =    88.65 Bohr mag/cell

     iteration # 32     ecut=    50.00 Ry     beta= 0.10
     Davidson diagonalization with overlap
     ethr =  9.24E-06,  avg # of iterations =  1.0

     negative rho (up, down):  5.436E-06 8.901E-05
 
     Adding external electric field

     Computed dipole along edir(3) : 
        Dipole               -0.1980 Ry au,         -0.5032 Debye
        Dipole field         -0.0001 Ry au, 
 
        Potential amp.        0.0134 Ry
        Total length         55.1515 bohr
 
 
     Adding external electric field

     Computed dipole along edir(3) : 
        Dipole               -0.1980 Ry au,         -0.5032 Debye
        Dipole field         -0.0001 Ry au, 
 
        Potential amp.        0.0134 Ry
        Total length         55.1515 bohr
 

     total cpu time spent up to now is      564.5 secs

     total energy              =   -7738.35003336 Ry
     estimated scf accuracy    <       0.10564463 Ry

     total magnetization       =    87.28 Bohr mag/cell
     absolute magnetization    =    88.66 Bohr mag/cell

     iteration # 33     ecut=    50.00 Ry     beta= 0.10
     Davidson diagonalization with overlap
     ethr =  9.24E-06,  avg # of iterations =  1.5

     negative rho (up, down):  8.829E-04 1.246E-03
 
     Adding external electric field

     Computed dipole along edir(3) : 
        Dipole               -0.2529 Ry au,         -0.6427 Debye
        Dipole field         -0.0002 Ry au, 
 
        Potential amp.        0.0171 Ry
        Total length         55.1515 bohr
 
 
     Adding external electric field

     Computed dipole along edir(3) : 
        Dipole               -0.2529 Ry au,         -0.6427 Debye
        Dipole field         -0.0002 Ry au, 
 
        Potential amp.        0.0171 Ry
        Total length         55.1515 bohr
 

     total cpu time spent up to now is      578.7 secs

     total energy              =   -7738.35140237 Ry
     estimated scf accuracy    <       0.11697338 Ry

     total magnetization       =    87.19 Bohr mag/cell
     absolute magnetization    =    88.59 Bohr mag/cell

     iteration # 34     ecut=    50.00 Ry     beta= 0.10
     Davidson diagonalization with overlap
     ethr =  9.24E-06,  avg # of iterations =  1.5

     negative rho (up, down):  5.759E-04 8.860E-04
 
     Adding external electric field

     Computed dipole along edir(3) : 
        Dipole               -0.2651 Ry au,         -0.6737 Debye
        Dipole field         -0.0002 Ry au, 
 
        Potential amp.        0.0179 Ry
        Total length         55.1515 bohr
 
 
     Adding external electric field

     Computed dipole along edir(3) : 
        Dipole               -0.2651 Ry au,         -0.6737 Debye
        Dipole field         -0.0002 Ry au, 
 
        Potential amp.        0.0179 Ry
        Total length         55.1515 bohr
 

     total cpu time spent up to now is      593.4 secs

     total energy              =   -7738.35229671 Ry
     estimated scf accuracy    <       0.09691670 Ry

     total magnetization       =    87.48 Bohr mag/cell
     absolute magnetization    =    88.79 Bohr mag/cell

     iteration # 35     ecut=    50.00 Ry     beta= 0.10
     Davidson diagonalization with overlap
     ethr =  8.87E-06,  avg # of iterations =  1.0

     negative rho (up, down):  3.532E-04 5.868E-04
 
     Adding external electric field

     Computed dipole along edir(3) : 
        Dipole               -0.2365 Ry au,         -0.6010 Debye
        Dipole field         -0.0001 Ry au, 
 
        Potential amp.        0.0160 Ry
        Total length         55.1515 bohr
 
 
     Adding external electric field

     Computed dipole along edir(3) : 
        Dipole               -0.2365 Ry au,         -0.6010 Debye
        Dipole field         -0.0001 Ry au, 
 
        Potential amp.        0.0160 Ry
        Total length         55.1515 bohr
 

     total cpu time spent up to now is      607.1 secs

     total energy              =   -7738.35275501 Ry
     estimated scf accuracy    <       0.08933395 Ry

     total magnetization       =    87.31 Bohr mag/cell
     absolute magnetization    =    88.66 Bohr mag/cell

     iteration # 36     ecut=    50.00 Ry     beta= 0.10
     Davidson diagonalization with overlap
     ethr =  8.17E-06,  avg # of iterations =  1.5

     negative rho (up, down):  2.221E-04 3.635E-04
 
     Adding external electric field

     Computed dipole along edir(3) : 
        Dipole               -0.2058 Ry au,         -0.5231 Debye
        Dipole field         -0.0001 Ry au, 
 
        Potential amp.        0.0139 Ry
        Total length         55.1515 bohr
 
 
     Adding external electric field

     Computed dipole along edir(3) : 
        Dipole               -0.2058 Ry au,         -0.5231 Debye
        Dipole field         -0.0001 Ry au, 
 
        Potential amp.        0.0139 Ry
        Total length         55.1515 bohr
 

     total cpu time spent up to now is      621.2 secs

     total energy              =   -7738.35170445 Ry
     estimated scf accuracy    <       0.08914737 Ry

     total magnetization       =    87.31 Bohr mag/cell
     absolute magnetization    =    88.65 Bohr mag/cell

     iteration # 37     ecut=    50.00 Ry     beta= 0.10
     Davidson diagonalization with overlap
     ethr =  8.16E-06,  avg # of iterations =  1.5

     negative rho (up, down):  8.788E-04 1.142E-03
 
     Adding external electric field

     Computed dipole along edir(3) : 
        Dipole               -0.2426 Ry au,         -0.6167 Debye
        Dipole field         -0.0001 Ry au, 
 
        Potential amp.        0.0164 Ry
        Total length         55.1515 bohr
 
 
     Adding external electric field

     Computed dipole along edir(3) : 
        Dipole               -0.2426 Ry au,         -0.6167 Debye
        Dipole field         -0.0001 Ry au, 
 
        Potential amp.        0.0164 Ry
        Total length         55.1515 bohr
 

     total cpu time spent up to now is      635.1 secs

     total energy              =   -7738.35364179 Ry
     estimated scf accuracy    <       0.07819993 Ry

     total magnetization       =    87.16 Bohr mag/cell
     absolute magnetization    =    88.43 Bohr mag/cell

     iteration # 38     ecut=    50.00 Ry     beta= 0.10
     Davidson diagonalization with overlap
     ethr =  7.15E-06,  avg # of iterations =  1.5

     negative rho (up, down):  1.135E-03 1.562E-03
 
     Adding external electric field

     Computed dipole along edir(3) : 
        Dipole               -0.2436 Ry au,         -0.6192 Debye
        Dipole field         -0.0001 Ry au, 
 
        Potential amp.        0.0164 Ry
        Total length         55.1515 bohr
 
 
     Adding external electric field

     Computed dipole along edir(3) : 
        Dipole               -0.2436 Ry au,         -0.6192 Debye
        Dipole field         -0.0001 Ry au, 
 
        Potential amp.        0.0164 Ry
        Total length         55.1515 bohr
 

     total cpu time spent up to now is      649.8 secs

     total energy              =   -7738.34652378 Ry
     estimated scf accuracy    <       0.07683385 Ry

     total magnetization       =    86.66 Bohr mag/cell
     absolute magnetization    =    87.96 Bohr mag/cell

     iteration # 39     ecut=    50.00 Ry     beta= 0.10
     Davidson diagonalization with overlap
     ethr =  7.03E-06,  avg # of iterations =  1.5

     negative rho (up, down):  2.541E-04 5.316E-04
 
     Adding external electric field

     Computed dipole along edir(3) : 
        Dipole               -0.2613 Ry au,         -0.6643 Debye
        Dipole field         -0.0002 Ry au, 
 
        Potential amp.        0.0176 Ry
        Total length         55.1515 bohr
 
 
     Adding external electric field

     Computed dipole along edir(3) : 
        Dipole               -0.2613 Ry au,         -0.6643 Debye
        Dipole field         -0.0002 Ry au, 
 
        Potential amp.        0.0176 Ry
        Total length         55.1515 bohr
 

     total cpu time spent up to now is      664.0 secs

     total energy              =   -7738.35084947 Ry
     estimated scf accuracy    <       0.09312198 Ry

     total magnetization       =    87.21 Bohr mag/cell
     absolute magnetization    =    88.38 Bohr mag/cell

     iteration # 40     ecut=    50.00 Ry     beta= 0.10
     Davidson diagonalization with overlap
     ethr =  7.03E-06,  avg # of iterations =  1.5

     negative rho (up, down):  4.486E-04 8.195E-04
 
     Adding external electric field

     Computed dipole along edir(3) : 
        Dipole               -0.2759 Ry au,         -0.7012 Debye
        Dipole field         -0.0002 Ry au, 
 
        Potential amp.        0.0186 Ry
        Total length         55.1515 bohr
 
 
     Adding external electric field

     Computed dipole along edir(3) : 
        Dipole               -0.2759 Ry au,         -0.7012 Debye
        Dipole field         -0.0002 Ry au, 
 
        Potential amp.        0.0186 Ry
        Total length         55.1515 bohr
 

     total cpu time spent up to now is      678.2 secs

     total energy              =   -7738.34933467 Ry
     estimated scf accuracy    <       0.09357835 Ry

     total magnetization       =    87.25 Bohr mag/cell
     absolute magnetization    =    88.59 Bohr mag/cell

     iteration # 41     ecut=    50.00 Ry     beta= 0.10
     Davidson diagonalization with overlap
     ethr =  7.03E-06,  avg # of iterations =  1.5

     negative rho (up, down):  7.477E-04 1.112E-03
 
     Adding external electric field

     Computed dipole along edir(3) : 
        Dipole               -0.2590 Ry au,         -0.6583 Debye
        Dipole field         -0.0002 Ry au, 
 
        Potential amp.        0.0175 Ry
        Total length         55.1515 bohr
 
 
     Adding external electric field

     Computed dipole along edir(3) : 
        Dipole               -0.2590 Ry au,         -0.6583 Debye
        Dipole field         -0.0002 Ry au, 
 
        Potential amp.        0.0175 Ry
        Total length         55.1515 bohr
 

     total cpu time spent up to now is      693.0 secs

     total energy              =   -7738.35184816 Ry
     estimated scf accuracy    <       0.07362766 Ry

     total magnetization       =    86.90 Bohr mag/cell
     absolute magnetization    =    88.44 Bohr mag/cell

     iteration # 42     ecut=    50.00 Ry     beta= 0.10
     Davidson diagonalization with overlap
     ethr =  6.74E-06,  avg # of iterations =  1.0

     negative rho (up, down):  6.836E-04 1.078E-03
 
     Adding external electric field

     Computed dipole along edir(3) : 
        Dipole               -0.2581 Ry au,         -0.6559 Debye
        Dipole field         -0.0002 Ry au, 
 
        Potential amp.        0.0174 Ry
        Total length         55.1515 bohr
 
 
     Adding external electric field

     Computed dipole along edir(3) : 
        Dipole               -0.2581 Ry au,         -0.6559 Debye
        Dipole field         -0.0002 Ry au, 
 
        Potential amp.        0.0174 Ry
        Total length         55.1515 bohr
 

     total cpu time spent up to now is      706.6 secs

     total energy              =   -7738.35130291 Ry
     estimated scf accuracy    <       0.07111023 Ry

     total magnetization       =    87.04 Bohr mag/cell
     absolute magnetization    =    88.58 Bohr mag/cell

     iteration # 43     ecut=    50.00 Ry     beta= 0.10
     Davidson diagonalization with overlap
     ethr =  6.51E-06,  avg # of iterations =  1.0

     negative rho (up, down):  1.232E-03 1.177E-03
 
     Adding external electric field

     Computed dipole along edir(3) : 
        Dipole               -0.2331 Ry au,         -0.5925 Debye
        Dipole field         -0.0001 Ry au, 
 
        Potential amp.        0.0157 Ry
        Total length         55.1515 bohr
 
 
     Adding external electric field

     Computed dipole along edir(3) : 
        Dipole               -0.2331 Ry au,         -0.5925 Debye
        Dipole field         -0.0001 Ry au, 
 
        Potential amp.        0.0157 Ry
        Total length         55.1515 bohr
 

     total cpu time spent up to now is      720.4 secs

     total energy              =   -7738.35369947 Ry
     estimated scf accuracy    <       0.07294534 Ry

     total magnetization       =    87.02 Bohr mag/cell
     absolute magnetization    =    88.56 Bohr mag/cell

     iteration # 44     ecut=    50.00 Ry     beta= 0.10
     Davidson diagonalization with overlap
     ethr =  6.51E-06,  avg # of iterations =  1.5

     negative rho (up, down):  1.220E-03 1.095E-03
 
     Adding external electric field

     Computed dipole along edir(3) : 
        Dipole               -0.2090 Ry au,         -0.5312 Debye
        Dipole field         -0.0001 Ry au, 
 
        Potential amp.        0.0141 Ry
        Total length         55.1515 bohr
 
 
     Adding external electric field

     Computed dipole along edir(3) : 
        Dipole               -0.2090 Ry au,         -0.5312 Debye
        Dipole field         -0.0001 Ry au, 
 
        Potential amp.        0.0141 Ry
        Total length         55.1515 bohr
 

     total cpu time spent up to now is      735.1 secs

     total energy              =   -7738.35364619 Ry
     estimated scf accuracy    <       0.06176767 Ry

     total magnetization       =    87.14 Bohr mag/cell
     absolute magnetization    =    88.68 Bohr mag/cell

     iteration # 45     ecut=    50.00 Ry     beta= 0.10
     Davidson diagonalization with overlap
     ethr =  5.65E-06,  avg # of iterations =  1.0

     negative rho (up, down):  1.102E-03 1.041E-03
 
     Adding external electric field

     Computed dipole along edir(3) : 
        Dipole               -0.2542 Ry au,         -0.6461 Debye
        Dipole field         -0.0002 Ry au, 
 
        Potential amp.        0.0172 Ry
        Total length         55.1515 bohr
 
 
     Adding external electric field

     Computed dipole along edir(3) : 
        Dipole               -0.2542 Ry au,         -0.6461 Debye
        Dipole field         -0.0002 Ry au, 
 
        Potential amp.        0.0172 Ry
        Total length         55.1515 bohr
 

     total cpu time spent up to now is      748.3 secs

     total energy              =   -7738.35385797 Ry
     estimated scf accuracy    <       0.06429150 Ry

     total magnetization       =    87.16 Bohr mag/cell
     absolute magnetization    =    88.69 Bohr mag/cell

     iteration # 46     ecut=    50.00 Ry     beta= 0.10
     Davidson diagonalization with overlap
     ethr =  5.65E-06,  avg # of iterations =  1.5

     negative rho (up, down):  1.413E-03 1.293E-03
 
     Adding external electric field

     Computed dipole along edir(3) : 
        Dipole               -0.3070 Ry au,         -0.7803 Debye
        Dipole field         -0.0002 Ry au, 
 
        Potential amp.        0.0207 Ry
        Total length         55.1515 bohr
 
 
     Adding external electric field

     Computed dipole along edir(3) : 
        Dipole               -0.3070 Ry au,         -0.7803 Debye
        Dipole field         -0.0002 Ry au, 
 
        Potential amp.        0.0207 Ry
        Total length         55.1515 bohr
 

     total cpu time spent up to now is      762.6 secs

     total energy              =   -7738.35336474 Ry
     estimated scf accuracy    <       0.06156026 Ry

     total magnetization       =    87.18 Bohr mag/cell
     absolute magnetization    =    88.72 Bohr mag/cell

     iteration # 47     ecut=    50.00 Ry     beta= 0.10
     Davidson diagonalization with overlap
     ethr =  5.63E-06,  avg # of iterations =  1.5

     negative rho (up, down):  1.030E-03 8.840E-04
 
     Adding external electric field

     Computed dipole along edir(3) : 
        Dipole               -0.3811 Ry au,         -0.9686 Debye
        Dipole field         -0.0002 Ry au, 
 
        Potential amp.        0.0257 Ry
        Total length         55.1515 bohr
 
 
     Adding external electric field

     Computed dipole along edir(3) : 
        Dipole               -0.3811 Ry au,         -0.9686 Debye
        Dipole field         -0.0002 Ry au, 
 
        Potential amp.        0.0257 Ry
        Total length         55.1515 bohr
 

     total cpu time spent up to now is      777.6 secs

     total energy              =   -7738.35232614 Ry
     estimated scf accuracy    <       0.05567956 Ry

     total magnetization       =    87.22 Bohr mag/cell
     absolute magnetization    =    88.69 Bohr mag/cell

     iteration # 48     ecut=    50.00 Ry     beta= 0.10
     Davidson diagonalization with overlap
     ethr =  5.09E-06,  avg # of iterations =  1.5

     negative rho (up, down):  2.313E-04 1.721E-04
 
     Adding external electric field

     Computed dipole along edir(3) : 
        Dipole               -0.6146 Ry au,         -1.5622 Debye
        Dipole field         -0.0004 Ry au, 
 
        Potential amp.        0.0415 Ry
        Total length         55.1515 bohr
 
 
     Adding external electric field

     Computed dipole along edir(3) : 
        Dipole               -0.6146 Ry au,         -1.5622 Debye
        Dipole field         -0.0004 Ry au, 
 
        Potential amp.        0.0415 Ry
        Total length         55.1515 bohr
 

     total cpu time spent up to now is      792.2 secs

     total energy              =   -7738.35216150 Ry
     estimated scf accuracy    <       0.04848738 Ry

     total magnetization       =    87.14 Bohr mag/cell
     absolute magnetization    =    88.54 Bohr mag/cell

     iteration # 49     ecut=    50.00 Ry     beta= 0.10
     Davidson diagonalization with overlap
     ethr =  4.44E-06,  avg # of iterations =  8.5

     negative rho (up, down):  1.600E-04 1.397E-04
 
     Adding external electric field

     Computed dipole along edir(3) : 
        Dipole               -0.4907 Ry au,         -1.2472 Debye
        Dipole field         -0.0003 Ry au, 
 
        Potential amp.        0.0331 Ry
        Total length         55.1515 bohr
 
 
     Adding external electric field

     Computed dipole along edir(3) : 
        Dipole               -0.4907 Ry au,         -1.2472 Debye
        Dipole field         -0.0003 Ry au, 
 
        Potential amp.        0.0331 Ry
        Total length         55.1515 bohr
 

     total cpu time spent up to now is      811.4 secs

     total energy              =   -7738.35285281 Ry
     estimated scf accuracy    <       0.02996194 Ry

     total magnetization       =    87.10 Bohr mag/cell
     absolute magnetization    =    88.50 Bohr mag/cell

     iteration # 50     ecut=    50.00 Ry     beta= 0.10
     Davidson diagonalization with overlap
     c_bands:  1 eigenvalues not converged
     ethr =  2.74E-06,  avg # of iterations = 21.0

     negative rho (up, down):  2.157E-04 1.782E-04
 
     Adding external electric field

     Computed dipole along edir(3) : 
        Dipole               -0.6486 Ry au,         -1.6486 Debye
        Dipole field         -0.0004 Ry au, 
 
        Potential amp.        0.0438 Ry
        Total length         55.1515 bohr
 
 
     Adding external electric field

     Computed dipole along edir(3) : 
        Dipole               -0.6486 Ry au,         -1.6486 Debye
        Dipole field         -0.0004 Ry au, 
 
        Potential amp.        0.0438 Ry
        Total length         55.1515 bohr
 

     total cpu time spent up to now is      843.1 secs

     total energy              =   -7738.35367291 Ry
     estimated scf accuracy    <       0.02894437 Ry

     total magnetization       =    87.06 Bohr mag/cell
     absolute magnetization    =    88.57 Bohr mag/cell

     iteration # 51     ecut=    50.00 Ry     beta= 0.10
     Davidson diagonalization with overlap
     ethr =  2.65E-06,  avg # of iterations =  9.5

     negative rho (up, down):  2.124E-04 1.819E-04
 
     Adding external electric field

     Computed dipole along edir(3) : 
        Dipole               -0.6795 Ry au,         -1.7270 Debye
        Dipole field         -0.0004 Ry au, 
 
        Potential amp.        0.0459 Ry
        Total length         55.1515 bohr
 
 
     Adding external electric field

     Computed dipole along edir(3) : 
        Dipole               -0.6795 Ry au,         -1.7270 Debye
        Dipole field         -0.0004 Ry au, 
 
        Potential amp.        0.0459 Ry
        Total length         55.1515 bohr
 

     total cpu time spent up to now is      862.3 secs

     total energy              =   -7738.35413272 Ry
     estimated scf accuracy    <       0.02096814 Ry

     total magnetization       =    87.05 Bohr mag/cell
     absolute magnetization    =    88.54 Bohr mag/cell

     iteration # 52     ecut=    50.00 Ry     beta= 0.10
     Davidson diagonalization with overlap
     ethr =  1.92E-06,  avg # of iterations =  2.5

     negative rho (up, down):  1.886E-04 1.708E-04
 
     Adding external electric field

     Computed dipole along edir(3) : 
        Dipole               -0.6887 Ry au,         -1.7505 Debye
        Dipole field         -0.0004 Ry au, 
 
        Potential amp.        0.0465 Ry
        Total length         55.1515 bohr
 
 
     Adding external electric field

     Computed dipole along edir(3) : 
        Dipole               -0.6887 Ry au,         -1.7505 Debye
        Dipole field         -0.0004 Ry au, 
 
        Potential amp.        0.0465 Ry
        Total length         55.1515 bohr
 

     total cpu time spent up to now is      878.2 secs

     total energy              =   -7738.35444301 Ry
     estimated scf accuracy    <       0.02059518 Ry

     total magnetization       =    87.01 Bohr mag/cell
     absolute magnetization    =    88.52 Bohr mag/cell

     iteration # 53     ecut=    50.00 Ry     beta= 0.10
     Davidson diagonalization with overlap
     ethr =  1.88E-06,  avg # of iterations =  1.5

     negative rho (up, down):  2.201E-04 2.103E-04
 
     Adding external electric field

     Computed dipole along edir(3) : 
        Dipole               -0.6778 Ry au,         -1.7227 Debye
        Dipole field         -0.0004 Ry au, 
 
        Potential amp.        0.0458 Ry
        Total length         55.1515 bohr
 
 
     Adding external electric field

     Computed dipole along edir(3) : 
        Dipole               -0.6778 Ry au,         -1.7227 Debye
        Dipole field         -0.0004 Ry au, 
 
        Potential amp.        0.0458 Ry
        Total length         55.1515 bohr
 

     total cpu time spent up to now is      892.4 secs

     total energy              =   -7738.35451998 Ry
     estimated scf accuracy    <       0.02046748 Ry

     total magnetization       =    86.99 Bohr mag/cell
     absolute magnetization    =    88.50 Bohr mag/cell

     iteration # 54     ecut=    50.00 Ry     beta= 0.10
     Davidson diagonalization with overlap
     ethr =  1.87E-06,  avg # of iterations =  2.0

     negative rho (up, down):  1.340E-04 1.632E-04
 
     Adding external electric field

     Computed dipole along edir(3) : 
        Dipole               -0.5743 Ry au,         -1.4597 Debye
        Dipole field         -0.0004 Ry au, 
 
        Potential amp.        0.0388 Ry
        Total length         55.1515 bohr
 
 
     Adding external electric field

     Computed dipole along edir(3) : 
        Dipole               -0.5743 Ry au,         -1.4597 Debye
        Dipole field         -0.0004 Ry au, 
 
        Potential amp.        0.0388 Ry
        Total length         55.1515 bohr
 

     total cpu time spent up to now is      908.1 secs

     total energy              =   -7738.35378484 Ry
     estimated scf accuracy    <       0.02262953 Ry

     total magnetization       =    87.02 Bohr mag/cell
     absolute magnetization    =    88.54 Bohr mag/cell

     iteration # 55     ecut=    50.00 Ry     beta= 0.10
     Davidson diagonalization with overlap
     ethr =  1.87E-06,  avg # of iterations =  2.0

     negative rho (up, down):  2.526E-04 2.638E-04
 
     Adding external electric field

     Computed dipole along edir(3) : 
        Dipole               -0.5286 Ry au,         -1.3435 Debye
        Dipole field         -0.0003 Ry au, 
 
        Potential amp.        0.0357 Ry
        Total length         55.1515 bohr
 
 
     Adding external electric field

     Computed dipole along edir(3) : 
        Dipole               -0.5286 Ry au,         -1.3435 Debye
        Dipole field         -0.0003 Ry au, 
 
        Potential amp.        0.0357 Ry
        Total length         55.1515 bohr
 

     total cpu time spent up to now is      923.4 secs

     total energy              =   -7738.35371897 Ry
     estimated scf accuracy    <       0.02610228 Ry

     total magnetization       =    87.00 Bohr mag/cell
     absolute magnetization    =    88.49 Bohr mag/cell

     iteration # 56     ecut=    50.00 Ry     beta= 0.10
     Davidson diagonalization with overlap
     ethr =  1.87E-06,  avg # of iterations =  2.0

     negative rho (up, down):  2.125E-04 2.066E-04
 
     Adding external electric field

     Computed dipole along edir(3) : 
        Dipole               -0.5570 Ry au,         -1.4157 Debye
        Dipole field         -0.0003 Ry au, 
 
        Potential amp.        0.0376 Ry
        Total length         55.1515 bohr
 
 
     Adding external electric field

     Computed dipole along edir(3) : 
        Dipole               -0.5570 Ry au,         -1.4157 Debye
        Dipole field         -0.0003 Ry au, 
 
        Potential amp.        0.0376 Ry
        Total length         55.1515 bohr
 

     total cpu time spent up to now is      938.2 secs

     total energy              =   -7738.35366998 Ry
     estimated scf accuracy    <       0.03149176 Ry

     total magnetization       =    87.08 Bohr mag/cell
     absolute magnetization    =    88.58 Bohr mag/cell

     iteration # 57     ecut=    50.00 Ry     beta= 0.10
     Davidson diagonalization with overlap
     ethr =  1.87E-06,  avg # of iterations =  2.0

     negative rho (up, down):  7.592E-05 6.515E-05
 
     Adding external electric field

     Computed dipole along edir(3) : 
        Dipole               -0.6064 Ry au,         -1.5412 Debye
        Dipole field         -0.0004 Ry au, 
 
        Potential amp.        0.0409 Ry
        Total length         55.1515 bohr
 
 
     Adding external electric field

     Computed dipole along edir(3) : 
        Dipole               -0.6064 Ry au,         -1.5412 Debye
        Dipole field         -0.0004 Ry au, 
 
        Potential amp.        0.0409 Ry
        Total length         55.1515 bohr
 

     total cpu time spent up to now is      953.9 secs

     total energy              =   -7738.35397541 Ry
     estimated scf accuracy    <       0.02775434 Ry

     total magnetization       =    87.04 Bohr mag/cell
     absolute magnetization    =    88.51 Bohr mag/cell

     iteration # 58     ecut=    50.00 Ry     beta= 0.10
     Davidson diagonalization with overlap
     ethr =  1.87E-06,  avg # of iterations =  1.0

     negative rho (up, down):  2.413E-04 2.734E-04
 
     Adding external electric field

     Computed dipole along edir(3) : 
        Dipole               -0.5087 Ry au,         -1.2931 Debye
[...]
    -5.9678  -5.9444  -5.9220  -5.9176  -5.9022  -5.8786  -5.8748  -5.8441
    -5.8156  -5.8125  -5.7957  -5.7703  -5.7460  -5.7388  -5.7007  -5.6951
    -5.6873  -5.6541  -5.6120  -5.5887  -5.5793  -5.5446  -5.5272  -5.5072
    -5.4980  -5.4901  -5.4705  -5.4606  -5.4233  -5.4142  -5.3924  -5.3692
    -5.3005  -5.2385  -5.2300  -5.2057  -5.1944  -5.1822  -5.1524  -5.1048
    -5.0403  -5.0298  -5.0061  -4.9652  -4.9573  -4.9382  -4.9201  -4.8669
    -4.8220  -4.7717  -4.7652  -4.7549  -4.7478  -4.7043  -4.6726  -4.6637
    -4.5774  -4.5423  -4.4978  -4.4886  -4.4317  -4.4238  -4.3971  -4.3760
    -4.3667  -4.3399  -4.2234  -4.2142  -4.1881  -4.1641  -4.1363  -4.1088
    -4.0972  -4.0896  -4.0698  -3.9975  -3.9722  -3.9500  -3.9300  -3.9150
    -3.8671  -3.8299  -3.8242  -3.8001  -3.7940  -3.7663  -3.7345  -3.6968
    -3.6755  -3.6426  -3.6213  -3.6135  -3.6102  -3.5887  -3.5885  -3.5694
    -3.5379  -3.5193  -3.5084  -3.4862  -3.4818  -3.4644  -3.4525  -3.4217
    -3.4030  -3.3947  -3.3798  -3.3634  -3.3389  -3.3041  -3.2875  -3.2630
    -3.2365  -3.2353  -3.2159  -3.2056  -3.1934  -3.1464  -3.1261  -3.0998
    -3.0520  -3.0481  -3.0400  -3.0314  -3.0298  -3.0226  -3.0149  -2.9735
    -2.9436  -2.9373  -2.9287  -2.8791  -2.8685  -2.8647  -2.8106  -2.7940
    -2.7687  -2.7669  -2.7574  -2.7547  -2.7339  -2.7293  -2.7088  -2.7030
    -2.6876  -2.6649  -2.6570  -2.6282  -2.6241  -2.6102  -2.6043  -2.5957
    -2.5926  -2.5739  -2.5575  -2.5391  -2.5247  -2.5193  -2.4785  -2.4715
    -2.4502  -2.4409  -2.4196  -2.3924  -2.3590  -2.3525  -2.3317  -2.2996
    -2.2781  -2.2683  -2.2484  -2.2191  -2.2025  -2.1797  -2.1634  -2.1344
    -2.1263  -2.1184  -2.1111  -2.1018  -2.0747  -2.0633  -2.0220  -1.9938
    -1.9754  -1.9621  -1.9489  -1.9303  -1.9152  -1.9085  -1.8916  -1.8628
    -1.8524  -1.8360  -1.8157  -1.8078  -1.8013  -1.7866  -1.7712  -1.7639
    -1.7462  -1.7182  -1.7006  -1.6404  -1.6368  -1.6288  -1.5785  -1.5660
    -1.5610  -1.5324  -1.5099  -1.4994  -1.4888  -1.4806  -1.4478  -1.4342
    -1.4185  -1.4071  -1.3973  -1.3792  -1.3531  -1.3342  -1.3221  -1.3158
    -1.2718  -1.2598  -1.2408  -1.2102  -1.1870  -1.1562  -1.1185  -1.0774
    -1.0096  -0.9051  -0.8892  -0.8686  -0.8476  -0.7227  -0.7141  -0.5571
    -0.4790  -0.3152  -0.2685  -0.1365   0.1824   0.2133   0.2305   0.2472
     0.2532   0.2691   0.2959   0.3080   0.3300   0.3333   0.3531   0.3643
     0.3702   0.3760   0.3926   0.4063   0.4159   0.4170   0.4196   0.4253
     0.4298   0.4333   0.4493   0.4565   0.4591   0.4647   0.4774   0.4923
     0.4954   0.5035   0.5076   0.5154   0.5242   0.5352   0.5353   0.5424
     0.5629   0.5689   0.5775   0.5782   0.5849   0.5978   0.6006   0.6147
     0.6244   0.6259   0.6427   0.6450   0.6490   0.6529   0.6763   0.6803
     0.6840   0.6922   0.6980   0.7077   0.7137   0.7339   0.7383   0.7506
     0.7586   0.7619   0.7637   0.7744   0.7955   0.7983   0.8065   0.8119
     0.8206   0.8223   0.8309   0.8413   0.8529   0.8607   0.8710   0.8711
     0.8812   0.8931   0.9282   0.9389   0.9537   0.9559   0.9597   0.9854
     1.0009   1.0139   1.0992   1.1015   1.2002   1.2223   1.7489   1.7538
     1.7608   1.7739   1.7806   1.7890   1.8071   1.8214   1.8272   1.9061
     1.9217   1.9376   1.9673   1.9845   2.0253   2.0322   2.0470   2.1033
     2.1228   2.1357   2.1482   2.1498   2.1903   2.1959   2.2209   2.2318
     2.2463   2.2591   2.2866   2.2941   2.3047   2.3428   2.3565   2.3635
     2.3756   2.3906   2.3982   2.4172   2.4330   2.4498   2.4577   2.4779
     2.4881   2.5077   2.5104   2.5287   2.5374   2.5576   2.5886   2.6130
     2.6229   2.6370   2.6401   2.6966   2.7775   2.7955   2.8435   2.8631
     2.8917   2.9103   3.3100   3.5112   3.6358   3.6974   3.7752   3.8605
     3.9059   3.9287   3.9317   3.9576   4.0007   4.0699   4.0780   4.0900
     4.1126   4.1436   4.1514   4.1689   4.1855   4.4158   4.4970   4.6407
     4.8335   4.8817   4.9142   4.9379   4.9695   5.0330   5.0495   5.1062
     5.1278   5.1663   5.3951   6.2688   6.3609   6.4977   6.6025   6.6846
     6.7537   6.8339   6.8573   6.9079   6.9626   7.0463   7.0908   7.1832
     7.2453   7.3249   7.3544   7.3997   7.4721   7.5199   7.6175   7.6646
     7.6948   7.7037   7.7437   7.7772   7.8528   7.8628   7.8999   7.9481
     7.9857   8.0093   8.0578   8.0806   8.1176   8.1746   8.2051   8.2181
     8.2230   8.2766   8.3148   8.3351   8.3891   8.4128   8.4243   8.4410
     8.4533   8.4767   8.5082   8.5197   8.5449   8.5675   8.6081   8.6301
     8.6594   8.6924   8.6989   8.7294   8.7467   8.7857   8.8253   8.8534

     the Fermi energy is     1.6627 ev

!    total energy              =   -7738.34972345 Ry
     estimated scf accuracy    <       0.00000068 Ry
     smearing contrib. (-TS)   =      -0.02171956 Ry
     internal energy E=F+TS    =   -7738.32800389 Ry

     The total energy is F=E-TS. E is the sum of the following terms:
     one-electron contribution =  -95225.94319173 Ry
     hartree contribution      =   48229.08347499 Ry
     xc contribution           =   -2218.73573419 Ry
     ewald contribution        =   41479.07722812 Ry
     Dispersion Correction     =      -1.80989026 Ry
     electric field correction =       0.00010919 Ry

     total magnetization       =    86.98 Bohr mag/cell
     absolute magnetization    =    88.48 Bohr mag/cell

     convergence has been achieved in 112 iterations

     negative rho (up, down):  1.049E-03 5.972E-04

     Forces acting on atoms (cartesian axes, Ry/au):

     atom    1 type  1   force =     0.02535945   -0.03099069    0.01836149
     atom    2 type  2   force =    -0.01379874   -0.00157619   -0.00974996
     atom    3 type  1   force =    -0.02336045   -0.01863485    0.01982612
     atom    4 type  1   force =     0.00569466    0.00417070   -0.00620578
     atom    5 type  1   force =    -0.00194701    0.00120531   -0.00519220
     atom    6 type  1   force =     0.00215117    0.00759688   -0.00898942
     atom    7 type  3   force =    -0.00769779    0.00119571   -0.01047617
     atom    8 type  3   force =    -0.03501024    0.05415197   -0.08330101
     atom    9 type  3   force =     0.03413910    0.03817170   -0.06431887
     atom   10 type  3   force =    -0.00303794   -0.00245375   -0.01169173
     atom   11 type  4   force =     0.00665020    0.00550389    0.01384018
     atom   12 type  4   force =    -0.00029981   -0.00289220    0.01486769
     atom   13 type  4   force =     0.00197461    0.00174291    0.01744241
     atom   14 type  4   force =    -0.00046345   -0.00135739    0.01266464
     atom   15 type  4   force =    -0.00069946    0.00452929   -0.00187807
     atom   16 type  4   force =    -0.00045156    0.00268511    0.04016911
     atom   17 type  4   force =     0.00174029    0.00815142    0.03766049
     atom   18 type  4   force =     0.00799775   -0.00451636   -0.00041287
     atom   19 type  4   force =     0.00049700    0.01195132    0.00431301
     atom   20 type  4   force =    -0.00959931   -0.02685699   -0.00371973
     atom   21 type  4   force =    -0.01119157   -0.00045191    0.00068008
     atom   22 type  4   force =    -0.03218387    0.00310208    0.00783349
     atom   23 type  4   force =     0.03219348    0.00057528    0.01404799
     atom   24 type  4   force =     0.00697528   -0.03706734    0.00374260
     atom   25 type  4   force =    -0.00316853    0.00179839    0.00396722
     atom   26 type  4   force =     0.01790211   -0.00684679    0.00080189
     atom   27 type  1   force =    -0.00534516   -0.00880621    0.00283998
     atom   28 type  2   force =    -0.01353140    0.00017125    0.00461083
     atom   29 type  1   force =     0.00299881   -0.00497575   -0.00133824
     atom   30 type  1   force =     0.00251463    0.00384082   -0.00131956
     atom   31 type  1   force =     0.00139086   -0.00461496    0.00021449
     atom   32 type  1   force =    -0.00106747    0.00127216   -0.00163971
     atom   33 type  3   force =    -0.00688738   -0.00333980   -0.00085615
     atom   34 type  3   force =    -0.00810086    0.00270318   -0.00025083
     atom   35 type  3   force =     0.00442385   -0.00069166    0.00263222
     atom   36 type  3   force =     0.00062104    0.00039680   -0.00508001
     atom   37 type  4   force =     0.00877682    0.00550898    0.00722835
     atom   38 type  4   force =     0.00378445   -0.00089802   -0.01938168
     atom   39 type  4   force =    -0.00149606    0.00369383   -0.00973614
     atom   40 type  4   force =    -0.00132426   -0.00268015    0.00953919
     atom   41 type  4   force =    -0.00299721    0.00415433   -0.00715670
     atom   42 type  4   force =    -0.00426938   -0.00452085    0.01785294
     atom   43 type  4   force =     0.00770719    0.00339783    0.00775244
     atom   44 type  4   force =     0.01031834   -0.00557388   -0.00597022
     atom   45 type  4   force =     0.00309931    0.00364289   -0.00017595
     atom   46 type  4   force =     0.00242573   -0.00009735   -0.00557568
     atom   47 type  4   force =    -0.01278191   -0.00078870   -0.00333927
     atom   48 type  4   force =    -0.01469802    0.00127847    0.00340421
     atom   49 type  4   force =     0.01353417    0.00250595    0.00433984
     atom   50 type  4   force =    -0.00270953   -0.00502621   -0.00046195
     atom   51 type  4   force =    -0.00560214    0.00208627    0.00001983
     atom   52 type  4   force =     0.01572559   -0.00354140   -0.00452253
     atom   53 type  1   force =     0.00014473    0.00002641    0.00040615
     atom   54 type  2   force =    -0.00085968   -0.00000277    0.00027533
     atom   55 type  1   force =    -0.00019760   -0.00002251    0.00012513
     atom   56 type  1   force =    -0.00021963    0.00004181   -0.00034469
     atom   57 type  1   force =     0.00010938   -0.00036579    0.00077976
     atom   58 type  1   force =    -0.00013744    0.00012717    0.00059916
     atom   59 type  3   force =    -0.00004050   -0.00018197   -0.00002169
     atom   60 type  3   force =     0.00016754   -0.00020084    0.00011796
     atom   61 type  3   force =    -0.00000016    0.00010780    0.00008223
     atom   62 type  3   force =     0.00033108   -0.00014587    0.00011177
     atom   63 type  4   force =     0.00007995    0.00041786   -0.00014018
     atom   64 type  4   force =     0.00009539    0.00006341   -0.00011445
     atom   65 type  4   force =     0.00002953   -0.00013494    0.00032264
     atom   66 type  4   force =     0.00009118   -0.00008968   -0.00006048
     atom   67 type  4   force =     0.00052948    0.00024045   -0.00001982
     atom   68 type  4   force =    -0.00007272    0.00019955    0.00042518
     atom   69 type  4   force =    -0.00004820   -0.00050307    0.00002878
     atom   70 type  4   force =     0.00007700   -0.00007716    0.00006819
     atom   71 type  4   force =     0.00050686   -0.00062196   -0.00036744
     atom   72 type  4   force =     0.00035240   -0.00025877    0.00012241
     atom   73 type  4   force =     0.00038550   -0.00063585   -0.00014484
     atom   74 type  4   force =     0.00028120   -0.00016207   -0.00008886
     atom   75 type  4   force =    -0.00000605   -0.00016201   -0.00034322
     atom   76 type  4   force =     0.00048390   -0.00020352   -0.00027006
     atom   77 type  4   force =    -0.00038080   -0.00020922    0.00018851
     atom   78 type  4   force =    -0.00003068    0.00006093   -0.00013962
     atom   79 type  1   force =     0.02528620   -0.03099846    0.01834510
     atom   80 type  2   force =    -0.01362713   -0.00147449   -0.00977817
     atom   81 type  1   force =    -0.02334124   -0.01861967    0.01985182
     atom   82 type  1   force =     0.00563052    0.00420023   -0.00622707
     atom   83 type  1   force =    -0.00189805    0.00124315   -0.00521235
     atom   84 type  1   force =     0.00197609    0.00758051   -0.00896824
     atom   85 type  3   force =    -0.00768118    0.00122795   -0.01053504
     atom   86 type  3   force =    -0.03501151    0.05415241   -0.08330721
     atom   87 type  3   force =     0.03414611    0.03817196   -0.06432111
     atom   88 type  3   force =    -0.00305715   -0.00245979   -0.01169485
     atom   89 type  4   force =     0.00678760    0.00552235    0.01385377
     atom   90 type  4   force =    -0.00022415   -0.00279786    0.01487263
     atom   91 type  4   force =     0.00206585    0.00173567    0.01741450
     atom   92 type  4   force =    -0.00030845   -0.00133551    0.01268058
     atom   93 type  4   force =    -0.00069600    0.00473016   -0.00173870
     atom   94 type  4   force =    -0.00051318    0.00263935    0.03996139
     atom   95 type  4   force =     0.00186953    0.00815233    0.03765936
     atom   96 type  4   force =     0.00778895   -0.00452197   -0.00043405
     atom   97 type  4   force =     0.00058416    0.01201353    0.00419074
     atom   98 type  4   force =    -0.00949513   -0.02668780   -0.00368746
     atom   99 type  4   force =    -0.01123586   -0.00040972    0.00087793
     atom  100 type  4   force =    -0.03221454    0.00299862    0.00770744
     atom  101 type  4   force =     0.03219945    0.00057849    0.01406128
     atom  102 type  4   force =     0.00678513   -0.03707377    0.00374597
     atom  103 type  4   force =    -0.00308320    0.00174569    0.00395220
     atom  104 type  4   force =     0.01801254   -0.00683969    0.00081391
     atom  105 type  1   force =    -0.00512919   -0.00893564    0.00286850
     atom  106 type  2   force =    -0.01316144   -0.00024568    0.00459866
     atom  107 type  1   force =     0.00297353   -0.00494525   -0.00142443
     atom  108 type  1   force =     0.00258282    0.00461017   -0.00193427
     atom  109 type  1   force =     0.00154815   -0.00482005    0.00043256
     atom  110 type  1   force =    -0.00059066    0.00128449   -0.00175225
     atom  111 type  3   force =    -0.00664564   -0.00308713   -0.00166878
     atom  112 type  3   force =    -0.00785671    0.00256724   -0.00007594
     atom  113 type  3   force =     0.00443713   -0.00060773    0.00262884
     atom  114 type  3   force =     0.00060964   -0.00037737   -0.00557957
     atom  115 type  4   force =     0.00852693    0.00515719    0.00709124
     atom  116 type  4   force =     0.00378970   -0.00088101   -0.01938769
     atom  117 type  4   force =    -0.00138829    0.00368706   -0.00978024
     atom  118 type  4   force =    -0.00145868   -0.00273135    0.00964463
     atom  119 type  4   force =    -0.00212597    0.00515030   -0.00748838
     atom  120 type  4   force =    -0.00439737   -0.00443953    0.01790393
     atom  121 type  4   force =     0.00772997    0.00336754    0.00779801
     atom  122 type  4   force =     0.01021064   -0.00568146   -0.00660214
     atom  123 type  4   force =     0.00264234    0.00395783    0.00066121
     atom  124 type  4   force =     0.00225941   -0.00018933   -0.00559769
     atom  125 type  4   force =    -0.01265665   -0.00073649   -0.00340751
     atom  126 type  4   force =    -0.01476576    0.00126531    0.00342022
     atom  127 type  4   force =     0.01369075    0.00244362    0.00453268
     atom  128 type  4   force =    -0.00287988   -0.00501044   -0.00048777
     atom  129 type  4   force =    -0.00534429    0.00201443    0.00028816
     atom  130 type  4   force =     0.01556359   -0.00350167   -0.00462009
     atom  131 type  1   force =     0.00040863    0.00048741    0.00076034
     atom  132 type  2   force =     0.00342346    0.00167939   -0.00318435
     atom  133 type  1   force =    -0.00011097    0.00031428    0.00017964
     atom  134 type  1   force =    -0.00022173    0.00010896    0.00044862
     atom  135 type  1   force =     0.00034401   -0.00023768    0.00066569
     atom  136 type  1   force =    -0.00051382   -0.00013318    0.00024219
     atom  137 type  3   force =     0.00002974    0.00019889   -0.00055460
     atom  138 type  3   force =     0.00012896   -0.00014281   -0.00018937
     atom  139 type  3   force =     0.00021963   -0.00014982    0.00012116
     atom  140 type  3   force =     0.00015387   -0.00029925    0.00004556
     atom  141 type  4   force =    -0.00022391   -0.00016238    0.00003323
     atom  142 type  4   force =    -0.00009580   -0.00022746   -0.00006968
     atom  143 type  4   force =     0.00047367   -0.00012146   -0.00003009
     atom  144 type  4   force =    -0.00019473    0.00027452   -0.00008228
     atom  145 type  4   force =     0.00128552   -0.00047733    0.00067445
     atom  146 type  4   force =     0.00009432    0.00023018    0.00032166
     atom  147 type  4   force =     0.00038774   -0.00008403   -0.00060641
     atom  148 type  4   force =     0.00028878    0.00047001    0.00032064
     atom  149 type  4   force =     0.00017380   -0.00033096    0.00044054
     atom  150 type  4   force =    -0.00005490    0.00029080    0.00006316
     atom  151 type  4   force =     0.00021464   -0.00039393   -0.00005596
     atom  152 type  4   force =     0.00022870   -0.00041068   -0.00018262
     atom  153 type  4   force =     0.00024083    0.00027109    0.00038588
     atom  154 type  4   force =    -0.00001629   -0.00039253    0.00025322
     atom  155 type  4   force =    -0.00007812   -0.00066273    0.00052895
     atom  156 type  4   force =    -0.00019147   -0.00078896   -0.00045218
     atom  157 type  4   force =    -0.01540138    0.00497588    0.00600152
     atom  158 type  5   force =     0.01155030   -0.00636771   -0.00173529

     Total force =     0.263793     Total SCF correction =     0.003503
 
     init_run     :      9.23s CPU     10.10s WALL (       1 calls)
     electrons    :   1729.02s CPU   1816.63s WALL (       1 calls)
     forces       :      4.42s CPU      4.89s WALL (       1 calls)
     force_london :      0.12s CPU      0.12s WALL (       1 calls)

     Called by init_run:
     wfcinit      :      5.42s CPU      5.62s WALL (       1 calls)
     potinit      :      0.76s CPU      1.02s WALL (       1 calls)
     hinit0       :      1.65s CPU      1.77s WALL (       1 calls)

     Called by electrons:
     c_bands      :   1357.19s CPU   1401.22s WALL (     112 calls)
     sum_band     :    234.27s CPU    257.07s WALL (     112 calls)
     v_of_rho     :     30.48s CPU     32.01s WALL (     113 calls)
     newd         :     68.45s CPU     87.65s WALL (     113 calls)
     mix_rho      :     36.79s CPU     37.03s WALL (     112 calls)
     energy_londo :      0.10s CPU      0.10s WALL (       1 calls)

     Called by c_bands:
     init_us_2    :      4.06s CPU      4.16s WALL (     452 calls)
     init_us_2:cp :      4.05s CPU      4.16s WALL (     452 calls)
     regterg      :   1326.39s CPU   1369.99s WALL (     227 calls)

     Called by *egterg:
     rdiaghg      :    372.98s CPU    394.30s WALL (     878 calls)
     h_psi        :    536.14s CPU    545.22s WALL (     880 calls)
     s_psi        :     96.95s CPU     96.99s WALL (     880 calls)
     g_psi        :      0.74s CPU      0.74s WALL (     651 calls)

     Called by h_psi:
     h_psi:calbec :    130.16s CPU    137.93s WALL (     880 calls)
     vloc_psi     :    307.63s CPU    308.78s WALL (     880 calls)
     add_vuspsi   :     96.97s CPU     97.10s WALL (     880 calls)

     General routines
     calbec       :    192.48s CPU    204.14s WALL (    1112 calls)
     fft          :     28.97s CPU     31.23s WALL (    2047 calls)
     ffts         :     22.04s CPU     22.11s WALL (   13991 calls)
     fftw         :    342.40s CPU    343.66s WALL (  378924 calls)
     interpolate  :      2.26s CPU      2.43s WALL (     226 calls)
 
     Parallel routines
 
     PWSCF        :  29m 5.13s CPU  30m34.52s WALL

 
   This run was terminated on:  21:29:58  17Nov2025            

=------------------------------------------------------------------------------=
   JOB DONE.
=------------------------------------------------------------------------------=
