
     Program PWSCF v.7.2 starts on 17Nov2025 at 22: 3:46 

     This program is part of the open-source Quantum ESPRESSO suite
     for quantum simulation of materials; please cite
         "P. Giannozzi et al., J. Phys.:Condens. Matter 21 395502 (2009);
         "P. Giannozzi et al., J. Phys.:Condens. Matter 29 465901 (2017);
         "P. Giannozzi et al., J. Chem. Phys. 152 154105 (2020);
          URL http://www.quantum-espresso.org", 
     in publications or presentations arising from this work. More details at
     http://www.quantum-espresso.org/quote

     Parallel version (MPI), running on    64 processors

     MPI processes distributed on     4 nodes
     369190 MiB available memory on the printing compute node when the environment starts
 
     Reading input from PWINPUT_atm157_yp

     Current dimensions of program PWSCF are:
     Max number of different atomic species (ntypx) = 10
     Max number of k-points (npk) =  40000
     Max angular momentum in pseudopotentials (lmaxx) =  4
     Presently no symmetry can be used with electric field

     file Ni.pbe-n-rrkjus_psl.1.0.0.UPF: wavefunction(s)  3D renormalized
     file Mn.pbe-spn-rrkjus_psl.0.3.1.UPF: wavefunction(s)  3D renormalized
     file O.pbe-rrkjus.UPF: wavefunction(s)  2S renormalized
     file H.pbe-rrkjus.UPF: wavefunction(s)  1S renormalized

     gamma-point specific algorithms are used
 
     R & G space division:  proc/nbgrp/npool/nimage =      64
     Subspace diagonalization in iterative solution of the eigenvalue problem:
     one sub-group per band group will be used
     custom distributed-memory algorithm (size of sub-group:  7*  7 procs)

 
     Parallelization info
     --------------------
     sticks:   dense  smooth     PW     G-vecs:    dense   smooth      PW
     Min         207      82     20                60552    15302    1896
     Max         210      84     22                60574    15336    1950
     Sum       13325    5345   1333              3876045   980655  122653
 
     Using Slab Decomposition
 


     bravais-lattice index     =            0
     lattice parameter (alat)  =      17.4067  a.u.
     unit-cell volume          =   20529.8182 (a.u.)^3
     number of atoms/cell      =          158
     number of atomic types    =            5
     number of electrons       =      1093.00
     number of Kohn-Sham states=          656
     kinetic-energy cutoff     =      50.0000  Ry
     charge density cutoff     =     500.0000  Ry
     scf convergence threshold =      1.0E-06
     mixing beta               =       0.1000
     number of iterations used =            8  local-TF  mixing
     Exchange-correlation=  SLA  PW   PBE  PBE
                           (   1   4   3   4   0   0   0)

     celldm(1)=  17.406729  celldm(2)=   0.000000  celldm(3)=   0.000000
     celldm(4)=   0.000000  celldm(5)=   0.000000  celldm(6)=   0.000000

     crystal axes: (cart. coord. in units of alat)
               a(1) = (   1.000000   0.000000   0.000000 )  
               a(2) = (  -0.001404   1.105696   0.000000 )  
               a(3) = (   0.000000   0.000000   3.520448 )  

     reciprocal axes: (cart. coord. in units 2 pi/alat)
               b(1) = (  1.000000  0.001270  0.000000 )  
               b(2) = (  0.000000  0.904408  0.000000 )  
               b(3) = (  0.000000  0.000000  0.284055 )  


     PseudoPot. # 1 for Ni read from file:
     ~/PSEUDO/Ni.pbe-n-rrkjus_psl.1.0.0.UPF
     MD5 check sum: Not computed, couldn't open file
     Pseudo is Ultrasoft + core correction, Zval = 10.0
     Generated using "atomic" code by A. Dal Corso  v.5.1.2
     Using radial grid of 1195 points,  6 beta functions with: 
                l(1) =   0
                l(2) =   0
                l(3) =   1
                l(4) =   1
                l(5) =   2
                l(6) =   2
     Q(r) pseudized with 0 coefficients 


     PseudoPot. # 2 for Mn read from file:
     ~/PSEUDO/Mn.pbe-spn-rrkjus_psl.0.3.1.UPF
     MD5 check sum: Not computed, couldn't open file
     Pseudo is Ultrasoft + core correction, Zval = 15.0
     Generated using &quot;atomic&quot; code by A. Dal Corso  v.6.2.2
     Using radial grid of 1187 points,  6 beta functions with: 
                l(1) =   0
                l(2) =   0
                l(3) =   1
                l(4) =   1
                l(5) =   2
                l(6) =   2
     Q(r) pseudized with 0 coefficients 


     PseudoPot. # 3 for P  read from file:
     ~/PSEUDO/P.pbe-n-rrkjus_psl.1.0.0.UPF
     MD5 check sum: Not computed, couldn't open file
     Pseudo is Ultrasoft + core correction, Zval =  5.0
     Generated using "atomic" code by A. Dal Corso  v.5.1
     Using radial grid of 1147 points,  6 beta functions with: 
                l(1) =   0
                l(2) =   0
                l(3) =   1
                l(4) =   1
                l(5) =   2
                l(6) =   2
     Q(r) pseudized with 0 coefficients 


     PseudoPot. # 4 for O  read from file:
     ~/PSEUDO/O.pbe-rrkjus.UPF
     MD5 check sum: Not computed, couldn't open file
     Pseudo is Ultrasoft, Zval =  6.0
     Generated by new atomic code, or converted to UPF format
     Using radial grid of 1269 points,  4 beta functions with: 
                l(1) =   0
                l(2) =   0
                l(3) =   1
                l(4) =   1
     Q(r) pseudized with 0 coefficients 


     PseudoPot. # 5 for H  read from file:
     ~/PSEUDO/H.pbe-rrkjus.UPF
     MD5 check sum: Not computed, couldn't open file
     Pseudo is Ultrasoft, Zval =  1.0
     Generated by new atomic code, or converted to UPF format
     Using radial grid of 1061 points,  2 beta functions with: 
                l(1) =   0
                l(2) =   0
     Q(r) pseudized with 0 coefficients 


     atomic species   valence    mass     pseudopotential
     Ni               10.00    58.69300     Ni( 1.00)
     Mn               15.00    54.93800     Mn( 1.00)
     P                 5.00    30.97300     P ( 1.00)
     O                 6.00    15.99900     O ( 1.00)
     H                 1.00     1.00790     H ( 1.00)

     Starting magnetic structure 
     atomic species   magnetization
     Ni              1.000
     Mn              1.000
     P               1.000
     O               1.000
     H               0.000

     No symmetry found



   Cartesian axes

     site n.     atom                  positions (alat units)
         1        Ni     tau(   1) = (   0.2421002   0.8609138   0.1302181  )
         2        Mn     tau(   2) = (   0.4924481   0.7886602   0.4655392  )
         3        Ni     tau(   3) = (   0.0052341   0.3031820   0.1284544  )
         4        Ni     tau(   4) = (   0.2570603   0.2374878   0.4617901  )
         5        Ni     tau(   5) = (   0.4976584   1.1048203   0.2964410  )
         6        Ni     tau(   6) = (   0.2495781   0.5440308   0.2953805  )
         7        P      tau(   7) = (   0.2083492   0.9982113   0.4588145  )
         8        P      tau(   8) = (   0.4584476   0.6559264   0.1347090  )
         9        P      tau(   9) = (   0.2889394   0.1031966   0.1319347  )
        10        P      tau(  10) = (   0.0400379   0.4338094   0.4586283  )
        11        O      tau(  11) = (   0.1314218   0.9248062   0.3189972  )
        12        O      tau(  12) = (   0.3797244   0.7272031   0.2742874  )
        13        O      tau(  13) = (   0.3662315   0.1762062   0.2720888  )
        14        O      tau(  14) = (   0.1171240   0.3646150   0.3169340  )
        15        O      tau(  15) = (   0.1510364   0.9068326   0.5881934  )
        16        O      tau(  16) = (   0.3981989   0.7453439   0.0053495  )
        17        O      tau(  17) = (   0.3490561   0.1888693   0.0010856  )
        18        O      tau(  18) = (   0.0982395   0.3475583   0.5894443  )
        19        O      tau(  19) = (   0.0992163   0.5918099   0.4542505  )
        20        O      tau(  20) = (   0.3467441   1.0504690   0.1405000  )
        21        O      tau(  21) = (   0.3739183   0.4303319   0.4477971  )
        22        O      tau(  22) = (   0.1230967   0.1088895   0.1422960  )
        23        O      tau(  23) = (   0.1242901   0.6635968   0.1442928  )
        24        O      tau(  24) = (   0.4011802   0.4971632   0.1376281  )
        25        O      tau(  25) = (   0.1484006   0.0497464   0.4550965  )
        26        O      tau(  26) = (   0.3736100   0.9942556   0.4492158  )
        27        Ni     tau(  27) = (   0.2413539   0.8509941   0.7820408  )
        28        Mn     tau(  28) = (   0.4917018   0.7787406   1.1173619  )
        29        Ni     tau(  29) = (   0.0044877   0.2932623   0.7802771  )
        30        Ni     tau(  30) = (   0.2563139   0.2275682   1.1136128  )
        31        Ni     tau(  31) = (   0.4969120   1.0949007   0.9482637  )
        32        Ni     tau(  32) = (   0.2488318   0.5341111   0.9472032  )
        33        P      tau(  33) = (   0.2076029   0.9882917   1.1106372  )
        34        P      tau(  34) = (   0.4577012   0.6460068   0.7865316  )
        35        P      tau(  35) = (   0.2881931   0.0932770   0.7837574  )
        36        P      tau(  36) = (   0.0392916   0.4238898   1.1104509  )
        37        O      tau(  37) = (   0.1306755   0.9148866   0.9708199  )
        38        O      tau(  38) = (   0.3789780   0.7172835   0.9261101  )
        39        O      tau(  39) = (   0.3654852   0.1662865   0.9239115  )
        40        O      tau(  40) = (   0.1163776   0.3546954   0.9687567  )
        41        O      tau(  41) = (   0.1502901   0.8969129   1.2400160  )
        42        O      tau(  42) = (   0.3974525   0.7354243   0.6571722  )
        43        O      tau(  43) = (   0.3483097   0.1789497   0.6529083  )
        44        O      tau(  44) = (   0.0974932   0.3376387   1.2412670  )
        45        O      tau(  45) = (   0.0984699   0.5818903   1.1060732  )
        46        O      tau(  46) = (   0.3459978   1.0405493   0.7923226  )
        47        O      tau(  47) = (   0.3731719   0.4204123   1.0996198  )
        48        O      tau(  48) = (   0.1223503   0.0989699   0.7941187  )
        49        O      tau(  49) = (   0.1235438   0.6536772   0.7961155  )
        50        O      tau(  50) = (   0.4004339   0.4872435   0.7894508  )
        51        O      tau(  51) = (   0.1476543   0.0398268   1.1069192  )
        52        O      tau(  52) = (   0.3728637   0.9843360   1.1010385  )
        53        Ni     tau(  53) = (   0.2370412   0.8309538   1.4331176  )
        54        Mn     tau(  54) = (   0.4926631   0.7628968   1.7632485  )
        55        Ni     tau(  55) = (   0.0034911   0.2761505   1.4288190  )
        56        Ni     tau(  56) = (   0.2447240   0.2143424   1.7402852  )
        57        Ni     tau(  57) = (   0.4995763   1.0749455   1.5940578  )
        58        Ni     tau(  58) = (   0.2416135   0.5184975   1.5926664  )
        59        P      tau(  59) = (   0.2112504   0.9662532   1.7634059  )
        60        P      tau(  60) = (   0.4542182   0.6277361   1.4346135  )
        61        P      tau(  61) = (   0.2883980   0.0741680   1.4295170  )
        62        P      tau(  62) = (   0.0313409   0.4059310   1.7580048  )
        63        O      tau(  63) = (   0.1301929   0.8896257   1.6241257  )
        64        O      tau(  64) = (   0.3764588   0.7005702   1.5725819  )
        65        O      tau(  65) = (   0.3665257   0.1482364   1.5677237  )
        66        O      tau(  66) = (   0.1091997   0.3432023   1.6091719  )
        67        O      tau(  67) = (   0.1578284   0.8739230   1.8896615  )
        68        O      tau(  68) = (   0.3933424   0.7186889   1.3072492  )
        69        O      tau(  69) = (   0.3501246   0.1627399   1.3008447  )
        70        O      tau(  70) = (   0.0912886   0.3068810   1.8752755  )
        71        O      tau(  71) = (   0.0914117   0.5660224   1.7516325  )
        72        O      tau(  72) = (   0.3458000   1.0214174   1.4372269  )
        73        O      tau(  73) = (   0.3623972   0.4009134   1.7433105  )
        74        O      tau(  74) = (   0.1220058   0.0808885   1.4419267  )
        75        O      tau(  75) = (   0.1203913   0.6366918   1.4432295  )
        76        O      tau(  76) = (   0.3954417   0.4696211   1.4353043  )
        77        O      tau(  77) = (   0.1540582   0.0191928   1.7538461  )
        78        O      tau(  78) = (   0.3779668   0.9615796   1.7458500  )
        79        Ni     tau(  79) = (   0.7421002   0.8609138   0.1302181  )
        80        Mn     tau(  80) = (   0.9924481   0.7886602   0.4655392  )
        81        Ni     tau(  81) = (   0.5052341   0.3031820   0.1284544  )
        82        Ni     tau(  82) = (   0.7570603   0.2374878   0.4617901  )
        83        Ni     tau(  83) = (   0.9976584   1.1048203   0.2964410  )
        84        Ni     tau(  84) = (   0.7495781   0.5440308   0.2953805  )
        85        P      tau(  85) = (   0.7083492   0.9982113   0.4588145  )
        86        P      tau(  86) = (   0.9584476   0.6559264   0.1347090  )
        87        P      tau(  87) = (   0.7889394   0.1031966   0.1319347  )
        88        P      tau(  88) = (   0.5400379   0.4338094   0.4586283  )
        89        O      tau(  89) = (   0.6314218   0.9248062   0.3189972  )
        90        O      tau(  90) = (   0.8797244   0.7272031   0.2742874  )
        91        O      tau(  91) = (   0.8662315   0.1762062   0.2720888  )
        92        O      tau(  92) = (   0.6171240   0.3646150   0.3169340  )
        93        O      tau(  93) = (   0.6510364   0.9068326   0.5881934  )
        94        O      tau(  94) = (   0.8981989   0.7453439   0.0053495  )
        95        O      tau(  95) = (   0.8490561   0.1888693   0.0010856  )
        96        O      tau(  96) = (   0.5982395   0.3475583   0.5894443  )
        97        O      tau(  97) = (   0.5992163   0.5918099   0.4542505  )
        98        O      tau(  98) = (   0.8467441   1.0504690   0.1405000  )
        99        O      tau(  99) = (   0.8739183   0.4303319   0.4477971  )
       100        O      tau( 100) = (   0.6230967   0.1088895   0.1422960  )
       101        O      tau( 101) = (   0.6242901   0.6635968   0.1442928  )
       102        O      tau( 102) = (   0.9011802   0.4971632   0.1376281  )
       103        O      tau( 103) = (   0.6484006   0.0497464   0.4550965  )
       104        O      tau( 104) = (   0.8736100   0.9942556   0.4492158  )
       105        Ni     tau( 105) = (   0.7413539   0.8509941   0.7820408  )
       106        Mn     tau( 106) = (   0.9917018   0.7787406   1.1173619  )
       107        Ni     tau( 107) = (   0.5044877   0.2932623   0.7802771  )
       108        Ni     tau( 108) = (   0.7563139   0.2275682   1.1136128  )
       109        Ni     tau( 109) = (   0.9969120   1.0949007   0.9482637  )
       110        Ni     tau( 110) = (   0.7488318   0.5341111   0.9472032  )
       111        P      tau( 111) = (   0.7076029   0.9882917   1.1106372  )
       112        P      tau( 112) = (   0.9577012   0.6460068   0.7865316  )
       113        P      tau( 113) = (   0.7881931   0.0932770   0.7837574  )
       114        P      tau( 114) = (   0.5392916   0.4238898   1.1104509  )
       115        O      tau( 115) = (   0.6306755   0.9148866   0.9708199  )
       116        O      tau( 116) = (   0.8789780   0.7172835   0.9261101  )
       117        O      tau( 117) = (   0.8654852   0.1662865   0.9239115  )
       118        O      tau( 118) = (   0.6163776   0.3546954   0.9687567  )
       119        O      tau( 119) = (   0.6502901   0.8969129   1.2400160  )
       120        O      tau( 120) = (   0.8974525   0.7354243   0.6571722  )
       121        O      tau( 121) = (   0.8483097   0.1789497   0.6529083  )
       122        O      tau( 122) = (   0.5974932   0.3376387   1.2412670  )
       123        O      tau( 123) = (   0.5984699   0.5818903   1.1060732  )
       124        O      tau( 124) = (   0.8459978   1.0405493   0.7923226  )
       125        O      tau( 125) = (   0.8731719   0.4204123   1.0996198  )
       126        O      tau( 126) = (   0.6223503   0.0989699   0.7941187  )
       127        O      tau( 127) = (   0.6235438   0.6536772   0.7961155  )
       128        O      tau( 128) = (   0.9004339   0.4872435   0.7894508  )
       129        O      tau( 129) = (   0.6476543   0.0398268   1.1069192  )
       130        O      tau( 130) = (   0.8728637   0.9843360   1.1010385  )
       131        Ni     tau( 131) = (   0.7405475   0.8318259   1.4311132  )
       132        Mn     tau( 132) = (   0.9956110   0.7649913   1.7729082  )
       133        Ni     tau( 133) = (   0.5039471   0.2761330   1.4286777  )
       134        Ni     tau( 134) = (   0.7471906   0.2159197   1.7400299  )
       135        Ni     tau( 135) = (   0.9997237   1.0727158   1.5948335  )
       136        Ni     tau( 136) = (   0.7423591   0.5225842   1.5983173  )
       137        P      tau( 137) = (   0.7106654   0.9687571   1.7578636  )
       138        P      tau( 138) = (   0.9535148   0.6281623   1.4350960  )
       139        P      tau( 139) = (   0.7895630   0.0747538   1.4291325  )
       140        P      tau( 140) = (   0.5297546   0.4018931   1.7598490  )
       141        O      tau( 141) = (   0.6360973   0.9008987   1.6134331  )
       142        O      tau( 142) = (   0.8772031   0.7029798   1.5721256  )
       143        O      tau( 143) = (   0.8675063   0.1478470   1.5680249  )
       144        O      tau( 144) = (   0.6092829   0.3462856   1.6101587  )
       145        O      tau( 145) = (   0.6496647   0.8750286   1.8813068  )
       146        O      tau( 146) = (   0.8923560   0.7173781   1.3061853  )
       147        O      tau( 147) = (   0.8502327   0.1643644   1.3007850  )
       148        O      tau( 148) = (   0.5890056   0.3002177   1.8750650  )
       149        O      tau( 149) = (   0.5837121   0.5633300   1.7648578  )
       150        O      tau( 150) = (   0.8492978   1.0227497   1.4347303  )
       151        O      tau( 151) = (   0.8642300   0.4033737   1.7425194  )
       152        O      tau( 152) = (   0.6231466   0.0817702   1.4418230  )
       153        O      tau( 153) = (   0.6205382   0.6372338   1.4467102  )
       154        O      tau( 154) = (   0.8948089   0.4700688   1.4374848  )
       155        O      tau( 155) = (   0.6554469   0.0221206   1.7549295  )
       156        O      tau( 156) = (   0.8783489   0.9609671   1.7489419  )
       157        O      tau( 157) = (   0.8834747   0.6930335   1.9099437  )
       158        H      tau( 158) = (   0.7942685   0.7497743   1.9280084  )

     -------------------------------------------------
     Parameters for Dispersion (Grimme-D2) Correction:
     -------------------------------------------------
       atom      VdW radius       C_6     

        Ni         2.952        374.666
        Mn         2.952        374.666
        P          3.222        271.980
        O          2.536         24.284
        H          1.892          4.857

     number of k points=     1  Gaussian smearing, width (Ry)=  0.0100
                       cart. coord. in units 2pi/alat
        k(    1) = (   0.0000000   0.0000000   0.0000000), wk =   1.0000000

     Dense  grid:  1938023 G-vectors     FFT dimensions: ( 125, 144, 450)

     Smooth grid:   490328 G-vectors     FFT dimensions: (  80,  90, 288)

     Estimated max dynamical RAM per process >     326.29 MB

     Estimated total dynamical RAM >      20.39 GB

     Check: negative core charge=   -0.000001
     Generating pointlists ...
     new r_m :   0.0887 (alat units)  1.5433 (a.u.) for type    1
     new r_m :   0.0788 (alat units)  1.3724 (a.u.) for type    2
     new r_m :   0.0679 (alat units)  1.1825 (a.u.) for type    3
     new r_m :   0.0442 (alat units)  0.7701 (a.u.) for type    4
     new r_m :   0.0442 (alat units)  0.7701 (a.u.) for type    5

     Initial potential from superposition of free atoms

     starting charge    1092.8893, renormalised to    1093.0000

     negative rho (up, down):  1.403E-03 4.538E-04
 
     Adding external electric field

     Computed dipole along edir(3) : 
        Dipole                1.6282 Ry au,          4.1384 Debye
        Dipole field          0.0010 Ry au, 
 
        Potential amp.       -0.1099 Ry
        Total length         55.1515 bohr
 
 
     Adding external electric field

     Computed dipole along edir(3) : 
        Dipole                1.6282 Ry au,          4.1384 Debye
        Dipole field          0.0010 Ry au, 
 
        Potential amp.       -0.1099 Ry
        Total length         55.1515 bohr
 
     Starting wfcs are  815 randomized atomic wfcs

     total cpu time spent up to now is       12.2 secs

     Self-consistent Calculation

     iteration #  1     ecut=    50.00 Ry     beta= 0.10
     Davidson diagonalization with overlap
     ethr =  1.00E-02,  avg # of iterations =  6.0

     negative rho (up, down):  3.729E-01 2.477E-07
 
     Adding external electric field

     Computed dipole along edir(3) : 
        Dipole               -3.6092 Ry au,         -9.1736 Debye
        Dipole field         -0.0022 Ry au, 
 
        Potential amp.        0.2437 Ry
        Total length         55.1515 bohr
 
 
     Adding external electric field

     Computed dipole along edir(3) : 
        Dipole               -3.6092 Ry au,         -9.1736 Debye
        Dipole field         -0.0022 Ry au, 
 
        Potential amp.        0.2437 Ry
        Total length         55.1515 bohr
 

     total cpu time spent up to now is       45.3 secs

     total energy              =   -7516.78674885 Ry
     estimated scf accuracy    <     736.89476955 Ry

     total magnetization       =   219.00 Bohr mag/cell
     absolute magnetization    =   307.57 Bohr mag/cell

     iteration #  2     ecut=    50.00 Ry     beta= 0.10
     Davidson diagonalization with overlap
     ethr =  1.00E-02,  avg # of iterations =  2.0

     negative rho (up, down):  3.545E-01 7.574E-08
 
     Adding external electric field

     Computed dipole along edir(3) : 
        Dipole               -2.3929 Ry au,         -6.0821 Debye
        Dipole field         -0.0015 Ry au, 
 
        Potential amp.        0.1616 Ry
        Total length         55.1515 bohr
 
 
     Adding external electric field

     Computed dipole along edir(3) : 
        Dipole               -2.3929 Ry au,         -6.0821 Debye
        Dipole field         -0.0015 Ry au, 
 
        Potential amp.        0.1616 Ry
        Total length         55.1515 bohr
 

     total cpu time spent up to now is       64.7 secs

     total energy              =   -7600.21039791 Ry
     estimated scf accuracy    <     218.21272720 Ry

     total magnetization       =   159.59 Bohr mag/cell
     absolute magnetization    =   207.68 Bohr mag/cell

     iteration #  3     ecut=    50.00 Ry     beta= 0.10
     Davidson diagonalization with overlap
     ethr =  1.00E-02,  avg # of iterations =  1.5

     negative rho (up, down):  3.153E-01 6.303E-08
 
     Adding external electric field

     Computed dipole along edir(3) : 
        Dipole               -2.0835 Ry au,         -5.2956 Debye
        Dipole field         -0.0013 Ry au, 
 
        Potential amp.        0.1407 Ry
        Total length         55.1515 bohr
 
 
     Adding external electric field

     Computed dipole along edir(3) : 
        Dipole               -2.0835 Ry au,         -5.2956 Debye
        Dipole field         -0.0013 Ry au, 
 
        Potential amp.        0.1407 Ry
        Total length         55.1515 bohr
 

     total cpu time spent up to now is       79.7 secs

     total energy              =   -7630.08687339 Ry
     estimated scf accuracy    <     100.48799631 Ry

     total magnetization       =   136.18 Bohr mag/cell
     absolute magnetization    =   186.75 Bohr mag/cell

     iteration #  4     ecut=    50.00 Ry     beta= 0.10
     Davidson diagonalization with overlap
     ethr =  9.19E-03,  avg # of iterations =  1.0

     negative rho (up, down):  2.435E-01 1.842E-08
 
     Adding external electric field

     Computed dipole along edir(3) : 
        Dipole               -1.9618 Ry au,         -4.9863 Debye
        Dipole field         -0.0012 Ry au, 
 
        Potential amp.        0.1325 Ry
        Total length         55.1515 bohr
 
 
     Adding external electric field

     Computed dipole along edir(3) : 
        Dipole               -1.9618 Ry au,         -4.9863 Debye
        Dipole field         -0.0012 Ry au, 
 
        Potential amp.        0.1325 Ry
        Total length         55.1515 bohr
 

     total cpu time spent up to now is       93.6 secs

     total energy              =   -7663.75988940 Ry
     estimated scf accuracy    <      82.33269212 Ry

     total magnetization       =   120.06 Bohr mag/cell
     absolute magnetization    =   172.43 Bohr mag/cell

     iteration #  5     ecut=    50.00 Ry     beta= 0.10
     Davidson diagonalization with overlap
     ethr =  7.53E-03,  avg # of iterations =  1.0

     negative rho (up, down):  2.577E-02 1.490E-07
 
     Adding external electric field

     Computed dipole along edir(3) : 
        Dipole               -1.5352 Ry au,         -3.9021 Debye
        Dipole field         -0.0009 Ry au, 
 
        Potential amp.        0.1037 Ry
        Total length         55.1515 bohr
 
 
     Adding external electric field

     Computed dipole along edir(3) : 
        Dipole               -1.5352 Ry au,         -3.9021 Debye
        Dipole field         -0.0009 Ry au, 
 
        Potential amp.        0.1037 Ry
        Total length         55.1515 bohr
 

     total cpu time spent up to now is      107.8 secs

     total energy              =   -7723.07679240 Ry
     estimated scf accuracy    <      65.33228079 Ry

     total magnetization       =    97.20 Bohr mag/cell
     absolute magnetization    =   153.29 Bohr mag/cell

     iteration #  6     ecut=    50.00 Ry     beta= 0.10
     Davidson diagonalization with overlap
     ethr =  5.98E-03,  avg # of iterations =  1.5

     negative rho (up, down):  7.762E-04 1.361E-03
 
     Adding external electric field

     Computed dipole along edir(3) : 
        Dipole               -1.1940 Ry au,         -3.0348 Debye
        Dipole field         -0.0007 Ry au, 
 
        Potential amp.        0.0806 Ry
        Total length         55.1515 bohr
 
 
     Adding external electric field

     Computed dipole along edir(3) : 
        Dipole               -1.1940 Ry au,         -3.0348 Debye
        Dipole field         -0.0007 Ry au, 
 
        Potential amp.        0.0806 Ry
        Total length         55.1515 bohr
 

     total cpu time spent up to now is      123.0 secs

     total energy              =   -7735.57161327 Ry
     estimated scf accuracy    <      14.02641053 Ry

     total magnetization       =    91.00 Bohr mag/cell
     absolute magnetization    =   125.41 Bohr mag/cell

     iteration #  7     ecut=    50.00 Ry     beta= 0.10
     Davidson diagonalization with overlap
     ethr =  1.28E-03,  avg # of iterations =  6.0

     negative rho (up, down):  7.332E-04 1.259E-03
 
     Adding external electric field

     Computed dipole along edir(3) : 
        Dipole               -1.1674 Ry au,         -2.9672 Debye
        Dipole field         -0.0007 Ry au, 
 
        Potential amp.        0.0788 Ry
        Total length         55.1515 bohr
 
 
     Adding external electric field

     Computed dipole along edir(3) : 
        Dipole               -1.1674 Ry au,         -2.9672 Debye
        Dipole field         -0.0007 Ry au, 
 
        Potential amp.        0.0788 Ry
        Total length         55.1515 bohr
 

     total cpu time spent up to now is      149.6 secs

     total energy              =   -7738.50124090 Ry
     estimated scf accuracy    <      38.97660924 Ry

     total magnetization       =    64.50 Bohr mag/cell
     absolute magnetization    =    82.34 Bohr mag/cell

     iteration #  8     ecut=    50.00 Ry     beta= 0.10
     Davidson diagonalization with overlap
     ethr =  1.28E-03,  avg # of iterations =  1.0

     negative rho (up, down):  6.074E-04 9.604E-04
 
     Adding external electric field

     Computed dipole along edir(3) : 
        Dipole               -1.0786 Ry au,         -2.7414 Debye
        Dipole field         -0.0007 Ry au, 
 
        Potential amp.        0.0728 Ry
        Total length         55.1515 bohr
 
 
     Adding external electric field

     Computed dipole along edir(3) : 
        Dipole               -1.0786 Ry au,         -2.7414 Debye
        Dipole field         -0.0007 Ry au, 
 
        Potential amp.        0.0728 Ry
        Total length         55.1515 bohr
 

     total cpu time spent up to now is      163.4 secs

     total energy              =   -7738.38454863 Ry
     estimated scf accuracy    <      35.14518469 Ry

     total magnetization       =    65.76 Bohr mag/cell
     absolute magnetization    =    83.15 Bohr mag/cell

     iteration #  9     ecut=    50.00 Ry     beta= 0.10
     Davidson diagonalization with overlap
     ethr =  1.28E-03,  avg # of iterations =  1.0

     negative rho (up, down):  5.576E-04 8.857E-04
 
     Adding external electric field

     Computed dipole along edir(3) : 
        Dipole               -1.0646 Ry au,         -2.7059 Debye
        Dipole field         -0.0007 Ry au, 
 
        Potential amp.        0.0719 Ry
        Total length         55.1515 bohr
 
 
     Adding external electric field

     Computed dipole along edir(3) : 
        Dipole               -1.0646 Ry au,         -2.7059 Debye
        Dipole field         -0.0007 Ry au, 
 
        Potential amp.        0.0719 Ry
        Total length         55.1515 bohr
 

     total cpu time spent up to now is      177.4 secs

     total energy              =   -7738.36877315 Ry
     estimated scf accuracy    <      26.12154782 Ry

     total magnetization       =    68.20 Bohr mag/cell
     absolute magnetization    =    84.66 Bohr mag/cell

     iteration # 10     ecut=    50.00 Ry     beta= 0.10
     Davidson diagonalization with overlap
     ethr =  1.28E-03,  avg # of iterations =  1.0

     negative rho (up, down):  4.594E-04 7.696E-04
 
     Adding external electric field

     Computed dipole along edir(3) : 
        Dipole               -1.2122 Ry au,         -3.0812 Debye
        Dipole field         -0.0007 Ry au, 
 
        Potential amp.        0.0818 Ry
        Total length         55.1515 bohr
 
 
     Adding external electric field

     Computed dipole along edir(3) : 
        Dipole               -1.2122 Ry au,         -3.0812 Debye
        Dipole field         -0.0007 Ry au, 
 
        Potential amp.        0.0818 Ry
        Total length         55.1515 bohr
 

     total cpu time spent up to now is      190.9 secs

     total energy              =   -7738.01321215 Ry
     estimated scf accuracy    <      24.09456189 Ry

     total magnetization       =    68.65 Bohr mag/cell
     absolute magnetization    =    84.59 Bohr mag/cell

     iteration # 11     ecut=    50.00 Ry     beta= 0.10
     Davidson diagonalization with overlap
     ethr =  1.28E-03,  avg # of iterations =  1.0

     negative rho (up, down):  3.788E-04 6.250E-04
 
     Adding external electric field

     Computed dipole along edir(3) : 
        Dipole               -1.1625 Ry au,         -2.9547 Debye
        Dipole field         -0.0007 Ry au, 
 
        Potential amp.        0.0785 Ry
        Total length         55.1515 bohr
 
 
     Adding external electric field

     Computed dipole along edir(3) : 
        Dipole               -1.1625 Ry au,         -2.9547 Debye
        Dipole field         -0.0007 Ry au, 
 
        Potential amp.        0.0785 Ry
        Total length         55.1515 bohr
 

     total cpu time spent up to now is      203.9 secs

     total energy              =   -7737.95049723 Ry
     estimated scf accuracy    <      14.40732964 Ry

     total magnetization       =    72.42 Bohr mag/cell
     absolute magnetization    =    85.75 Bohr mag/cell

     iteration # 12     ecut=    50.00 Ry     beta= 0.10
     Davidson diagonalization with overlap
     ethr =  1.28E-03,  avg # of iterations =  1.0

     negative rho (up, down):  2.701E-04 4.771E-04
 
     Adding external electric field

     Computed dipole along edir(3) : 
        Dipole               -1.0611 Ry au,         -2.6970 Debye
        Dipole field         -0.0006 Ry au, 
 
        Potential amp.        0.0716 Ry
        Total length         55.1515 bohr
 
 
     Adding external electric field

     Computed dipole along edir(3) : 
        Dipole               -1.0611 Ry au,         -2.6970 Debye
        Dipole field         -0.0006 Ry au, 
 
        Potential amp.        0.0716 Ry
        Total length         55.1515 bohr
 

     total cpu time spent up to now is      216.9 secs

     total energy              =   -7737.97946611 Ry
     estimated scf accuracy    <       7.25238562 Ry

     total magnetization       =    78.39 Bohr mag/cell
     absolute magnetization    =    89.64 Bohr mag/cell

     iteration # 13     ecut=    50.00 Ry     beta= 0.10
     Davidson diagonalization with overlap
     ethr =  6.64E-04,  avg # of iterations =  1.5

     negative rho (up, down):  1.314E-04 2.847E-04
 
     Adding external electric field

     Computed dipole along edir(3) : 
        Dipole               -0.8888 Ry au,         -2.2590 Debye
        Dipole field         -0.0005 Ry au, 
 
        Potential amp.        0.0600 Ry
        Total length         55.1515 bohr
 
 
     Adding external electric field

     Computed dipole along edir(3) : 
        Dipole               -0.8888 Ry au,         -2.2590 Debye
        Dipole field         -0.0005 Ry au, 
 
        Potential amp.        0.0600 Ry
        Total length         55.1515 bohr
 

     total cpu time spent up to now is      231.7 secs

     total energy              =   -7737.98672397 Ry
     estimated scf accuracy    <       3.79681313 Ry

     total magnetization       =    80.17 Bohr mag/cell
     absolute magnetization    =    90.70 Bohr mag/cell

     iteration # 14     ecut=    50.00 Ry     beta= 0.10
     Davidson diagonalization with overlap
     ethr =  3.47E-04,  avg # of iterations =  1.5

     negative rho (up, down):  6.013E-05 1.736E-04
 
     Adding external electric field

     Computed dipole along edir(3) : 
        Dipole               -0.7701 Ry au,         -1.9573 Debye
        Dipole field         -0.0005 Ry au, 
 
        Potential amp.        0.0520 Ry
        Total length         55.1515 bohr
 
 
     Adding external electric field

     Computed dipole along edir(3) : 
        Dipole               -0.7701 Ry au,         -1.9573 Debye
        Dipole field         -0.0005 Ry au, 
 
        Potential amp.        0.0520 Ry
        Total length         55.1515 bohr
 

     total cpu time spent up to now is      245.8 secs

     total energy              =   -7738.04597725 Ry
     estimated scf accuracy    <       1.12113336 Ry

     total magnetization       =    83.23 Bohr mag/cell
     absolute magnetization    =    92.38 Bohr mag/cell

     iteration # 15     ecut=    50.00 Ry     beta= 0.10
     Davidson diagonalization with overlap
     ethr =  1.03E-04,  avg # of iterations = 11.0

     negative rho (up, down):  1.443E-05 5.532E-05
 
     Adding external electric field

     Computed dipole along edir(3) : 
        Dipole               -0.6561 Ry au,         -1.6677 Debye
        Dipole field         -0.0004 Ry au, 
 
        Potential amp.        0.0443 Ry
        Total length         55.1515 bohr
 
 
     Adding external electric field

     Computed dipole along edir(3) : 
        Dipole               -0.6561 Ry au,         -1.6677 Debye
        Dipole field         -0.0004 Ry au, 
 
        Potential amp.        0.0443 Ry
        Total length         55.1515 bohr
 

     total cpu time spent up to now is      272.5 secs

     total energy              =   -7738.13655111 Ry
     estimated scf accuracy    <       0.75791378 Ry

     total magnetization       =    84.73 Bohr mag/cell
     absolute magnetization    =    92.49 Bohr mag/cell

     iteration # 16     ecut=    50.00 Ry     beta= 0.10
     Davidson diagonalization with overlap
     ethr =  6.93E-05,  avg # of iterations =  1.5

     negative rho (up, down):  4.634E-07 1.292E-05
 
     Adding external electric field

     Computed dipole along edir(3) : 
        Dipole               -0.3985 Ry au,         -1.0128 Debye
        Dipole field         -0.0002 Ry au, 
 
        Potential amp.        0.0269 Ry
        Total length         55.1515 bohr
 
 
     Adding external electric field

     Computed dipole along edir(3) : 
        Dipole               -0.3985 Ry au,         -1.0128 Debye
        Dipole field         -0.0002 Ry au, 
 
        Potential amp.        0.0269 Ry
        Total length         55.1515 bohr
 

     total cpu time spent up to now is      286.7 secs

     total energy              =   -7738.24851380 Ry
     estimated scf accuracy    <       0.37390019 Ry

     total magnetization       =    86.04 Bohr mag/cell
     absolute magnetization    =    92.21 Bohr mag/cell

     iteration # 17     ecut=    50.00 Ry     beta= 0.10
     Davidson diagonalization with overlap
     ethr =  3.42E-05,  avg # of iterations =  2.0

     negative rho (up, down):  2.971E-07 2.501E-05
 
     Adding external electric field

     Computed dipole along edir(3) : 
        Dipole               -0.3619 Ry au,         -0.9197 Debye
        Dipole field         -0.0002 Ry au, 
 
        Potential amp.        0.0244 Ry
        Total length         55.1515 bohr
 
 
     Adding external electric field

     Computed dipole along edir(3) : 
        Dipole               -0.3619 Ry au,         -0.9197 Debye
        Dipole field         -0.0002 Ry au, 
 
        Potential amp.        0.0244 Ry
        Total length         55.1515 bohr
 

     total cpu time spent up to now is      302.7 secs

     total energy              =   -7738.28304067 Ry
     estimated scf accuracy    <       0.33424737 Ry

     total magnetization       =    85.52 Bohr mag/cell
     absolute magnetization    =    89.20 Bohr mag/cell

     iteration # 18     ecut=    50.00 Ry     beta= 0.10
     Davidson diagonalization with overlap
     ethr =  3.06E-05,  avg # of iterations =  1.5

     negative rho (up, down):  3.647E-08 8.333E-06
 
     Adding external electric field

     Computed dipole along edir(3) : 
        Dipole               -0.3976 Ry au,         -1.0107 Debye
        Dipole field         -0.0002 Ry au, 
 
        Potential amp.        0.0268 Ry
        Total length         55.1515 bohr
 
 
     Adding external electric field

     Computed dipole along edir(3) : 
        Dipole               -0.3976 Ry au,         -1.0107 Debye
        Dipole field         -0.0002 Ry au, 
 
        Potential amp.        0.0268 Ry
        Total length         55.1515 bohr
 

     total cpu time spent up to now is      317.0 secs

     total energy              =   -7738.28659701 Ry
     estimated scf accuracy    <       0.22638215 Ry

     total magnetization       =    85.78 Bohr mag/cell
     absolute magnetization    =    88.93 Bohr mag/cell

     iteration # 19     ecut=    50.00 Ry     beta= 0.10
     Davidson diagonalization with overlap
     c_bands:  5 eigenvalues not converged
     ethr =  2.07E-05,  avg # of iterations = 11.0

     negative rho (up, down):  2.649E-10 4.283E-06
 
     Adding external electric field

     Computed dipole along edir(3) : 
        Dipole               -0.3922 Ry au,         -0.9969 Debye
        Dipole field         -0.0002 Ry au, 
 
        Potential amp.        0.0265 Ry
        Total length         55.1515 bohr
 
 
     Adding external electric field

     Computed dipole along edir(3) : 
        Dipole               -0.3922 Ry au,         -0.9969 Debye
        Dipole field         -0.0002 Ry au, 
 
        Potential amp.        0.0265 Ry
        Total length         55.1515 bohr
 

     total cpu time spent up to now is      339.8 secs

     total energy              =   -7738.31976029 Ry
     estimated scf accuracy    <       0.16231427 Ry

     total magnetization       =    86.92 Bohr mag/cell
     absolute magnetization    =    89.43 Bohr mag/cell

     iteration # 20     ecut=    50.00 Ry     beta= 0.10
     Davidson diagonalization with overlap
     ethr =  1.49E-05,  avg # of iterations =  3.0

     negative rho (up, down):  0.000E+00 2.161E-07
 
     Adding external electric field

     Computed dipole along edir(3) : 
        Dipole               -0.3819 Ry au,         -0.9706 Debye
        Dipole field         -0.0002 Ry au, 
 
        Potential amp.        0.0258 Ry
        Total length         55.1515 bohr
 
 
     Adding external electric field

     Computed dipole along edir(3) : 
        Dipole               -0.3819 Ry au,         -0.9706 Debye
        Dipole field         -0.0002 Ry au, 
 
        Potential amp.        0.0258 Ry
        Total length         55.1515 bohr
 

     total cpu time spent up to now is      355.3 secs

     total energy              =   -7738.34203619 Ry
     estimated scf accuracy    <       0.14437346 Ry

     total magnetization       =    87.31 Bohr mag/cell
     absolute magnetization    =    89.03 Bohr mag/cell

     iteration # 21     ecut=    50.00 Ry     beta= 0.10
     Davidson diagonalization with overlap
     ethr =  1.32E-05,  avg # of iterations =  2.0
 
     Adding external electric field

     Computed dipole along edir(3) : 
        Dipole               -0.3417 Ry au,         -0.8684 Debye
        Dipole field         -0.0002 Ry au, 
 
        Potential amp.        0.0231 Ry
        Total length         55.1515 bohr
 
 
     Adding external electric field

     Computed dipole along edir(3) : 
        Dipole               -0.3417 Ry au,         -0.8684 Debye
        Dipole field         -0.0002 Ry au, 
 
        Potential amp.        0.0231 Ry
        Total length         55.1515 bohr
 

     total cpu time spent up to now is      370.4 secs

     total energy              =   -7738.35113797 Ry
     estimated scf accuracy    <       0.07734846 Ry

     total magnetization       =    87.24 Bohr mag/cell
     absolute magnetization    =    88.85 Bohr mag/cell

     iteration # 22     ecut=    50.00 Ry     beta= 0.10
     Davidson diagonalization with overlap
     ethr =  7.08E-06,  avg # of iterations = 12.5
 
     Adding external electric field

     Computed dipole along edir(3) : 
        Dipole               -0.2944 Ry au,         -0.7484 Debye
        Dipole field         -0.0002 Ry au, 
 
        Potential amp.        0.0199 Ry
        Total length         55.1515 bohr
 
 
     Adding external electric field

     Computed dipole along edir(3) : 
        Dipole               -0.2944 Ry au,         -0.7484 Debye
        Dipole field         -0.0002 Ry au, 
 
        Potential amp.        0.0199 Ry
        Total length         55.1515 bohr
 

     total cpu time spent up to now is      397.9 secs

     total energy              =   -7738.35360388 Ry
     estimated scf accuracy    <       0.05474614 Ry

     total magnetization       =    86.86 Bohr mag/cell
     absolute magnetization    =    88.51 Bohr mag/cell

     iteration # 23     ecut=    50.00 Ry     beta= 0.10
     Davidson diagonalization with overlap
     ethr =  5.01E-06,  avg # of iterations = 10.5

     negative rho (up, down):  2.732E-08 2.475E-08
 
     Adding external electric field

     Computed dipole along edir(3) : 
        Dipole               -0.2963 Ry au,         -0.7531 Debye
        Dipole field         -0.0002 Ry au, 
 
        Potential amp.        0.0200 Ry
        Total length         55.1515 bohr
 
 
     Adding external electric field

     Computed dipole along edir(3) : 
        Dipole               -0.2963 Ry au,         -0.7531 Debye
        Dipole field         -0.0002 Ry au, 
 
        Potential amp.        0.0200 Ry
        Total length         55.1515 bohr
 

     total cpu time spent up to now is      419.9 secs

     total energy              =   -7738.35348422 Ry
     estimated scf accuracy    <       0.07467959 Ry

     total magnetization       =    86.93 Bohr mag/cell
     absolute magnetization    =    88.48 Bohr mag/cell

     iteration # 24     ecut=    50.00 Ry     beta= 0.10
     Davidson diagonalization with overlap
     ethr =  5.01E-06,  avg # of iterations =  2.0

     negative rho (up, down):  4.215E-06 2.285E-06
 
     Adding external electric field

     Computed dipole along edir(3) : 
        Dipole               -0.2558 Ry au,         -0.6502 Debye
        Dipole field         -0.0002 Ry au, 
 
        Potential amp.        0.0173 Ry
        Total length         55.1515 bohr
 
 
     Adding external electric field

     Computed dipole along edir(3) : 
        Dipole               -0.2558 Ry au,         -0.6502 Debye
        Dipole field         -0.0002 Ry au, 
 
        Potential amp.        0.0173 Ry
        Total length         55.1515 bohr
 

     total cpu time spent up to now is      434.6 secs

     total energy              =   -7738.35223019 Ry
     estimated scf accuracy    <       0.04063938 Ry

     total magnetization       =    86.94 Bohr mag/cell
     absolute magnetization    =    88.53 Bohr mag/cell

     iteration # 25     ecut=    50.00 Ry     beta= 0.10
     Davidson diagonalization with overlap
     ethr =  3.72E-06,  avg # of iterations =  2.0

     negative rho (up, down):  3.357E-05 1.907E-05
 
     Adding external electric field

     Computed dipole along edir(3) : 
        Dipole               -0.2059 Ry au,         -0.5233 Debye
        Dipole field         -0.0001 Ry au, 
 
        Potential amp.        0.0139 Ry
        Total length         55.1515 bohr
 
 
     Adding external electric field

     Computed dipole along edir(3) : 
        Dipole               -0.2059 Ry au,         -0.5233 Debye
        Dipole field         -0.0001 Ry au, 
 
        Potential amp.        0.0139 Ry
        Total length         55.1515 bohr
 

     total cpu time spent up to now is      450.2 secs

     total energy              =   -7738.35179456 Ry
     estimated scf accuracy    <       0.03075685 Ry

     total magnetization       =    87.23 Bohr mag/cell
     absolute magnetization    =    88.86 Bohr mag/cell

     iteration # 26     ecut=    50.00 Ry     beta= 0.10
     Davidson diagonalization with overlap
     ethr =  2.81E-06,  avg # of iterations =  2.0

     negative rho (up, down):  7.676E-06 3.891E-06
 
     Adding external electric field

     Computed dipole along edir(3) : 
        Dipole               -0.2681 Ry au,         -0.6815 Debye
        Dipole field         -0.0002 Ry au, 
 
        Potential amp.        0.0181 Ry
        Total length         55.1515 bohr
 
 
     Adding external electric field

     Computed dipole along edir(3) : 
        Dipole               -0.2681 Ry au,         -0.6815 Debye
        Dipole field         -0.0002 Ry au, 
 
        Potential amp.        0.0181 Ry
        Total length         55.1515 bohr
 

     total cpu time spent up to now is      464.9 secs

     total energy              =   -7738.35243102 Ry
     estimated scf accuracy    <       0.03768128 Ry

     total magnetization       =    87.27 Bohr mag/cell
     absolute magnetization    =    88.91 Bohr mag/cell

     iteration # 27     ecut=    50.00 Ry     beta= 0.10
     Davidson diagonalization with overlap
     ethr =  2.81E-06,  avg # of iterations =  2.0

     negative rho (up, down):  2.068E-05 8.299E-06
 
     Adding external electric field

     Computed dipole along edir(3) : 
        Dipole               -0.1836 Ry au,         -0.4666 Debye
        Dipole field         -0.0001 Ry au, 
 
        Potential amp.        0.0124 Ry
        Total length         55.1515 bohr
 
 
     Adding external electric field

     Computed dipole along edir(3) : 
        Dipole               -0.1836 Ry au,         -0.4666 Debye
        Dipole field         -0.0001 Ry au, 
 
        Potential amp.        0.0124 Ry
        Total length         55.1515 bohr
 

     total cpu time spent up to now is      479.8 secs

     total energy              =   -7738.35138076 Ry
     estimated scf accuracy    <       0.03620120 Ry

     total magnetization       =    87.28 Bohr mag/cell
     absolute magnetization    =    88.89 Bohr mag/cell

     iteration # 28     ecut=    50.00 Ry     beta= 0.10
     Davidson diagonalization with overlap
     ethr =  2.81E-06,  avg # of iterations =  2.0

     negative rho (up, down):  3.242E-05 1.569E-05
 
     Adding external electric field

     Computed dipole along edir(3) : 
        Dipole               -0.2005 Ry au,         -0.5097 Debye
        Dipole field         -0.0001 Ry au, 
 
        Potential amp.        0.0135 Ry
        Total length         55.1515 bohr
 
 
     Adding external electric field

     Computed dipole along edir(3) : 
        Dipole               -0.2005 Ry au,         -0.5097 Debye
        Dipole field         -0.0001 Ry au, 
 
        Potential amp.        0.0135 Ry
        Total length         55.1515 bohr
 

     total cpu time spent up to now is      495.8 secs

     total energy              =   -7738.35151592 Ry
     estimated scf accuracy    <       0.04217970 Ry

     total magnetization       =    87.12 Bohr mag/cell
     absolute magnetization    =    88.77 Bohr mag/cell

     iteration # 29     ecut=    50.00 Ry     beta= 0.10
     Davidson diagonalization with overlap
     ethr =  2.81E-06,  avg # of iterations =  2.0

     negative rho (up, down):  3.027E-05 1.449E-05
 
     Adding external electric field

     Computed dipole along edir(3) : 
        Dipole               -0.1961 Ry au,         -0.4983 Debye
        Dipole field         -0.0001 Ry au, 
 
        Potential amp.        0.0132 Ry
        Total length         55.1515 bohr
 
 
     Adding external electric field

     Computed dipole along edir(3) : 
        Dipole               -0.1961 Ry au,         -0.4983 Debye
        Dipole field         -0.0001 Ry au, 
 
        Potential amp.        0.0132 Ry
        Total length         55.1515 bohr
 

     total cpu time spent up to now is      510.9 secs

     total energy              =   -7738.35157375 Ry
     estimated scf accuracy    <       0.04067643 Ry

     total magnetization       =    87.21 Bohr mag/cell
     absolute magnetization    =    88.87 Bohr mag/cell

     iteration # 30     ecut=    50.00 Ry     beta= 0.10
     Davidson diagonalization with overlap
     ethr =  2.81E-06,  avg # of iterations =  1.5

     negative rho (up, down):  1.311E-05 6.274E-06
 
     Adding external electric field

     Computed dipole along edir(3) : 
        Dipole               -0.2049 Ry au,         -0.5207 Debye
        Dipole field         -0.0001 Ry au, 
 
        Potential amp.        0.0138 Ry
        Total length         55.1515 bohr
 
 
     Adding external electric field

     Computed dipole along edir(3) : 
        Dipole               -0.2049 Ry au,         -0.5207 Debye
        Dipole field         -0.0001 Ry au, 
 
        Potential amp.        0.0138 Ry
        Total length         55.1515 bohr
 

     total cpu time spent up to now is      524.2 secs

     total energy              =   -7738.35188227 Ry
     estimated scf accuracy    <       0.04048468 Ry

     total magnetization       =    87.21 Bohr mag/cell
     absolute magnetization    =    88.87 Bohr mag/cell

     iteration # 31     ecut=    50.00 Ry     beta= 0.10
     Davidson diagonalization with overlap
     ethr =  2.81E-06,  avg # of iterations =  2.0

     negative rho (up, down):  7.914E-06 3.718E-06
 
     Adding external electric field

     Computed dipole along edir(3) : 
        Dipole               -0.1931 Ry au,         -0.4909 Debye
        Dipole field         -0.0001 Ry au, 
 
        Potential amp.        0.0130 Ry
        Total length         55.1515 bohr
 
 
     Adding external electric field

     Computed dipole along edir(3) : 
        Dipole               -0.1931 Ry au,         -0.4909 Debye
        Dipole field         -0.0001 Ry au, 
 
        Potential amp.        0.0130 Ry
        Total length         55.1515 bohr
 

     total cpu time spent up to now is      539.5 secs

     total energy              =   -7738.35169458 Ry
     estimated scf accuracy    <       0.04300839 Ry

     total magnetization       =    87.21 Bohr mag/cell
     absolute magnetization    =    88.87 Bohr mag/cell

     iteration # 32     ecut=    50.00 Ry     beta= 0.10
     Davidson diagonalization with overlap
     ethr =  2.81E-06,  avg # of iterations =  2.0

     negative rho (up, down):  1.693E-05 9.580E-06
 
     Adding external electric field

     Computed dipole along edir(3) : 
        Dipole               -0.2157 Ry au,         -0.5483 Debye
        Dipole field         -0.0001 Ry au, 
 
        Potential amp.        0.0146 Ry
        Total length         55.1515 bohr
 
 
     Adding external electric field

     Computed dipole along edir(3) : 
        Dipole               -0.2157 Ry au,         -0.5483 Debye
        Dipole field         -0.0001 Ry au, 
 
        Potential amp.        0.0146 Ry
        Total length         55.1515 bohr
 

     total cpu time spent up to now is      555.0 secs

     total energy              =   -7738.35249096 Ry
     estimated scf accuracy    <       0.04126514 Ry

     total magnetization       =    87.16 Bohr mag/cell
     absolute magnetization    =    88.88 Bohr mag/cell

     iteration # 33     ecut=    50.00 Ry     beta= 0.10
     Davidson diagonalization with overlap
     ethr =  2.81E-06,  avg # of iterations =  1.5

     negative rho (up, down):  1.210E-05 5.300E-06
 
     Adding external electric field

     Computed dipole along edir(3) : 
        Dipole               -0.2003 Ry au,         -0.5092 Debye
        Dipole field         -0.0001 Ry au, 
 
        Potential amp.        0.0135 Ry
        Total length         55.1515 bohr
 
 
     Adding external electric field

     Computed dipole along edir(3) : 
        Dipole               -0.2003 Ry au,         -0.5092 Debye
        Dipole field         -0.0001 Ry au, 
 
        Potential amp.        0.0135 Ry
        Total length         55.1515 bohr
 

     total cpu time spent up to now is      568.9 secs

     total energy              =   -7738.35191766 Ry
     estimated scf accuracy    <       0.04324463 Ry

     total magnetization       =    87.17 Bohr mag/cell
     absolute magnetization    =    88.79 Bohr mag/cell

     iteration # 34     ecut=    50.00 Ry     beta= 0.10
     Davidson diagonalization with overlap
     ethr =  2.81E-06,  avg # of iterations =  2.0

     negative rho (up, down):  2.459E-05 1.313E-05
 
     Adding external electric field

     Computed dipole along edir(3) : 
        Dipole               -0.1814 Ry au,         -0.4610 Debye
        Dipole field         -0.0001 Ry au, 
 
        Potential amp.        0.0122 Ry
        Total length         55.1515 bohr
 
 
     Adding external electric field

     Computed dipole along edir(3) : 
        Dipole               -0.1814 Ry au,         -0.4610 Debye
        Dipole field         -0.0001 Ry au, 
 
        Potential amp.        0.0122 Ry
        Total length         55.1515 bohr
 

     total cpu time spent up to now is      584.1 secs

     total energy              =   -7738.35117420 Ry
     estimated scf accuracy    <       0.04164043 Ry

     total magnetization       =    87.19 Bohr mag/cell
     absolute magnetization    =    88.83 Bohr mag/cell

     iteration # 35     ecut=    50.00 Ry     beta= 0.10
     Davidson diagonalization with overlap
     ethr =  2.81E-06,  avg # of iterations =  2.0

     negative rho (up, down):  7.404E-04 6.697E-04
 
     Adding external electric field

     Computed dipole along edir(3) : 
        Dipole               -0.2287 Ry au,         -0.5814 Debye
        Dipole field         -0.0001 Ry au, 
 
        Potential amp.        0.0154 Ry
        Total length         55.1515 bohr
 
 
     Adding external electric field

     Computed dipole along edir(3) : 
        Dipole               -0.2287 Ry au,         -0.5814 Debye
        Dipole field         -0.0001 Ry au, 
 
        Potential amp.        0.0154 Ry
        Total length         55.1515 bohr
 

     total cpu time spent up to now is      599.0 secs

     total energy              =   -7738.35178585 Ry
     estimated scf accuracy    <       0.04497582 Ry

     total magnetization       =    87.18 Bohr mag/cell
     absolute magnetization    =    88.82 Bohr mag/cell

     iteration # 36     ecut=    50.00 Ry     beta= 0.10
     Davidson diagonalization with overlap
     ethr =  2.81E-06,  avg # of iterations =  2.0

     negative rho (up, down):  3.809E-04 2.949E-04
 
     Adding external electric field

     Computed dipole along edir(3) : 
        Dipole               -0.1214 Ry au,         -0.3085 Debye
        Dipole field         -0.0001 Ry au, 
 
        Potential amp.        0.0082 Ry
        Total length         55.1515 bohr
 
 
     Adding external electric field

     Computed dipole along edir(3) : 
        Dipole               -0.1214 Ry au,         -0.3085 Debye
        Dipole field         -0.0001 Ry au, 
 
        Potential amp.        0.0082 Ry
        Total length         55.1515 bohr
 

     total cpu time spent up to now is      613.6 secs

     total energy              =   -7738.35105307 Ry
     estimated scf accuracy    <       0.04376280 Ry

     total magnetization       =    87.19 Bohr mag/cell
     absolute magnetization    =    88.86 Bohr mag/cell

     iteration # 37     ecut=    50.00 Ry     beta= 0.10
     Davidson diagonalization with overlap
     ethr =  2.81E-06,  avg # of iterations =  2.0

     negative rho (up, down):  1.948E-04 1.513E-04
 
     Adding external electric field

     Computed dipole along edir(3) : 
        Dipole               -0.1885 Ry au,         -0.4791 Debye
        Dipole field         -0.0001 Ry au, 
 
        Potential amp.        0.0127 Ry
        Total length         55.1515 bohr
 
 
     Adding external electric field

     Computed dipole along edir(3) : 
        Dipole               -0.1885 Ry au,         -0.4791 Debye
        Dipole field         -0.0001 Ry au, 
 
        Potential amp.        0.0127 Ry
        Total length         55.1515 bohr
 

     total cpu time spent up to now is      629.0 secs

     total energy              =   -7738.35182769 Ry
     estimated scf accuracy    <       0.04474500 Ry

     total magnetization       =    87.17 Bohr mag/cell
     absolute magnetization    =    88.87 Bohr mag/cell

     iteration # 38     ecut=    50.00 Ry     beta= 0.10
     Davidson diagonalization with overlap
     ethr =  2.81E-06,  avg # of iterations =  1.5

     negative rho (up, down):  4.397E-04 3.454E-04
 
     Adding external electric field

     Computed dipole along edir(3) : 
        Dipole               -0.2589 Ry au,         -0.6581 Debye
        Dipole field         -0.0002 Ry au, 
 
        Potential amp.        0.0175 Ry
        Total length         55.1515 bohr
 
 
     Adding external electric field

     Computed dipole along edir(3) : 
        Dipole               -0.2589 Ry au,         -0.6581 Debye
        Dipole field         -0.0002 Ry au, 
 
        Potential amp.        0.0175 Ry
        Total length         55.1515 bohr
 

     total cpu time spent up to now is      643.4 secs

     total energy              =   -7738.35174622 Ry
     estimated scf accuracy    <       0.04308740 Ry

     total magnetization       =    87.18 Bohr mag/cell
     absolute magnetization    =    88.86 Bohr mag/cell

     iteration # 39     ecut=    50.00 Ry     beta= 0.10
     Davidson diagonalization with overlap
     ethr =  2.81E-06,  avg # of iterations =  2.0

     negative rho (up, down):  5.064E-04 4.684E-04
 
     Adding external electric field

     Computed dipole along edir(3) : 
        Dipole               -0.2895 Ry au,         -0.7357 Debye
        Dipole field         -0.0002 Ry au, 
 
        Potential amp.        0.0195 Ry
        Total length         55.1515 bohr
 
 
     Adding external electric field

     Computed dipole along edir(3) : 
        Dipole               -0.2895 Ry au,         -0.7357 Debye
        Dipole field         -0.0002 Ry au, 
 
        Potential amp.        0.0195 Ry
        Total length         55.1515 bohr
 

     total cpu time spent up to now is      659.0 secs

     total energy              =   -7738.35139392 Ry
     estimated scf accuracy    <       0.04474031 Ry

     total magnetization       =    87.22 Bohr mag/cell
     absolute magnetization    =    88.86 Bohr mag/cell

     iteration # 40     ecut=    50.00 Ry     beta= 0.10
     Davidson diagonalization with overlap
     ethr =  2.81E-06,  avg # of iterations =  2.0

     negative rho (up, down):  1.529E-04 1.407E-04
 
     Adding external electric field

     Computed dipole along edir(3) : 
        Dipole               -0.1069 Ry au,         -0.2718 Debye
        Dipole field         -0.0001 Ry au, 
 
        Potential amp.        0.0072 Ry
        Total length         55.1515 bohr
 
 
     Adding external electric field

     Computed dipole along edir(3) : 
        Dipole               -0.1069 Ry au,         -0.2718 Debye
        Dipole field         -0.0001 Ry au, 
 
        Potential amp.        0.0072 Ry
        Total length         55.1515 bohr
 

     total cpu time spent up to now is      674.1 secs

     total energy              =   -7738.35097965 Ry
     estimated scf accuracy    <       0.05041751 Ry

     total magnetization       =    87.10 Bohr mag/cell
     absolute magnetization    =    88.86 Bohr mag/cell

     iteration # 41     ecut=    50.00 Ry     beta= 0.10
     Davidson diagonalization with overlap
     ethr =  2.81E-06,  avg # of iterations =  2.0

     negative rho (up, down):  2.051E-04 1.908E-04
 
     Adding external electric field

     Computed dipole along edir(3) : 
        Dipole               -0.0887 Ry au,         -0.2255 Debye
        Dipole field         -0.0001 Ry au, 
 
        Potential amp.        0.0060 Ry
        Total length         55.1515 bohr
 
 
     Adding external electric field

     Computed dipole along edir(3) : 
        Dipole               -0.0887 Ry au,         -0.2255 Debye
        Dipole field         -0.0001 Ry au, 
 
        Potential amp.        0.0060 Ry
        Total length         55.1515 bohr
 

     total cpu time spent up to now is      689.4 secs

     total energy              =   -7738.35173855 Ry
     estimated scf accuracy    <       0.03259297 Ry

     total magnetization       =    87.21 Bohr mag/cell
     absolute magnetization    =    88.89 Bohr mag/cell

     iteration # 42     ecut=    50.00 Ry     beta= 0.10
     Davidson diagonalization with overlap
     ethr =  2.81E-06,  avg # of iterations =  2.0

     negative rho (up, down):  1.997E-04 1.901E-04
 
     Adding external electric field

     Computed dipole along edir(3) : 
        Dipole               -0.0942 Ry au,         -0.2395 Debye
        Dipole field         -0.0001 Ry au, 
 
        Potential amp.        0.0064 Ry
        Total length         55.1515 bohr
 
 
     Adding external electric field

     Computed dipole along edir(3) : 
        Dipole               -0.0942 Ry au,         -0.2395 Debye
        Dipole field         -0.0001 Ry au, 
 
        Potential amp.        0.0064 Ry
        Total length         55.1515 bohr
 

     total cpu time spent up to now is      705.1 secs

     total energy              =   -7738.35244595 Ry
     estimated scf accuracy    <       0.02987490 Ry

     total magnetization       =    87.20 Bohr mag/cell
     absolute magnetization    =    88.77 Bohr mag/cell

     iteration # 43     ecut=    50.00 Ry     beta= 0.10
     Davidson diagonalization with overlap
     ethr =  2.73E-06,  avg # of iterations =  1.5

     negative rho (up, down):  2.336E-04 2.311E-04
 
     Adding external electric field

     Computed dipole along edir(3) : 
        Dipole               -0.0542 Ry au,         -0.1377 Debye
        Dipole field         -0.0000 Ry au, 
 
        Potential amp.        0.0037 Ry
        Total length         55.1515 bohr
 
 
     Adding external electric field

     Computed dipole along edir(3) : 
        Dipole               -0.0542 Ry au,         -0.1377 Debye
        Dipole field         -0.0000 Ry au, 
 
        Potential amp.        0.0037 Ry
        Total length         55.1515 bohr
 

     total cpu time spent up to now is      719.1 secs

     total energy              =   -7738.35215427 Ry
     estimated scf accuracy    <       0.02995351 Ry

     total magnetization       =    87.19 Bohr mag/cell
     absolute magnetization    =    88.75 Bohr mag/cell

     iteration # 44     ecut=    50.00 Ry     beta= 0.10
     Davidson diagonalization with overlap
     ethr =  2.73E-06,  avg # of iterations =  2.0

     negative rho (up, down):  2.298E-04 2.179E-04
 
     Adding external electric field

     Computed dipole along edir(3) : 
        Dipole               -0.0812 Ry au,         -0.2065 Debye
        Dipole field         -0.0000 Ry au, 
 
        Potential amp.        0.0055 Ry
        Total length         55.1515 bohr
 
 
     Adding external electric field

     Computed dipole along edir(3) : 
        Dipole               -0.0812 Ry au,         -0.2065 Debye
        Dipole field         -0.0000 Ry au, 
 
        Potential amp.        0.0055 Ry
        Total length         55.1515 bohr
 

     total cpu time spent up to now is      733.7 secs

     total energy              =   -7738.35217736 Ry
     estimated scf accuracy    <       0.03061945 Ry

     total magnetization       =    87.13 Bohr mag/cell
     absolute magnetization    =    88.74 Bohr mag/cell

     iteration # 45     ecut=    50.00 Ry     beta= 0.10
     Davidson diagonalization with overlap
     ethr =  2.73E-06,  avg # of iterations =  1.0

     negative rho (up, down):  2.880E-04 2.958E-04
 
     Adding external electric field

     Computed dipole along edir(3) : 
        Dipole               -0.0580 Ry au,         -0.1473 Debye
        Dipole field         -0.0000 Ry au, 
 
        Potential amp.        0.0039 Ry
        Total length         55.1515 bohr
 
 
     Adding external electric field

     Computed dipole along edir(3) : 
        Dipole               -0.0580 Ry au,         -0.1473 Debye
        Dipole field         -0.0000 Ry au, 
 
        Potential amp.        0.0039 Ry
        Total length         55.1515 bohr
 

     total cpu time spent up to now is      746.7 secs

     total energy              =   -7738.35205129 Ry
     estimated scf accuracy    <       0.03029412 Ry

     total magnetization       =    87.19 Bohr mag/cell
     absolute magnetization    =    88.79 Bohr mag/cell

     iteration # 46     ecut=    50.00 Ry     beta= 0.10
     Davidson diagonalization with overlap
     ethr =  2.73E-06,  avg # of iterations =  2.0

     negative rho (up, down):  4.730E-04 4.678E-04
 
     Adding external electric field

     Computed dipole along edir(3) : 
        Dipole                0.1100 Ry au,          0.2796 Debye
        Dipole field          0.0001 Ry au, 
 
        Potential amp.       -0.0074 Ry
        Total length         55.1515 bohr
 
 
     Adding external electric field

     Computed dipole along edir(3) : 
        Dipole                0.1100 Ry au,          0.2796 Debye
        Dipole field          0.0001 Ry au, 
 
        Potential amp.       -0.0074 Ry
        Total length         55.1515 bohr
 

     total cpu time spent up to now is      761.5 secs

     total energy              =   -7738.35050637 Ry
     estimated scf accuracy    <       0.03272682 Ry

     total magnetization       =    87.19 Bohr mag/cell
     absolute magnetization    =    88.76 Bohr mag/cell

     iteration # 47     ecut=    50.00 Ry     beta= 0.10
     Davidson diagonalization with overlap
     c_bands:  3 eigenvalues not converged
     ethr =  2.73E-06,  avg # of iterations = 11.0

     negative rho (up, down):  4.675E-04 4.698E-04
 
     Adding external electric field

     Computed dipole along edir(3) : 
        Dipole                0.1079 Ry au,          0.2741 Debye
        Dipole field          0.0001 Ry au, 
 
        Potential amp.       -0.0073 Ry
        Total length         55.1515 bohr
 
 
     Adding external electric field

     Computed dipole along edir(3) : 
        Dipole                0.1079 Ry au,          0.2741 Debye
        Dipole field          0.0001 Ry au, 
 
        Potential amp.       -0.0073 Ry
        Total length         55.1515 bohr
 

     total cpu time spent up to now is      783.0 secs

     total energy              =   -7738.35128780 Ry
     estimated scf accuracy    <       0.02834664 Ry

     total magnetization       =    87.07 Bohr mag/cell
     absolute magnetization    =    88.64 Bohr mag/cell

     iteration # 48     ecut=    50.00 Ry     beta= 0.10
     Davidson diagonalization with overlap
     c_bands:  2 eigenvalues not converged
     ethr =  2.59E-06,  avg # of iterations = 11.0

     negative rho (up, down):  3.431E-04 3.570E-04
 
     Adding external electric field

     Computed dipole along edir(3) : 
        Dipole               -0.0339 Ry au,         -0.0860 Debye
        Dipole field         -0.0000 Ry au, 
 
        Potential amp.        0.0023 Ry
        Total length         55.1515 bohr
 
 
     Adding external electric field

     Computed dipole along edir(3) : 
        Dipole               -0.0339 Ry au,         -0.0860 Debye
        Dipole field         -0.0000 Ry au, 
 
        Potential amp.        0.0023 Ry
        Total length         55.1515 bohr
 

     total cpu time spent up to now is      804.4 secs

     total energy              =   -7738.35101763 Ry
     estimated scf accuracy    <       0.03285707 Ry

     total magnetization       =    87.08 Bohr mag/cell
     absolute magnetization    =    88.63 Bohr mag/cell

     iteration # 49     ecut=    50.00 Ry     beta= 0.10
     Davidson diagonalization with overlap
     ethr =  2.59E-06,  avg # of iterations =  7.0

     negative rho (up, down):  2.204E-04 2.094E-04
 
     Adding external electric field

     Computed dipole along edir(3) : 
        Dipole               -0.0715 Ry au,         -0.1817 Debye
        Dipole field         -0.0000 Ry au, 
 
        Potential amp.        0.0048 Ry
        Total length         55.1515 bohr
 
 
     Adding external electric field

     Computed dipole along edir(3) : 
        Dipole               -0.0715 Ry au,         -0.1817 Debye
        Dipole field         -0.0000 Ry au, 
 
        Potential amp.        0.0048 Ry
        Total length         55.1515 bohr
 

     total cpu time spent up to now is      822.7 secs

     total energy              =   -7738.35112213 Ry
     estimated scf accuracy    <       0.02591306 Ry

     total magnetization       =    87.10 Bohr mag/cell
     absolute magnetization    =    88.65 Bohr mag/cell

     iteration # 50     ecut=    50.00 Ry     beta= 0.10
     Davidson diagonalization with overlap
     ethr =  2.37E-06,  avg # of iterations =  1.5

     negative rho (up, down):  1.896E-04 1.864E-04
 
     Adding external electric field

     Computed dipole along edir(3) : 
        Dipole               -0.0308 Ry au,         -0.0782 Debye
        Dipole field         -0.0000 Ry au, 
 
        Potential amp.        0.0021 Ry
        Total length         55.1515 bohr
 
 
     Adding external electric field

     Computed dipole along edir(3) : 
        Dipole               -0.0308 Ry au,         -0.0782 Debye
        Dipole field         -0.0000 Ry au, 
 
        Potential amp.        0.0021 Ry
        Total length         55.1515 bohr
 

     total cpu time spent up to now is      837.0 secs

     total energy              =   -7738.35067059 Ry
     estimated scf accuracy    <       0.02235127 Ry

     total magnetization       =    87.03 Bohr mag/cell
     absolute magnetization    =    88.58 Bohr mag/cell

     iteration # 51     ecut=    50.00 Ry     beta= 0.10
     Davidson diagonalization with overlap
     ethr =  2.04E-06,  avg # of iterations =  2.0

     negative rho (up, down):  3.191E-04 3.849E-04
 
     Adding external electric field

     Computed dipole along edir(3) : 
        Dipole                0.0458 Ry au,          0.1164 Debye
        Dipole field          0.0000 Ry au, 
 
        Potential amp.       -0.0031 Ry
        Total length         55.1515 bohr
 
 
     Adding external electric field

     Computed dipole along edir(3) : 
        Dipole                0.0458 Ry au,          0.1164 Debye
        Dipole field          0.0000 Ry au, 
 
        Potential amp.       -0.0031 Ry
        Total length         55.1515 bohr
 

     total cpu time spent up to now is      852.0 secs

     total energy              =   -7738.34996725 Ry
     estimated scf accuracy    <       0.01573902 Ry

     total magnetization       =    86.94 Bohr mag/cell
     absolute magnetization    =    88.42 Bohr mag/cell

     iteration # 52     ecut=    50.00 Ry     beta= 0.10
     Davidson diagonalization with overlap
     ethr =  1.44E-06,  avg # of iterations =  8.5

     negative rho (up, down):  2.781E-04 2.743E-04
 
     Adding external electric field

     Computed dipole along edir(3) : 
        Dipole                0.1667 Ry au,          0.4236 Debye
        Dipole field          0.0001 Ry au, 
 
        Potential amp.       -0.0113 Ry
        Total length         55.1515 bohr
 
 
     Adding external electric field

     Computed dipole along edir(3) : 
        Dipole                0.1667 Ry au,          0.4236 Debye
        Dipole field          0.0001 Ry au, 
 
        Potential amp.       -0.0113 Ry
        Total length         55.1515 bohr
 

     total cpu time spent up to now is      871.3 secs

     total energy              =   -7738.34974237 Ry
     estimated scf accuracy    <       0.01183987 Ry

     total magnetization       =    86.95 Bohr mag/cell
     absolute magnetization    =    88.36 Bohr mag/cell

     iteration # 53     ecut=    50.00 Ry     beta= 0.10
     Davidson diagonalization with overlap
     ethr =  1.08E-06,  avg # of iterations =  3.5

     negative rho (up, down):  2.880E-04 2.661E-04
 
     Adding external electric field

     Computed dipole along edir(3) : 
        Dipole                0.1477 Ry au,          0.3754 Debye
        Dipole field          0.0001 Ry au, 
 
        Potential amp.       -0.0100 Ry
        Total length         55.1515 bohr
 
 
     Adding external electric field

     Computed dipole along edir(3) : 
        Dipole                0.1477 Ry au,          0.3754 Debye
        Dipole field          0.0001 Ry au, 
 
        Potential amp.       -0.0100 Ry
        Total length         55.1515 bohr
 

     total cpu time spent up to now is      886.8 secs

     total energy              =   -7738.34953491 Ry
     estimated scf accuracy    <       0.00821408 Ry

     total magnetization       =    87.01 Bohr mag/cell
     absolute magnetization    =    88.43 Bohr mag/cell

     iteration # 54     ecut=    50.00 Ry     beta= 0.10
     Davidson diagonalization with overlap
     ethr =  7.52E-07,  avg # of iterations =  2.0

     negative rho (up, down):  3.632E-03 3.344E-03
 
     Adding external electric field

     Computed dipole along edir(3) : 
        Dipole                0.3707 Ry au,          0.9422 Debye
        Dipole field          0.0002 Ry au, 
 
        Potential amp.       -0.0250 Ry
        Total length         55.1515 bohr
 
 
     Adding external electric field

     Computed dipole along edir(3) : 
        Dipole                0.3707 Ry au,          0.9422 Debye
        Dipole field          0.0002 Ry au, 
 
        Potential amp.       -0.0250 Ry
        Total length         55.1515 bohr
 

     total cpu time spent up to now is      902.6 secs

     total energy              =   -7738.34919097 Ry
     estimated scf accuracy    <       0.00675333 Ry

     total magnetization       =    87.02 Bohr mag/cell
     absolute magnetization    =    88.42 Bohr mag/cell

     iteration # 55     ecut=    50.00 Ry     beta= 0.10
     Davidson diagonalization with overlap
     c_bands:  4 eigenvalues not converged
     ethr =  6.18E-07,  avg # of iterations = 18.0

     negative rho (up, down):  3.391E-03 3.130E-03
 
     Adding external electric field

     Computed dipole along edir(3) : 
        Dipole                0.4180 Ry au,          1.0625 Debye
        Dipole field          0.0003 Ry au, 
 
        Potential amp.       -0.0282 Ry
        Total length         55.1515 bohr
 
 
     Adding external electric field

     Computed dipole along edir(3) : 
        Dipole                0.4180 Ry au,          1.0625 Debye
        Dipole field          0.0003 Ry au, 
 
        Potential amp.       -0.0282 Ry
        Total length         55.1515 bohr
 

     total cpu time spent up to now is      930.1 secs

     total energy              =   -7738.34936053 Ry
     estimated scf accuracy    <       0.00363360 Ry

     total magnetization       =    87.02 Bohr mag/cell
     absolute magnetization    =    88.47 Bohr mag/cell

     iteration # 56     ecut=    50.00 Ry     beta= 0.10
     Davidson diagonalization with overlap
     c_bands:  2 eigenvalues not converged
     ethr =  3.32E-07,  avg # of iterations = 11.0

     negative rho (up, down):  2.878E-03 2.704E-03
 
     Adding external electric field

     Computed dipole along edir(3) : 
        Dipole                0.4070 Ry au,          1.0346 Debye
        Dipole field          0.0002 Ry au, 
 
        Potential amp.       -0.0275 Ry
        Total length         55.1515 bohr
 
 
     Adding external electric field

     Computed dipole along edir(3) : 
        Dipole                0.4070 Ry au,          1.0346 Debye
        Dipole field          0.0002 Ry au, 
 
        Potential amp.       -0.0275 Ry
        Total length         55.1515 bohr
 

     total cpu time spent up to now is      951.2 secs

     total energy              =   -7738.34934552 Ry
     estimated scf accuracy    <       0.00189926 Ry

     total magnetization       =    86.98 Bohr mag/cell
     absolute magnetization    =    88.48 Bohr mag/cell

     iteration # 57     ecut=    50.00 Ry     beta= 0.10
     Davidson diagonalization with overlap
     c_bands:  2 eigenvalues not converged
     ethr =  1.74E-07,  avg # of iterations = 11.0

     negative rho (up, down):  2.349E-03 2.286E-03
 
     Adding external electric field

     Computed dipole along edir(3) : 
        Dipole                0.3918 Ry au,          0.9957 Debye
        Dipole field          0.0002 Ry au, 
 
        Potential amp.       -0.0265 Ry
        Total length         55.1515 bohr
 
 
     Adding external electric field

     Computed dipole along edir(3) : 
        Dipole                0.3918 Ry au,          0.9957 Debye
        Dipole field          0.0002 Ry au, 
 
        Potential amp.       -0.0265 Ry
        Total length         55.1515 bohr
 

     total cpu time spent up to now is      972.6 secs

     total energy              =   -7738.34944603 Ry
     estimated scf accuracy    <       0.00113079 Ry

     total magnetization       =    86.99 Bohr mag/cell
     absolute magnetization    =    88.53 Bohr mag/cell

     iteration # 58     ecut=    50.00 Ry     beta= 0.10
     Davidson diagonalization with overlap
     ethr =  1.03E-07,  avg # of iterations =  2.0

     negative rho (up, down):  1.184E-03 1.163E-03
 
     Adding external electric field

     Computed dipole along edir(3) : 
        Dipole                0.3757 Ry au,          0.9549 Debye
[...]
    -5.9686  -5.9451  -5.9229  -5.9183  -5.9030  -5.8794  -5.8755  -5.8449
    -5.8165  -5.8135  -5.7964  -5.7712  -5.7467  -5.7398  -5.7014  -5.6959
    -5.6882  -5.6548  -5.6128  -5.5894  -5.5805  -5.5458  -5.5279  -5.5081
    -5.4986  -5.4911  -5.4716  -5.4613  -5.4246  -5.4148  -5.3933  -5.3699
    -5.3024  -5.2402  -5.2312  -5.2063  -5.1956  -5.1830  -5.1606  -5.1055
    -5.0409  -5.0308  -5.0089  -4.9662  -4.9615  -4.9397  -4.9208  -4.8675
    -4.8227  -4.7772  -4.7674  -4.7557  -4.7524  -4.7052  -4.6737  -4.6653
    -4.5782  -4.5428  -4.4994  -4.4893  -4.4329  -4.4248  -4.3980  -4.3771
    -4.3677  -4.3408  -4.2242  -4.2152  -4.1883  -4.1652  -4.1369  -4.1099
    -4.0980  -4.0904  -4.0706  -3.9981  -3.9729  -3.9509  -3.9308  -3.9166
    -3.8680  -3.8321  -3.8251  -3.8009  -3.7948  -3.7670  -3.7358  -3.6979
    -3.6762  -3.6437  -3.6219  -3.6148  -3.6112  -3.5896  -3.5893  -3.5703
    -3.5391  -3.5201  -3.5092  -3.4872  -3.4827  -3.4650  -3.4536  -3.4224
    -3.4040  -3.3954  -3.3806  -3.3652  -3.3396  -3.3048  -3.2883  -3.2636
    -3.2371  -3.2362  -3.2167  -3.2064  -3.1944  -3.1470  -3.1270  -3.1006
    -3.0528  -3.0489  -3.0408  -3.0321  -3.0306  -3.0237  -3.0159  -2.9743
    -2.9449  -2.9383  -2.9307  -2.8800  -2.8694  -2.8655  -2.8116  -2.7949
    -2.7701  -2.7686  -2.7582  -2.7558  -2.7349  -2.7307  -2.7102  -2.7038
    -2.6885  -2.6657  -2.6579  -2.6290  -2.6250  -2.6111  -2.6050  -2.5973
    -2.5934  -2.5749  -2.5581  -2.5399  -2.5255  -2.5204  -2.4794  -2.4723
    -2.4512  -2.4415  -2.4205  -2.3933  -2.3597  -2.3532  -2.3324  -2.2998
    -2.2788  -2.2689  -2.2493  -2.2200  -2.2033  -2.1805  -2.1637  -2.1351
    -2.1271  -2.1191  -2.1122  -2.1027  -2.0758  -2.0644  -2.0233  -1.9947
    -1.9763  -1.9623  -1.9495  -1.9310  -1.9160  -1.9092  -1.8917  -1.8631
    -1.8533  -1.8365  -1.8163  -1.8084  -1.8020  -1.7841  -1.7716  -1.7645
    -1.7467  -1.7186  -1.7014  -1.6412  -1.6376  -1.6298  -1.5790  -1.5667
    -1.5614  -1.5332  -1.5106  -1.5002  -1.4895  -1.4813  -1.4485  -1.4335
    -1.4195  -1.4079  -1.3980  -1.3799  -1.3539  -1.3349  -1.3228  -1.3157
    -1.2723  -1.2606  -1.2418  -1.2102  -1.1877  -1.1487  -1.1196  -1.0781
    -1.0105  -0.9060  -0.8867  -0.8696  -0.8484  -0.7240  -0.7149  -0.5556
    -0.4799  -0.3160  -0.2694  -0.1374   0.1815   0.2124   0.2297   0.2463
     0.2526   0.2683   0.2948   0.3071   0.3291   0.3319   0.3525   0.3635
     0.3693   0.3751   0.3918   0.4054   0.4149   0.4162   0.4188   0.4245
     0.4292   0.4323   0.4485   0.4556   0.4583   0.4639   0.4766   0.4915
     0.4944   0.5026   0.5068   0.5146   0.5233   0.5345   0.5346   0.5417
     0.5620   0.5682   0.5767   0.5773   0.5842   0.5971   0.5998   0.6140
     0.6236   0.6252   0.6421   0.6443   0.6483   0.6523   0.6755   0.6795
     0.6831   0.6915   0.6971   0.7067   0.7130   0.7331   0.7377   0.7500
     0.7578   0.7613   0.7628   0.7736   0.7948   0.7976   0.8058   0.8111
     0.8200   0.8215   0.8304   0.8406   0.8520   0.8599   0.8702   0.8703
     0.8801   0.8924   0.9275   0.9383   0.9531   0.9553   0.9590   0.9848
     1.0000   1.0132   1.0987   1.1010   1.1996   1.2217   1.7482   1.7531
     1.7602   1.7732   1.7798   1.7883   1.8062   1.8207   1.8264   1.9052
     1.9208   1.9366   1.9664   1.9837   2.0243   2.0314   2.0461   2.1025
     2.1220   2.1348   2.1472   2.1491   2.1895   2.1950   2.2201   2.2310
     2.2452   2.2582   2.2859   2.2933   2.3037   2.3419   2.3558   2.3624
     2.3750   2.3896   2.3977   2.4165   2.4322   2.4484   2.4569   2.4773
     2.4875   2.5070   2.5093   2.5281   2.5367   2.5569   2.5879   2.6123
     2.6221   2.6361   2.6395   2.6957   2.7768   2.7949   2.8425   2.8626
     2.8908   2.9097   3.3088   3.5094   3.6352   3.6968   3.7667   3.8598
     3.9052   3.9281   3.9310   3.9568   4.0001   4.0691   4.0772   4.0893
     4.1119   4.1428   4.1509   4.1681   4.1847   4.4089   4.4907   4.6394
     4.8328   4.8809   4.9136   4.9370   4.9686   5.0322   5.0487   5.1057
     5.1269   5.1657   5.3947   6.2684   6.3603   6.4970   6.6016   6.6841
     6.7531   6.8333   6.8567   6.9084   6.9615   7.0456   7.0910   7.1825
     7.2443   7.3237   7.3534   7.3992   7.4713   7.5204   7.6172   7.6634
     7.6940   7.7029   7.7429   7.7765   7.8527   7.8624   7.8991   7.9481
     7.9851   8.0088   8.0569   8.0800   8.1168   8.1740   8.2043   8.2218
     8.2235   8.2758   8.3142   8.3348   8.3884   8.4124   8.4235   8.4406
     8.4523   8.4760   8.5078   8.5195   8.5446   8.5668   8.6077   8.6296
     8.6587   8.6920   8.6988   8.7285   8.7468   8.7881   8.8420   8.8551

     the Fermi energy is     1.6620 ev

!    total energy              =   -7738.34979247 Ry
     estimated scf accuracy    <       0.00000078 Ry
     smearing contrib. (-TS)   =      -0.02173604 Ry
     internal energy E=F+TS    =   -7738.32805644 Ry

     The total energy is F=E-TS. E is the sum of the following terms:
     one-electron contribution =  -95226.06767915 Ry
     hartree contribution      =   48229.15336394 Ry
     xc contribution           =   -2218.74468683 Ry
     ewald contribution        =   41479.14074109 Ry
     Dispersion Correction     =      -1.80989928 Ry
     electric field correction =       0.00010380 Ry

     total magnetization       =    86.97 Bohr mag/cell
     absolute magnetization    =    88.48 Bohr mag/cell

     convergence has been achieved in  78 iterations

     negative rho (up, down):  1.049E-03 5.971E-04

     Forces acting on atoms (cartesian axes, Ry/au):

     atom    1 type  1   force =     0.02516466   -0.03093847    0.01836947
     atom    2 type  2   force =    -0.01382997   -0.00156092   -0.01011061
     atom    3 type  1   force =    -0.02319831   -0.01851757    0.01975890
     atom    4 type  1   force =     0.00572546    0.00413977   -0.00652140
     atom    5 type  1   force =    -0.00191637    0.00117999   -0.00532138
     atom    6 type  1   force =     0.00207911    0.00772386   -0.00907026
     atom    7 type  3   force =    -0.00770002    0.00119902   -0.01044681
     atom    8 type  3   force =    -0.03500874    0.05414705   -0.08328079
     atom    9 type  3   force =     0.03414094    0.03817019   -0.06429384
     atom   10 type  3   force =    -0.00304095   -0.00246326   -0.01165718
     atom   11 type  4   force =     0.00669390    0.00556578    0.01394992
     atom   12 type  4   force =    -0.00024796   -0.00295920    0.01477528
     atom   13 type  4   force =     0.00194138    0.00168869    0.01735695
     atom   14 type  4   force =    -0.00051119   -0.00127919    0.01274997
     atom   15 type  4   force =    -0.00068590    0.00455150   -0.00198069
     atom   16 type  4   force =    -0.00042223    0.00262842    0.04034459
     atom   17 type  4   force =     0.00170508    0.00809165    0.03784801
     atom   18 type  4   force =     0.00798676   -0.00449516   -0.00046546
     atom   19 type  4   force =     0.00043421    0.01186741    0.00425840
     atom   20 type  4   force =    -0.00967216   -0.02674697   -0.00367746
     atom   21 type  4   force =    -0.01111014   -0.00044257    0.00064399
     atom   22 type  4   force =    -0.03203815    0.00310931    0.00787168
     atom   23 type  4   force =     0.03201933    0.00058509    0.01410281
     atom   24 type  4   force =     0.00704191   -0.03693845    0.00379528
     atom   25 type  4   force =    -0.00313686    0.00170921    0.00393100
     atom   26 type  4   force =     0.01780075   -0.00685889    0.00077193
     atom   27 type  1   force =    -0.00528568   -0.00873655    0.00256647
     atom   28 type  2   force =    -0.01352105    0.00019816    0.00450754
     atom   29 type  1   force =     0.00300572   -0.00510964   -0.00159706
     atom   30 type  1   force =     0.00259747    0.00374363   -0.00148362
     atom   31 type  1   force =     0.00138886   -0.00474888    0.00002535
     atom   32 type  1   force =    -0.00096580    0.00138491   -0.00181195
     atom   33 type  3   force =    -0.00689292   -0.00334589   -0.00083308
     atom   34 type  3   force =    -0.00810454    0.00271037   -0.00021589
     atom   35 type  3   force =     0.00442462   -0.00069244    0.00266940
     atom   36 type  3   force =     0.00062807    0.00040263   -0.00505430
     atom   37 type  4   force =     0.00875613    0.00547200    0.00714945
     atom   38 type  4   force =     0.00378922   -0.00086773   -0.01934035
     atom   39 type  4   force =    -0.00146039    0.00371643   -0.00969227
     atom   40 type  4   force =    -0.00128229   -0.00273596    0.00943265
     atom   41 type  4   force =    -0.00303561    0.00409098   -0.00702823
     atom   42 type  4   force =    -0.00424555   -0.00453106    0.01783755
     atom   43 type  4   force =     0.00770268    0.00338789    0.00772936
     atom   44 type  4   force =     0.01039771   -0.00564742   -0.00579643
     atom   45 type  4   force =     0.00317651    0.00376390   -0.00014844
     atom   46 type  4   force =     0.00244394   -0.00011567   -0.00559118
     atom   47 type  4   force =    -0.01290263   -0.00076056   -0.00332164
     atom   48 type  4   force =    -0.01473291    0.00126551    0.00337880
     atom   49 type  4   force =     0.01358684    0.00250778    0.00430830
     atom   50 type  4   force =    -0.00273383   -0.00507176   -0.00048970
     atom   51 type  4   force =    -0.00566453    0.00219948    0.00004056
     atom   52 type  4   force =     0.01580705   -0.00356460   -0.00451482
     atom   53 type  1   force =     0.00022167    0.00003180    0.00050580
     atom   54 type  2   force =    -0.00061085    0.00012495    0.00062040
     atom   55 type  1   force =    -0.00022274   -0.00004061    0.00019352
     atom   56 type  1   force =    -0.00017062    0.00001635   -0.00018163
     atom   57 type  1   force =     0.00024482   -0.00055391    0.00091381
     atom   58 type  1   force =    -0.00008494    0.00024476    0.00073425
     atom   59 type  3   force =     0.00004663   -0.00011203    0.00014842
     atom   60 type  3   force =     0.00022469   -0.00019274    0.00012316
     atom   61 type  3   force =     0.00001533    0.00010749    0.00010924
     atom   62 type  3   force =     0.00034901   -0.00040888    0.00008409
     atom   63 type  4   force =     0.00001757    0.00016365   -0.00008408
     atom   64 type  4   force =     0.00006596    0.00011336    0.00006141
     atom   65 type  4   force =     0.00007878   -0.00007130    0.00045881
     atom   66 type  4   force =     0.00012173   -0.00007201   -0.00010659
     atom   67 type  4   force =     0.00052712    0.00020381    0.00000506
     atom   68 type  4   force =    -0.00009132    0.00024851    0.00038632
     atom   69 type  4   force =     0.00003827   -0.00044104   -0.00008125
     atom   70 type  4   force =     0.00007819   -0.00008688    0.00021492
     atom   71 type  4   force =     0.00001902   -0.00034436    0.00018066
     atom   72 type  4   force =     0.00039985   -0.00038515    0.00012580
     atom   73 type  4   force =     0.00021476   -0.00059661   -0.00010369
     atom   74 type  4   force =     0.00012551   -0.00018628   -0.00006606
     atom   75 type  4   force =     0.00016113   -0.00015853   -0.00029771
     atom   76 type  4   force =     0.00039196   -0.00032348   -0.00025271
     atom   77 type  4   force =    -0.00043610   -0.00015705    0.00022257
     atom   78 type  4   force =    -0.00000479    0.00001904   -0.00013911
     atom   79 type  1   force =     0.02517244   -0.03094202    0.01836904
     atom   80 type  2   force =    -0.01370875   -0.00152870   -0.01015603
     atom   81 type  1   force =    -0.02318965   -0.01851918    0.01975533
     atom   82 type  1   force =     0.00572723    0.00413540   -0.00653258
     atom   83 type  1   force =    -0.00191900    0.00117206   -0.00532021
     atom   84 type  1   force =     0.00209758    0.00772519   -0.00907694
     atom   85 type  3   force =    -0.00768846    0.00123085   -0.01050238
     atom   86 type  3   force =    -0.03500696    0.05414520   -0.08329148
     atom   87 type  3   force =     0.03414762    0.03816998   -0.06429499
     atom   88 type  3   force =    -0.00305345   -0.00246047   -0.01166401
     atom   89 type  4   force =     0.00683849    0.00558303    0.01395531
     atom   90 type  4   force =    -0.00014939   -0.00287074    0.01477761
     atom   91 type  4   force =     0.00203360    0.00167829    0.01733126
     atom   92 type  4   force =    -0.00034552   -0.00127233    0.01275172
     atom   93 type  4   force =    -0.00067407    0.00475835   -0.00183373
     atom   94 type  4   force =    -0.00048040    0.00258078    0.04014707
     atom   95 type  4   force =     0.00183491    0.00809250    0.03785138
     atom   96 type  4   force =     0.00778882   -0.00451420   -0.00046758
     atom   97 type  4   force =     0.00055217    0.01194435    0.00414785
     atom   98 type  4   force =    -0.00956629   -0.02657833   -0.00364181
     atom   99 type  4   force =    -0.01112333   -0.00040162    0.00084028
     atom  100 type  4   force =    -0.03206797    0.00300527    0.00774518
     atom  101 type  4   force =     0.03205201    0.00058812    0.01410654
     atom  102 type  4   force =     0.00686351   -0.03693637    0.00380346
     atom  103 type  4   force =    -0.00304044    0.00164751    0.00391374
     atom  104 type  4   force =     0.01789462   -0.00686816    0.00078101
     atom  105 type  1   force =    -0.00513941   -0.00883155    0.00260309
     atom  106 type  2   force =    -0.01324931   -0.00026606    0.00446340
     atom  107 type  1   force =     0.00296740   -0.00509786   -0.00162366
     atom  108 type  1   force =     0.00258237    0.00451852   -0.00207822
     atom  109 type  1   force =     0.00153522   -0.00478412    0.00011590
     atom  110 type  1   force =    -0.00069696    0.00137476   -0.00184861
     atom  111 type  3   force =    -0.00663756   -0.00308768   -0.00163160
     atom  112 type  3   force =    -0.00785939    0.00257183   -0.00003427
     atom  113 type  3   force =     0.00443513   -0.00060548    0.00266439
     atom  114 type  3   force =     0.00061645   -0.00037983   -0.00555207
     atom  115 type  4   force =     0.00848862    0.00513091    0.00706768
     atom  116 type  4   force =     0.00375296   -0.00084519   -0.01934233
     atom  117 type  4   force =    -0.00135766    0.00371880   -0.00973217
     atom  118 type  4   force =    -0.00142778   -0.00277396    0.00955582
     atom  119 type  4   force =    -0.00217619    0.00510342   -0.00742126
     atom  120 type  4   force =    -0.00436098   -0.00445991    0.01789619
     atom  121 type  4   force =     0.00772522    0.00335482    0.00777532
     atom  122 type  4   force =     0.01027408   -0.00573845   -0.00645363
     atom  123 type  4   force =     0.00265616    0.00405740    0.00067931
     atom  124 type  4   force =     0.00227222   -0.00021085   -0.00562468
     atom  125 type  4   force =    -0.01281443   -0.00071049   -0.00339044
     atom  126 type  4   force =    -0.01479124    0.00124815    0.00340305
     atom  127 type  4   force =     0.01372447    0.00245105    0.00451737
     atom  128 type  4   force =    -0.00290785   -0.00505813   -0.00052587
     atom  129 type  4   force =    -0.00540925    0.00209518    0.00030285
     atom  130 type  4   force =     0.01567203   -0.00348949   -0.00461060
     atom  131 type  1   force =     0.00025192    0.00056534    0.00093888
     atom  132 type  2   force =     0.00114756    0.00194096   -0.00151405
     atom  133 type  1   force =    -0.00008470    0.00027157    0.00022027
     atom  134 type  1   force =    -0.00019180    0.00001233    0.00062451
     atom  135 type  1   force =     0.00022497   -0.00036892    0.00082164
     atom  136 type  1   force =    -0.00050720    0.00005256    0.00047617
     atom  137 type  3   force =    -0.00032140   -0.00032994    0.00015078
     atom  138 type  3   force =     0.00006570   -0.00010729   -0.00018289
     atom  139 type  3   force =     0.00021134   -0.00016863    0.00014991
     atom  140 type  3   force =     0.00019332   -0.00026536    0.00009692
     atom  141 type  4   force =    -0.00028453   -0.00020490   -0.00018965
     atom  142 type  4   force =    -0.00005956   -0.00019552    0.00000221
     atom  143 type  4   force =     0.00054751   -0.00006816    0.00011415
     atom  144 type  4   force =    -0.00013378    0.00023294   -0.00017352
     atom  145 type  4   force =     0.00023167    0.00044498   -0.00003483
     atom  146 type  4   force =     0.00003065    0.00028261    0.00024258
     atom  147 type  4   force =     0.00046817   -0.00001382   -0.00071696
     atom  148 type  4   force =     0.00031512    0.00040429    0.00046065
     atom  149 type  4   force =     0.00015404   -0.00026552    0.00044941
     atom  150 type  4   force =     0.00000535    0.00017837    0.00007334
     atom  151 type  4   force =     0.00018777   -0.00021511    0.00007518
     atom  152 type  4   force =     0.00009638   -0.00042455   -0.00017848
     atom  153 type  4   force =     0.00032392    0.00027637    0.00040410
     atom  154 type  4   force =    -0.00008227   -0.00052303    0.00027073
     atom  155 type  4   force =    -0.00007423   -0.00039191    0.00047806
     atom  156 type  4   force =     0.00023549   -0.00061405   -0.00074767
     atom  157 type  4   force =     0.00541696   -0.00792947    0.00112979
     atom  158 type  5   force =    -0.00604432    0.00535866    0.00168461

     Total force =     0.263070     Total SCF correction =     0.004750
 
     init_run     :      8.87s CPU      9.66s WALL (       1 calls)
     electrons    :   1227.54s CPU   1293.17s WALL (       1 calls)
     forces       :      4.31s CPU      4.75s WALL (       1 calls)
     force_london :      0.12s CPU      0.12s WALL (       1 calls)

     Called by init_run:
     wfcinit      :      5.52s CPU      5.74s WALL (       1 calls)
     potinit      :      0.56s CPU      0.75s WALL (       1 calls)
     hinit0       :      1.50s CPU      1.60s WALL (       1 calls)

     Called by electrons:
     c_bands      :    973.01s CPU   1008.40s WALL (      78 calls)
     sum_band     :    161.11s CPU    176.81s WALL (      78 calls)
     v_of_rho     :     22.04s CPU     23.21s WALL (      79 calls)
     newd         :     45.93s CPU     59.36s WALL (      79 calls)
     mix_rho      :     24.32s CPU     24.49s WALL (      78 calls)
     energy_londo :      0.11s CPU      0.11s WALL (       1 calls)

     Called by c_bands:
     init_us_2    :      2.77s CPU      2.85s WALL (     316 calls)
     init_us_2:cp :      2.76s CPU      2.85s WALL (     316 calls)
     regterg      :    951.70s CPU    986.75s WALL (     158 calls)

     Called by *egterg:
     rdiaghg      :    284.73s CPU    301.99s WALL (     722 calls)
     h_psi        :    370.04s CPU    378.09s WALL (     724 calls)
     s_psi        :     69.28s CPU     69.39s WALL (     724 calls)
     g_psi        :      0.51s CPU      0.52s WALL (     564 calls)

     Called by h_psi:
     h_psi:calbec :     90.27s CPU     96.39s WALL (     724 calls)
     vloc_psi     :    209.89s CPU    210.98s WALL (     724 calls)
     add_vuspsi   :     69.03s CPU     69.85s WALL (     724 calls)

     General routines
     calbec       :    133.03s CPU    142.05s WALL (     888 calls)
     fft          :     20.41s CPU     22.02s WALL (    1435 calls)
     ffts         :     15.04s CPU     15.09s WALL (    9707 calls)
     fftw         :    236.92s CPU    238.04s WALL (  266040 calls)
     interpolate  :      1.60s CPU      1.72s WALL (     158 calls)
 
     Parallel routines
 
     PWSCF        :  20m43.14s CPU  21m50.27s WALL

 
   This run was terminated on:  22:25:36  17Nov2025            

=------------------------------------------------------------------------------=
   JOB DONE.
=------------------------------------------------------------------------------=
