
     Program PWSCF v.7.2 starts on 17Nov2025 at 21:30: 3 

     This program is part of the open-source Quantum ESPRESSO suite
     for quantum simulation of materials; please cite
         "P. Giannozzi et al., J. Phys.:Condens. Matter 21 395502 (2009);
         "P. Giannozzi et al., J. Phys.:Condens. Matter 29 465901 (2017);
         "P. Giannozzi et al., J. Chem. Phys. 152 154105 (2020);
          URL http://www.quantum-espresso.org", 
     in publications or presentations arising from this work. More details at
     http://www.quantum-espresso.org/quote

     Parallel version (MPI), running on    64 processors

     MPI processes distributed on     4 nodes
     362386 MiB available memory on the printing compute node when the environment starts
 
     Reading input from PWINPUT_atm157_xm

     Current dimensions of program PWSCF are:
     Max number of different atomic species (ntypx) = 10
     Max number of k-points (npk) =  40000
     Max angular momentum in pseudopotentials (lmaxx) =  4
     Presently no symmetry can be used with electric field

     file Ni.pbe-n-rrkjus_psl.1.0.0.UPF: wavefunction(s)  3D renormalized
     file Mn.pbe-spn-rrkjus_psl.0.3.1.UPF: wavefunction(s)  3D renormalized
     file O.pbe-rrkjus.UPF: wavefunction(s)  2S renormalized
     file H.pbe-rrkjus.UPF: wavefunction(s)  1S renormalized

     gamma-point specific algorithms are used
 
     R & G space division:  proc/nbgrp/npool/nimage =      64
     Subspace diagonalization in iterative solution of the eigenvalue problem:
     one sub-group per band group will be used
     custom distributed-memory algorithm (size of sub-group:  7*  7 procs)

 
     Parallelization info
     --------------------
     sticks:   dense  smooth     PW     G-vecs:    dense   smooth      PW
     Min         207      82     20                60552    15302    1896
     Max         210      84     22                60574    15336    1950
     Sum       13325    5345   1333              3876045   980655  122653
 
     Using Slab Decomposition
 


     bravais-lattice index     =            0
     lattice parameter (alat)  =      17.4067  a.u.
     unit-cell volume          =   20529.8182 (a.u.)^3
     number of atoms/cell      =          158
     number of atomic types    =            5
     number of electrons       =      1093.00
     number of Kohn-Sham states=          656
     kinetic-energy cutoff     =      50.0000  Ry
     charge density cutoff     =     500.0000  Ry
     scf convergence threshold =      1.0E-06
     mixing beta               =       0.1000
     number of iterations used =            8  local-TF  mixing
     Exchange-correlation=  SLA  PW   PBE  PBE
                           (   1   4   3   4   0   0   0)

     celldm(1)=  17.406729  celldm(2)=   0.000000  celldm(3)=   0.000000
     celldm(4)=   0.000000  celldm(5)=   0.000000  celldm(6)=   0.000000

     crystal axes: (cart. coord. in units of alat)
               a(1) = (   1.000000   0.000000   0.000000 )  
               a(2) = (  -0.001404   1.105696   0.000000 )  
               a(3) = (   0.000000   0.000000   3.520448 )  

     reciprocal axes: (cart. coord. in units 2 pi/alat)
               b(1) = (  1.000000  0.001270  0.000000 )  
               b(2) = (  0.000000  0.904408  0.000000 )  
               b(3) = (  0.000000  0.000000  0.284055 )  


     PseudoPot. # 1 for Ni read from file:
     ~/PSEUDO/Ni.pbe-n-rrkjus_psl.1.0.0.UPF
     MD5 check sum: Not computed, couldn't open file
     Pseudo is Ultrasoft + core correction, Zval = 10.0
     Generated using "atomic" code by A. Dal Corso  v.5.1.2
     Using radial grid of 1195 points,  6 beta functions with: 
                l(1) =   0
                l(2) =   0
                l(3) =   1
                l(4) =   1
                l(5) =   2
                l(6) =   2
     Q(r) pseudized with 0 coefficients 


     PseudoPot. # 2 for Mn read from file:
     ~/PSEUDO/Mn.pbe-spn-rrkjus_psl.0.3.1.UPF
     MD5 check sum: Not computed, couldn't open file
     Pseudo is Ultrasoft + core correction, Zval = 15.0
     Generated using &quot;atomic&quot; code by A. Dal Corso  v.6.2.2
     Using radial grid of 1187 points,  6 beta functions with: 
                l(1) =   0
                l(2) =   0
                l(3) =   1
                l(4) =   1
                l(5) =   2
                l(6) =   2
     Q(r) pseudized with 0 coefficients 


     PseudoPot. # 3 for P  read from file:
     ~/PSEUDO/P.pbe-n-rrkjus_psl.1.0.0.UPF
     MD5 check sum: Not computed, couldn't open file
     Pseudo is Ultrasoft + core correction, Zval =  5.0
     Generated using "atomic" code by A. Dal Corso  v.5.1
     Using radial grid of 1147 points,  6 beta functions with: 
                l(1) =   0
                l(2) =   0
                l(3) =   1
                l(4) =   1
                l(5) =   2
                l(6) =   2
     Q(r) pseudized with 0 coefficients 


     PseudoPot. # 4 for O  read from file:
     ~/PSEUDO/O.pbe-rrkjus.UPF
     MD5 check sum: Not computed, couldn't open file
     Pseudo is Ultrasoft, Zval =  6.0
     Generated by new atomic code, or converted to UPF format
     Using radial grid of 1269 points,  4 beta functions with: 
                l(1) =   0
                l(2) =   0
                l(3) =   1
                l(4) =   1
     Q(r) pseudized with 0 coefficients 


     PseudoPot. # 5 for H  read from file:
     ~/PSEUDO/H.pbe-rrkjus.UPF
     MD5 check sum: Not computed, couldn't open file
     Pseudo is Ultrasoft, Zval =  1.0
     Generated by new atomic code, or converted to UPF format
     Using radial grid of 1061 points,  2 beta functions with: 
                l(1) =   0
                l(2) =   0
     Q(r) pseudized with 0 coefficients 


     atomic species   valence    mass     pseudopotential
     Ni               10.00    58.69300     Ni( 1.00)
     Mn               15.00    54.93800     Mn( 1.00)
     P                 5.00    30.97300     P ( 1.00)
     O                 6.00    15.99900     O ( 1.00)
     H                 1.00     1.00790     H ( 1.00)

     Starting magnetic structure 
     atomic species   magnetization
     Ni              1.000
     Mn              1.000
     P               1.000
     O               1.000
     H               0.000

     No symmetry found



   Cartesian axes

     site n.     atom                  positions (alat units)
         1        Ni     tau(   1) = (   0.2421002   0.8609138   0.1302181  )
         2        Mn     tau(   2) = (   0.4924481   0.7886602   0.4655392  )
         3        Ni     tau(   3) = (   0.0052341   0.3031820   0.1284544  )
         4        Ni     tau(   4) = (   0.2570603   0.2374878   0.4617901  )
         5        Ni     tau(   5) = (   0.4976584   1.1048203   0.2964410  )
         6        Ni     tau(   6) = (   0.2495781   0.5440308   0.2953805  )
         7        P      tau(   7) = (   0.2083492   0.9982113   0.4588145  )
         8        P      tau(   8) = (   0.4584476   0.6559264   0.1347090  )
         9        P      tau(   9) = (   0.2889394   0.1031966   0.1319347  )
        10        P      tau(  10) = (   0.0400379   0.4338094   0.4586283  )
        11        O      tau(  11) = (   0.1314218   0.9248062   0.3189972  )
        12        O      tau(  12) = (   0.3797244   0.7272031   0.2742874  )
        13        O      tau(  13) = (   0.3662315   0.1762062   0.2720888  )
        14        O      tau(  14) = (   0.1171240   0.3646150   0.3169340  )
        15        O      tau(  15) = (   0.1510364   0.9068326   0.5881934  )
        16        O      tau(  16) = (   0.3981989   0.7453439   0.0053495  )
        17        O      tau(  17) = (   0.3490561   0.1888693   0.0010856  )
        18        O      tau(  18) = (   0.0982395   0.3475583   0.5894443  )
        19        O      tau(  19) = (   0.0992163   0.5918099   0.4542505  )
        20        O      tau(  20) = (   0.3467441   1.0504690   0.1405000  )
        21        O      tau(  21) = (   0.3739183   0.4303319   0.4477971  )
        22        O      tau(  22) = (   0.1230967   0.1088895   0.1422960  )
        23        O      tau(  23) = (   0.1242901   0.6635968   0.1442928  )
        24        O      tau(  24) = (   0.4011802   0.4971632   0.1376281  )
        25        O      tau(  25) = (   0.1484006   0.0497464   0.4550965  )
        26        O      tau(  26) = (   0.3736100   0.9942556   0.4492158  )
        27        Ni     tau(  27) = (   0.2413539   0.8509941   0.7820408  )
        28        Mn     tau(  28) = (   0.4917018   0.7787406   1.1173619  )
        29        Ni     tau(  29) = (   0.0044877   0.2932623   0.7802771  )
        30        Ni     tau(  30) = (   0.2563139   0.2275682   1.1136128  )
        31        Ni     tau(  31) = (   0.4969120   1.0949007   0.9482637  )
        32        Ni     tau(  32) = (   0.2488318   0.5341111   0.9472032  )
        33        P      tau(  33) = (   0.2076029   0.9882917   1.1106372  )
        34        P      tau(  34) = (   0.4577012   0.6460068   0.7865316  )
        35        P      tau(  35) = (   0.2881931   0.0932770   0.7837574  )
        36        P      tau(  36) = (   0.0392916   0.4238898   1.1104509  )
        37        O      tau(  37) = (   0.1306755   0.9148866   0.9708199  )
        38        O      tau(  38) = (   0.3789780   0.7172835   0.9261101  )
        39        O      tau(  39) = (   0.3654852   0.1662865   0.9239115  )
        40        O      tau(  40) = (   0.1163776   0.3546954   0.9687567  )
        41        O      tau(  41) = (   0.1502901   0.8969129   1.2400160  )
        42        O      tau(  42) = (   0.3974525   0.7354243   0.6571722  )
        43        O      tau(  43) = (   0.3483097   0.1789497   0.6529083  )
        44        O      tau(  44) = (   0.0974932   0.3376387   1.2412670  )
        45        O      tau(  45) = (   0.0984699   0.5818903   1.1060732  )
        46        O      tau(  46) = (   0.3459978   1.0405493   0.7923226  )
        47        O      tau(  47) = (   0.3731719   0.4204123   1.0996198  )
        48        O      tau(  48) = (   0.1223503   0.0989699   0.7941187  )
        49        O      tau(  49) = (   0.1235438   0.6536772   0.7961155  )
        50        O      tau(  50) = (   0.4004339   0.4872435   0.7894508  )
        51        O      tau(  51) = (   0.1476543   0.0398268   1.1069192  )
        52        O      tau(  52) = (   0.3728637   0.9843360   1.1010385  )
        53        Ni     tau(  53) = (   0.2370412   0.8309538   1.4331176  )
        54        Mn     tau(  54) = (   0.4926631   0.7628968   1.7632485  )
        55        Ni     tau(  55) = (   0.0034911   0.2761505   1.4288190  )
        56        Ni     tau(  56) = (   0.2447240   0.2143424   1.7402852  )
        57        Ni     tau(  57) = (   0.4995763   1.0749455   1.5940578  )
        58        Ni     tau(  58) = (   0.2416135   0.5184975   1.5926664  )
        59        P      tau(  59) = (   0.2112504   0.9662532   1.7634059  )
        60        P      tau(  60) = (   0.4542182   0.6277361   1.4346135  )
        61        P      tau(  61) = (   0.2883980   0.0741680   1.4295170  )
        62        P      tau(  62) = (   0.0313409   0.4059310   1.7580048  )
        63        O      tau(  63) = (   0.1301929   0.8896257   1.6241257  )
        64        O      tau(  64) = (   0.3764588   0.7005702   1.5725819  )
        65        O      tau(  65) = (   0.3665257   0.1482364   1.5677237  )
        66        O      tau(  66) = (   0.1091997   0.3432023   1.6091719  )
        67        O      tau(  67) = (   0.1578284   0.8739230   1.8896615  )
        68        O      tau(  68) = (   0.3933424   0.7186889   1.3072492  )
        69        O      tau(  69) = (   0.3501246   0.1627399   1.3008447  )
        70        O      tau(  70) = (   0.0912886   0.3068810   1.8752755  )
        71        O      tau(  71) = (   0.0914117   0.5660224   1.7516325  )
        72        O      tau(  72) = (   0.3458000   1.0214174   1.4372269  )
        73        O      tau(  73) = (   0.3623972   0.4009134   1.7433105  )
        74        O      tau(  74) = (   0.1220058   0.0808885   1.4419267  )
        75        O      tau(  75) = (   0.1203913   0.6366918   1.4432295  )
        76        O      tau(  76) = (   0.3954417   0.4696211   1.4353043  )
        77        O      tau(  77) = (   0.1540582   0.0191928   1.7538461  )
        78        O      tau(  78) = (   0.3779668   0.9615796   1.7458500  )
        79        Ni     tau(  79) = (   0.7421002   0.8609138   0.1302181  )
        80        Mn     tau(  80) = (   0.9924481   0.7886602   0.4655392  )
        81        Ni     tau(  81) = (   0.5052341   0.3031820   0.1284544  )
        82        Ni     tau(  82) = (   0.7570603   0.2374878   0.4617901  )
        83        Ni     tau(  83) = (   0.9976584   1.1048203   0.2964410  )
        84        Ni     tau(  84) = (   0.7495781   0.5440308   0.2953805  )
        85        P      tau(  85) = (   0.7083492   0.9982113   0.4588145  )
        86        P      tau(  86) = (   0.9584476   0.6559264   0.1347090  )
        87        P      tau(  87) = (   0.7889394   0.1031966   0.1319347  )
        88        P      tau(  88) = (   0.5400379   0.4338094   0.4586283  )
        89        O      tau(  89) = (   0.6314218   0.9248062   0.3189972  )
        90        O      tau(  90) = (   0.8797244   0.7272031   0.2742874  )
        91        O      tau(  91) = (   0.8662315   0.1762062   0.2720888  )
        92        O      tau(  92) = (   0.6171240   0.3646150   0.3169340  )
        93        O      tau(  93) = (   0.6510364   0.9068326   0.5881934  )
        94        O      tau(  94) = (   0.8981989   0.7453439   0.0053495  )
        95        O      tau(  95) = (   0.8490561   0.1888693   0.0010856  )
        96        O      tau(  96) = (   0.5982395   0.3475583   0.5894443  )
        97        O      tau(  97) = (   0.5992163   0.5918099   0.4542505  )
        98        O      tau(  98) = (   0.8467441   1.0504690   0.1405000  )
        99        O      tau(  99) = (   0.8739183   0.4303319   0.4477971  )
       100        O      tau( 100) = (   0.6230967   0.1088895   0.1422960  )
       101        O      tau( 101) = (   0.6242901   0.6635968   0.1442928  )
       102        O      tau( 102) = (   0.9011802   0.4971632   0.1376281  )
       103        O      tau( 103) = (   0.6484006   0.0497464   0.4550965  )
       104        O      tau( 104) = (   0.8736100   0.9942556   0.4492158  )
       105        Ni     tau( 105) = (   0.7413539   0.8509941   0.7820408  )
       106        Mn     tau( 106) = (   0.9917018   0.7787406   1.1173619  )
       107        Ni     tau( 107) = (   0.5044877   0.2932623   0.7802771  )
       108        Ni     tau( 108) = (   0.7563139   0.2275682   1.1136128  )
       109        Ni     tau( 109) = (   0.9969120   1.0949007   0.9482637  )
       110        Ni     tau( 110) = (   0.7488318   0.5341111   0.9472032  )
       111        P      tau( 111) = (   0.7076029   0.9882917   1.1106372  )
       112        P      tau( 112) = (   0.9577012   0.6460068   0.7865316  )
       113        P      tau( 113) = (   0.7881931   0.0932770   0.7837574  )
       114        P      tau( 114) = (   0.5392916   0.4238898   1.1104509  )
       115        O      tau( 115) = (   0.6306755   0.9148866   0.9708199  )
       116        O      tau( 116) = (   0.8789780   0.7172835   0.9261101  )
       117        O      tau( 117) = (   0.8654852   0.1662865   0.9239115  )
       118        O      tau( 118) = (   0.6163776   0.3546954   0.9687567  )
       119        O      tau( 119) = (   0.6502901   0.8969129   1.2400160  )
       120        O      tau( 120) = (   0.8974525   0.7354243   0.6571722  )
       121        O      tau( 121) = (   0.8483097   0.1789497   0.6529083  )
       122        O      tau( 122) = (   0.5974932   0.3376387   1.2412670  )
       123        O      tau( 123) = (   0.5984699   0.5818903   1.1060732  )
       124        O      tau( 124) = (   0.8459978   1.0405493   0.7923226  )
       125        O      tau( 125) = (   0.8731719   0.4204123   1.0996198  )
       126        O      tau( 126) = (   0.6223503   0.0989699   0.7941187  )
       127        O      tau( 127) = (   0.6235438   0.6536772   0.7961155  )
       128        O      tau( 128) = (   0.9004339   0.4872435   0.7894508  )
       129        O      tau( 129) = (   0.6476543   0.0398268   1.1069192  )
       130        O      tau( 130) = (   0.8728637   0.9843360   1.1010385  )
       131        Ni     tau( 131) = (   0.7405475   0.8318259   1.4311132  )
       132        Mn     tau( 132) = (   0.9956110   0.7649913   1.7729082  )
       133        Ni     tau( 133) = (   0.5039471   0.2761330   1.4286777  )
       134        Ni     tau( 134) = (   0.7471906   0.2159197   1.7400299  )
       135        Ni     tau( 135) = (   0.9997237   1.0727158   1.5948335  )
       136        Ni     tau( 136) = (   0.7423591   0.5225842   1.5983173  )
       137        P      tau( 137) = (   0.7106654   0.9687571   1.7578636  )
       138        P      tau( 138) = (   0.9535148   0.6281623   1.4350960  )
       139        P      tau( 139) = (   0.7895630   0.0747538   1.4291325  )
       140        P      tau( 140) = (   0.5297546   0.4018931   1.7598490  )
       141        O      tau( 141) = (   0.6360973   0.9008987   1.6134331  )
       142        O      tau( 142) = (   0.8772031   0.7029798   1.5721256  )
       143        O      tau( 143) = (   0.8675063   0.1478470   1.5680249  )
       144        O      tau( 144) = (   0.6092829   0.3462856   1.6101587  )
       145        O      tau( 145) = (   0.6496647   0.8750286   1.8813068  )
       146        O      tau( 146) = (   0.8923560   0.7173781   1.3061853  )
       147        O      tau( 147) = (   0.8502327   0.1643644   1.3007850  )
       148        O      tau( 148) = (   0.5890056   0.3002177   1.8750650  )
       149        O      tau( 149) = (   0.5837121   0.5633300   1.7648578  )
       150        O      tau( 150) = (   0.8492978   1.0227497   1.4347303  )
       151        O      tau( 151) = (   0.8642300   0.4033737   1.7425194  )
       152        O      tau( 152) = (   0.6231466   0.0817702   1.4418230  )
       153        O      tau( 153) = (   0.6205382   0.6372338   1.4467102  )
       154        O      tau( 154) = (   0.8948089   0.4700688   1.4374848  )
       155        O      tau( 155) = (   0.6554469   0.0221206   1.7549295  )
       156        O      tau( 156) = (   0.8783489   0.9609671   1.7489419  )
       157        O      tau( 157) = (   0.8823890   0.6919478   1.9099437  )
       158        H      tau( 158) = (   0.7942685   0.7497743   1.9280084  )

     -------------------------------------------------
     Parameters for Dispersion (Grimme-D2) Correction:
     -------------------------------------------------
       atom      VdW radius       C_6     

        Ni         2.952        374.666
        Mn         2.952        374.666
        P          3.222        271.980
        O          2.536         24.284
        H          1.892          4.857

     number of k points=     1  Gaussian smearing, width (Ry)=  0.0100
                       cart. coord. in units 2pi/alat
        k(    1) = (   0.0000000   0.0000000   0.0000000), wk =   1.0000000

     Dense  grid:  1938023 G-vectors     FFT dimensions: ( 125, 144, 450)

     Smooth grid:   490328 G-vectors     FFT dimensions: (  80,  90, 288)

     Estimated max dynamical RAM per process >     326.29 MB

     Estimated total dynamical RAM >      20.39 GB

     Check: negative core charge=   -0.000001
     Generating pointlists ...
     new r_m :   0.0887 (alat units)  1.5433 (a.u.) for type    1
     new r_m :   0.0793 (alat units)  1.3799 (a.u.) for type    2
     new r_m :   0.0679 (alat units)  1.1825 (a.u.) for type    3
     new r_m :   0.0441 (alat units)  0.7678 (a.u.) for type    4
     new r_m :   0.0441 (alat units)  0.7678 (a.u.) for type    5

     Initial potential from superposition of free atoms

     starting charge    1092.8893, renormalised to    1093.0000

     negative rho (up, down):  1.403E-03 4.538E-04
 
     Adding external electric field

     Computed dipole along edir(3) : 
        Dipole                1.6282 Ry au,          4.1384 Debye
        Dipole field          0.0010 Ry au, 
 
        Potential amp.       -0.1099 Ry
        Total length         55.1515 bohr
 
 
     Adding external electric field

     Computed dipole along edir(3) : 
        Dipole                1.6282 Ry au,          4.1384 Debye
        Dipole field          0.0010 Ry au, 
 
        Potential amp.       -0.1099 Ry
        Total length         55.1515 bohr
 
     Starting wfcs are  815 randomized atomic wfcs

     total cpu time spent up to now is       12.1 secs

     Self-consistent Calculation

     iteration #  1     ecut=    50.00 Ry     beta= 0.10
     Davidson diagonalization with overlap
     ethr =  1.00E-02,  avg # of iterations =  6.0

     negative rho (up, down):  3.760E-01 1.883E-07
 
     Adding external electric field

     Computed dipole along edir(3) : 
        Dipole               -3.4572 Ry au,         -8.7874 Debye
        Dipole field         -0.0021 Ry au, 
 
        Potential amp.        0.2334 Ry
        Total length         55.1515 bohr
 
 
     Adding external electric field

     Computed dipole along edir(3) : 
        Dipole               -3.4572 Ry au,         -8.7874 Debye
        Dipole field         -0.0021 Ry au, 
 
        Potential amp.        0.2334 Ry
        Total length         55.1515 bohr
 

     total cpu time spent up to now is       46.8 secs

     total energy              =   -7516.47854392 Ry
     estimated scf accuracy    <     736.65588908 Ry

     total magnetization       =   219.00 Bohr mag/cell
     absolute magnetization    =   307.57 Bohr mag/cell

     iteration #  2     ecut=    50.00 Ry     beta= 0.10
     Davidson diagonalization with overlap
     ethr =  1.00E-02,  avg # of iterations =  2.0

     negative rho (up, down):  3.566E-01 7.133E-08
 
     Adding external electric field

     Computed dipole along edir(3) : 
        Dipole               -2.2959 Ry au,         -5.8355 Debye
        Dipole field         -0.0014 Ry au, 
 
        Potential amp.        0.1550 Ry
        Total length         55.1515 bohr
 
 
     Adding external electric field

     Computed dipole along edir(3) : 
        Dipole               -2.2959 Ry au,         -5.8355 Debye
        Dipole field         -0.0014 Ry au, 
 
        Potential amp.        0.1550 Ry
        Total length         55.1515 bohr
 

     total cpu time spent up to now is       66.8 secs

     total energy              =   -7600.49127039 Ry
     estimated scf accuracy    <     208.42387949 Ry

     total magnetization       =   160.42 Bohr mag/cell
     absolute magnetization    =   208.44 Bohr mag/cell

     iteration #  3     ecut=    50.00 Ry     beta= 0.10
     Davidson diagonalization with overlap
     ethr =  1.00E-02,  avg # of iterations =  1.5

     negative rho (up, down):  3.179E-01 7.518E-08
 
     Adding external electric field

     Computed dipole along edir(3) : 
        Dipole               -2.0367 Ry au,         -5.1767 Debye
        Dipole field         -0.0012 Ry au, 
 
        Potential amp.        0.1375 Ry
        Total length         55.1515 bohr
 
 
     Adding external electric field

     Computed dipole along edir(3) : 
        Dipole               -2.0367 Ry au,         -5.1767 Debye
        Dipole field         -0.0012 Ry au, 
 
        Potential amp.        0.1375 Ry
        Total length         55.1515 bohr
 

     total cpu time spent up to now is       82.4 secs

     total energy              =   -7629.69807109 Ry
     estimated scf accuracy    <      99.49118103 Ry

     total magnetization       =   136.49 Bohr mag/cell
     absolute magnetization    =   186.95 Bohr mag/cell

     iteration #  4     ecut=    50.00 Ry     beta= 0.10
     Davidson diagonalization with overlap
     ethr =  9.10E-03,  avg # of iterations =  1.0

     negative rho (up, down):  2.450E-01 5.115E-08
 
     Adding external electric field

     Computed dipole along edir(3) : 
        Dipole               -1.9306 Ry au,         -4.9072 Debye
        Dipole field         -0.0012 Ry au, 
 
        Potential amp.        0.1304 Ry
        Total length         55.1515 bohr
 
 
     Adding external electric field

     Computed dipole along edir(3) : 
        Dipole               -1.9306 Ry au,         -4.9072 Debye
        Dipole field         -0.0012 Ry au, 
 
        Potential amp.        0.1304 Ry
        Total length         55.1515 bohr
 

     total cpu time spent up to now is       96.3 secs

     total energy              =   -7663.81749406 Ry
     estimated scf accuracy    <      82.71331755 Ry

     total magnetization       =   120.52 Bohr mag/cell
     absolute magnetization    =   172.68 Bohr mag/cell

     iteration #  5     ecut=    50.00 Ry     beta= 0.10
     Davidson diagonalization with overlap
     ethr =  7.57E-03,  avg # of iterations =  1.0

     negative rho (up, down):  2.633E-02 9.294E-07
 
     Adding external electric field

     Computed dipole along edir(3) : 
        Dipole               -1.6194 Ry au,         -4.1160 Debye
        Dipole field         -0.0010 Ry au, 
 
        Potential amp.        0.1093 Ry
        Total length         55.1515 bohr
 
 
     Adding external electric field

     Computed dipole along edir(3) : 
        Dipole               -1.6194 Ry au,         -4.1160 Debye
        Dipole field         -0.0010 Ry au, 
 
        Potential amp.        0.1093 Ry
        Total length         55.1515 bohr
 

     total cpu time spent up to now is      110.6 secs

     total energy              =   -7722.82077993 Ry
     estimated scf accuracy    <      65.23232169 Ry

     total magnetization       =    97.22 Bohr mag/cell
     absolute magnetization    =   153.13 Bohr mag/cell

     iteration #  6     ecut=    50.00 Ry     beta= 0.10
     Davidson diagonalization with overlap
     ethr =  5.97E-03,  avg # of iterations =  1.0

     negative rho (up, down):  1.003E-03 1.939E-03
 
     Adding external electric field

     Computed dipole along edir(3) : 
        Dipole               -1.3318 Ry au,         -3.3851 Debye
        Dipole field         -0.0008 Ry au, 
 
        Potential amp.        0.0899 Ry
        Total length         55.1515 bohr
 
 
     Adding external electric field

     Computed dipole along edir(3) : 
        Dipole               -1.3318 Ry au,         -3.3851 Debye
        Dipole field         -0.0008 Ry au, 
 
        Potential amp.        0.0899 Ry
        Total length         55.1515 bohr
 

     total cpu time spent up to now is      123.8 secs

     total energy              =   -7735.57095256 Ry
     estimated scf accuracy    <      13.79138934 Ry

     total magnetization       =    91.00 Bohr mag/cell
     absolute magnetization    =   125.18 Bohr mag/cell

     iteration #  7     ecut=    50.00 Ry     beta= 0.10
     Davidson diagonalization with overlap
     ethr =  1.26E-03,  avg # of iterations =  8.0

     negative rho (up, down):  9.615E-04 1.836E-03
 
     Adding external electric field

     Computed dipole along edir(3) : 
        Dipole               -1.3121 Ry au,         -3.3350 Debye
        Dipole field         -0.0008 Ry au, 
 
        Potential amp.        0.0886 Ry
        Total length         55.1515 bohr
 
 
     Adding external electric field

     Computed dipole along edir(3) : 
        Dipole               -1.3121 Ry au,         -3.3350 Debye
        Dipole field         -0.0008 Ry au, 
 
        Potential amp.        0.0886 Ry
        Total length         55.1515 bohr
 

     total cpu time spent up to now is      152.9 secs

     total energy              =   -7738.53442329 Ry
     estimated scf accuracy    <      38.11907863 Ry

     total magnetization       =    64.71 Bohr mag/cell
     absolute magnetization    =    82.57 Bohr mag/cell

     iteration #  8     ecut=    50.00 Ry     beta= 0.10
     Davidson diagonalization with overlap
     ethr =  1.26E-03,  avg # of iterations =  1.0

     negative rho (up, down):  8.435E-04 1.492E-03
 
     Adding external electric field

     Computed dipole along edir(3) : 
        Dipole               -1.2541 Ry au,         -3.1875 Debye
        Dipole field         -0.0008 Ry au, 
 
        Potential amp.        0.0847 Ry
        Total length         55.1515 bohr
 
 
     Adding external electric field

     Computed dipole along edir(3) : 
        Dipole               -1.2541 Ry au,         -3.1875 Debye
        Dipole field         -0.0008 Ry au, 
 
        Potential amp.        0.0847 Ry
        Total length         55.1515 bohr
 

     total cpu time spent up to now is      167.0 secs

     total energy              =   -7738.43293347 Ry
     estimated scf accuracy    <      34.96488522 Ry

     total magnetization       =    65.76 Bohr mag/cell
     absolute magnetization    =    83.19 Bohr mag/cell

     iteration #  9     ecut=    50.00 Ry     beta= 0.10
     Davidson diagonalization with overlap
     ethr =  1.26E-03,  avg # of iterations =  1.0

     negative rho (up, down):  3.880E-04 8.247E-04
 
     Adding external electric field

     Computed dipole along edir(3) : 
        Dipole               -1.0628 Ry au,         -2.7015 Debye
        Dipole field         -0.0007 Ry au, 
 
        Potential amp.        0.0718 Ry
        Total length         55.1515 bohr
 
 
     Adding external electric field

     Computed dipole along edir(3) : 
        Dipole               -1.0628 Ry au,         -2.7015 Debye
        Dipole field         -0.0007 Ry au, 
 
        Potential amp.        0.0718 Ry
        Total length         55.1515 bohr
 

     total cpu time spent up to now is      182.0 secs

     total energy              =   -7738.08087284 Ry
     estimated scf accuracy    <      29.17901943 Ry

     total magnetization       =    67.20 Bohr mag/cell
     absolute magnetization    =    84.02 Bohr mag/cell

     iteration # 10     ecut=    50.00 Ry     beta= 0.10
     Davidson diagonalization with overlap
     ethr =  1.26E-03,  avg # of iterations =  1.0

     negative rho (up, down):  4.152E-04 8.204E-04
 
     Adding external electric field

     Computed dipole along edir(3) : 
        Dipole               -1.0725 Ry au,         -2.7259 Debye
        Dipole field         -0.0007 Ry au, 
 
        Potential amp.        0.0724 Ry
        Total length         55.1515 bohr
 
 
     Adding external electric field

     Computed dipole along edir(3) : 
        Dipole               -1.0725 Ry au,         -2.7259 Debye
        Dipole field         -0.0007 Ry au, 
 
        Potential amp.        0.0724 Ry
        Total length         55.1515 bohr
 

     total cpu time spent up to now is      195.4 secs

     total energy              =   -7738.20938079 Ry
     estimated scf accuracy    <      15.36595004 Ry

     total magnetization       =    71.78 Bohr mag/cell
     absolute magnetization    =    86.01 Bohr mag/cell

     iteration # 11     ecut=    50.00 Ry     beta= 0.10
     Davidson diagonalization with overlap
     ethr =  1.26E-03,  avg # of iterations =  1.0

     negative rho (up, down):  3.639E-04 6.634E-04
 
     Adding external electric field

     Computed dipole along edir(3) : 
        Dipole               -1.0816 Ry au,         -2.7491 Debye
        Dipole field         -0.0007 Ry au, 
 
        Potential amp.        0.0730 Ry
        Total length         55.1515 bohr
 
 
     Adding external electric field

     Computed dipole along edir(3) : 
        Dipole               -1.0816 Ry au,         -2.7491 Debye
        Dipole field         -0.0007 Ry au, 
 
        Potential amp.        0.0730 Ry
        Total length         55.1515 bohr
 

     total cpu time spent up to now is      207.9 secs

     total energy              =   -7737.82128779 Ry
     estimated scf accuracy    <      16.15276265 Ry

     total magnetization       =    71.60 Bohr mag/cell
     absolute magnetization    =    85.83 Bohr mag/cell

     iteration # 12     ecut=    50.00 Ry     beta= 0.10
     Davidson diagonalization with overlap
     ethr =  1.26E-03,  avg # of iterations =  1.0

     negative rho (up, down):  3.124E-04 6.954E-04
 
     Adding external electric field

     Computed dipole along edir(3) : 
        Dipole               -1.0381 Ry au,         -2.6386 Debye
        Dipole field         -0.0006 Ry au, 
 
        Potential amp.        0.0701 Ry
        Total length         55.1515 bohr
 
 
     Adding external electric field

     Computed dipole along edir(3) : 
        Dipole               -1.0381 Ry au,         -2.6386 Debye
        Dipole field         -0.0006 Ry au, 
 
        Potential amp.        0.0701 Ry
        Total length         55.1515 bohr
 

     total cpu time spent up to now is      221.6 secs

     total energy              =   -7737.95000265 Ry
     estimated scf accuracy    <       4.71383679 Ry

     total magnetization       =    80.14 Bohr mag/cell
     absolute magnetization    =    91.70 Bohr mag/cell

     iteration # 13     ecut=    50.00 Ry     beta= 0.10
     Davidson diagonalization with overlap
     ethr =  4.31E-04,  avg # of iterations =  1.5

     negative rho (up, down):  1.983E-04 5.407E-04
 
     Adding external electric field

     Computed dipole along edir(3) : 
        Dipole               -0.9252 Ry au,         -2.3517 Debye
        Dipole field         -0.0006 Ry au, 
 
        Potential amp.        0.0625 Ry
        Total length         55.1515 bohr
 
 
     Adding external electric field

     Computed dipole along edir(3) : 
        Dipole               -0.9252 Ry au,         -2.3517 Debye
        Dipole field         -0.0006 Ry au, 
 
        Potential amp.        0.0625 Ry
        Total length         55.1515 bohr
 

     total cpu time spent up to now is      237.0 secs

     total energy              =   -7737.99289619 Ry
     estimated scf accuracy    <       2.64534170 Ry

     total magnetization       =    82.01 Bohr mag/cell
     absolute magnetization    =    92.67 Bohr mag/cell

     iteration # 14     ecut=    50.00 Ry     beta= 0.10
     Davidson diagonalization with overlap
     ethr =  2.42E-04,  avg # of iterations =  1.5

     negative rho (up, down):  1.004E-04 3.314E-04
 
     Adding external electric field

     Computed dipole along edir(3) : 
        Dipole               -0.8382 Ry au,         -2.1305 Debye
        Dipole field         -0.0005 Ry au, 
 
        Potential amp.        0.0566 Ry
        Total length         55.1515 bohr
 
 
     Adding external electric field

     Computed dipole along edir(3) : 
        Dipole               -0.8382 Ry au,         -2.1305 Debye
        Dipole field         -0.0005 Ry au, 
 
        Potential amp.        0.0566 Ry
        Total length         55.1515 bohr
 

     total cpu time spent up to now is      251.6 secs

     total energy              =   -7738.07078292 Ry
     estimated scf accuracy    <       0.82549257 Ry

     total magnetization       =    87.42 Bohr mag/cell
     absolute magnetization    =    95.87 Bohr mag/cell

     iteration # 15     ecut=    50.00 Ry     beta= 0.10
     Davidson diagonalization with overlap
     ethr =  7.55E-05,  avg # of iterations = 12.0

     negative rho (up, down):  2.281E-05 6.522E-05
 
     Adding external electric field

     Computed dipole along edir(3) : 
        Dipole               -0.7044 Ry au,         -1.7903 Debye
        Dipole field         -0.0004 Ry au, 
 
        Potential amp.        0.0476 Ry
        Total length         55.1515 bohr
 
 
     Adding external electric field

     Computed dipole along edir(3) : 
        Dipole               -0.7044 Ry au,         -1.7903 Debye
        Dipole field         -0.0004 Ry au, 
 
        Potential amp.        0.0476 Ry
        Total length         55.1515 bohr
 

     total cpu time spent up to now is      280.1 secs

     total energy              =   -7738.13365950 Ry
     estimated scf accuracy    <       0.51127337 Ry

     total magnetization       =    87.48 Bohr mag/cell
     absolute magnetization    =    95.10 Bohr mag/cell

     iteration # 16     ecut=    50.00 Ry     beta= 0.10
     Davidson diagonalization with overlap
     ethr =  4.68E-05,  avg # of iterations =  2.0

     negative rho (up, down):  1.062E-05 3.867E-05
 
     Adding external electric field

     Computed dipole along edir(3) : 
        Dipole               -0.5965 Ry au,         -1.5162 Debye
        Dipole field         -0.0004 Ry au, 
 
        Potential amp.        0.0403 Ry
        Total length         55.1515 bohr
 
 
     Adding external electric field

     Computed dipole along edir(3) : 
        Dipole               -0.5965 Ry au,         -1.5162 Debye
        Dipole field         -0.0004 Ry au, 
 
        Potential amp.        0.0403 Ry
        Total length         55.1515 bohr
 

     total cpu time spent up to now is      295.7 secs

     total energy              =   -7738.18800087 Ry
     estimated scf accuracy    <       1.31268838 Ry

     total magnetization       =    83.72 Bohr mag/cell
     absolute magnetization    =    91.11 Bohr mag/cell

     iteration # 17     ecut=    50.00 Ry     beta= 0.10
     Davidson diagonalization with overlap
     ethr =  4.68E-05,  avg # of iterations =  1.5

     negative rho (up, down):  7.139E-07 5.376E-07
 
     Adding external electric field

     Computed dipole along edir(3) : 
        Dipole               -0.3453 Ry au,         -0.8776 Debye
        Dipole field         -0.0002 Ry au, 
 
        Potential amp.        0.0233 Ry
        Total length         55.1515 bohr
 
 
     Adding external electric field

     Computed dipole along edir(3) : 
        Dipole               -0.3453 Ry au,         -0.8776 Debye
        Dipole field         -0.0002 Ry au, 
 
        Potential amp.        0.0233 Ry
        Total length         55.1515 bohr
 

     total cpu time spent up to now is      309.8 secs

     total energy              =   -7738.30826657 Ry
     estimated scf accuracy    <       0.31633287 Ry

     total magnetization       =    87.22 Bohr mag/cell
     absolute magnetization    =    93.00 Bohr mag/cell

     iteration # 18     ecut=    50.00 Ry     beta= 0.10
     Davidson diagonalization with overlap
     c_bands:  4 eigenvalues not converged
     ethr =  2.89E-05,  avg # of iterations = 11.0

     negative rho (up, down):  1.608E-06 1.694E-06
 
     Adding external electric field

     Computed dipole along edir(3) : 
        Dipole               -0.4149 Ry au,         -1.0547 Debye
        Dipole field         -0.0003 Ry au, 
 
        Potential amp.        0.0280 Ry
        Total length         55.1515 bohr
 
 
     Adding external electric field

     Computed dipole along edir(3) : 
        Dipole               -0.4149 Ry au,         -1.0547 Debye
        Dipole field         -0.0003 Ry au, 
 
        Potential amp.        0.0280 Ry
        Total length         55.1515 bohr
 

     total cpu time spent up to now is      331.6 secs

     total energy              =   -7738.30478250 Ry
     estimated scf accuracy    <       0.86065600 Ry

     total magnetization       =    87.13 Bohr mag/cell
     absolute magnetization    =    90.87 Bohr mag/cell

     iteration # 19     ecut=    50.00 Ry     beta= 0.10
     Davidson diagonalization with overlap
     ethr =  2.89E-05,  avg # of iterations =  1.5

     negative rho (up, down):  3.413E-07 3.854E-08
 
     Adding external electric field

     Computed dipole along edir(3) : 
        Dipole               -0.3093 Ry au,         -0.7862 Debye
        Dipole field         -0.0002 Ry au, 
 
        Potential amp.        0.0209 Ry
        Total length         55.1515 bohr
 
 
     Adding external electric field

     Computed dipole along edir(3) : 
        Dipole               -0.3093 Ry au,         -0.7862 Debye
        Dipole field         -0.0002 Ry au, 
 
        Potential amp.        0.0209 Ry
        Total length         55.1515 bohr
 

     total cpu time spent up to now is      346.2 secs

     total energy              =   -7738.32194602 Ry
     estimated scf accuracy    <       0.42433503 Ry

     total magnetization       =    87.68 Bohr mag/cell
     absolute magnetization    =    91.69 Bohr mag/cell

     iteration # 20     ecut=    50.00 Ry     beta= 0.10
     Davidson diagonalization with overlap
     ethr =  2.89E-05,  avg # of iterations =  3.0

     negative rho (up, down):  3.911E-07 9.915E-08
 
     Adding external electric field

     Computed dipole along edir(3) : 
        Dipole               -0.3361 Ry au,         -0.8542 Debye
        Dipole field         -0.0002 Ry au, 
 
        Potential amp.        0.0227 Ry
        Total length         55.1515 bohr
 
 
     Adding external electric field

     Computed dipole along edir(3) : 
        Dipole               -0.3361 Ry au,         -0.8542 Debye
        Dipole field         -0.0002 Ry au, 
 
        Potential amp.        0.0227 Ry
        Total length         55.1515 bohr
 

     total cpu time spent up to now is      362.1 secs

     total energy              =   -7738.34220679 Ry
     estimated scf accuracy    <       0.80773503 Ry

     total magnetization       =    87.75 Bohr mag/cell
     absolute magnetization    =    91.16 Bohr mag/cell

     iteration # 21     ecut=    50.00 Ry     beta= 0.10
     Davidson diagonalization with overlap
     ethr =  2.89E-05,  avg # of iterations =  1.5

     negative rho (up, down):  4.910E-07 4.068E-07
 
     Adding external electric field

     Computed dipole along edir(3) : 
        Dipole               -0.3507 Ry au,         -0.8914 Debye
        Dipole field         -0.0002 Ry au, 
 
        Potential amp.        0.0237 Ry
        Total length         55.1515 bohr
 
 
     Adding external electric field

     Computed dipole along edir(3) : 
        Dipole               -0.3507 Ry au,         -0.8914 Debye
        Dipole field         -0.0002 Ry au, 
 
        Potential amp.        0.0237 Ry
        Total length         55.1515 bohr
 

     total cpu time spent up to now is      376.4 secs

     total energy              =   -7738.35671673 Ry
     estimated scf accuracy    <       0.45602953 Ry

     total magnetization       =    88.33 Bohr mag/cell
     absolute magnetization    =    91.41 Bohr mag/cell

     iteration # 22     ecut=    50.00 Ry     beta= 0.10
     Davidson diagonalization with overlap
     ethr =  2.89E-05,  avg # of iterations =  1.5

     negative rho (up, down):  1.483E-05 1.824E-05
 
     Adding external electric field

     Computed dipole along edir(3) : 
        Dipole               -0.3545 Ry au,         -0.9011 Debye
        Dipole field         -0.0002 Ry au, 
 
        Potential amp.        0.0239 Ry
        Total length         55.1515 bohr
 
 
     Adding external electric field

     Computed dipole along edir(3) : 
        Dipole               -0.3545 Ry au,         -0.9011 Debye
        Dipole field         -0.0002 Ry au, 
 
        Potential amp.        0.0239 Ry
        Total length         55.1515 bohr
 

     total cpu time spent up to now is      390.5 secs

     total energy              =   -7738.35671972 Ry
     estimated scf accuracy    <       0.38574055 Ry

     total magnetization       =    88.16 Bohr mag/cell
     absolute magnetization    =    90.91 Bohr mag/cell

     iteration # 23     ecut=    50.00 Ry     beta= 0.10
     Davidson diagonalization with overlap
     ethr =  2.89E-05,  avg # of iterations =  1.5

     negative rho (up, down):  1.253E-04 1.222E-04
 
     Adding external electric field

     Computed dipole along edir(3) : 
        Dipole               -0.3660 Ry au,         -0.9302 Debye
        Dipole field         -0.0002 Ry au, 
 
        Potential amp.        0.0247 Ry
        Total length         55.1515 bohr
 
 
     Adding external electric field

     Computed dipole along edir(3) : 
        Dipole               -0.3660 Ry au,         -0.9302 Debye
        Dipole field         -0.0002 Ry au, 
 
        Potential amp.        0.0247 Ry
        Total length         55.1515 bohr
 

     total cpu time spent up to now is      404.5 secs

     total energy              =   -7738.35715488 Ry
     estimated scf accuracy    <       0.27060520 Ry

     total magnetization       =    87.77 Bohr mag/cell
     absolute magnetization    =    90.06 Bohr mag/cell

     iteration # 24     ecut=    50.00 Ry     beta= 0.10
     Davidson diagonalization with overlap
     ethr =  2.48E-05,  avg # of iterations =  1.5

     negative rho (up, down):  1.033E-04 1.049E-04
 
     Adding external electric field

     Computed dipole along edir(3) : 
        Dipole               -0.3689 Ry au,         -0.9377 Debye
        Dipole field         -0.0002 Ry au, 
 
        Potential amp.        0.0249 Ry
        Total length         55.1515 bohr
 
 
     Adding external electric field

     Computed dipole along edir(3) : 
        Dipole               -0.3689 Ry au,         -0.9377 Debye
        Dipole field         -0.0002 Ry au, 
 
        Potential amp.        0.0249 Ry
        Total length         55.1515 bohr
 

     total cpu time spent up to now is      418.0 secs

     total energy              =   -7738.35844234 Ry
     estimated scf accuracy    <       0.15234514 Ry

     total magnetization       =    87.75 Bohr mag/cell
     absolute magnetization    =    89.68 Bohr mag/cell

     iteration # 25     ecut=    50.00 Ry     beta= 0.10
     Davidson diagonalization with overlap
     ethr =  1.39E-05,  avg # of iterations =  2.0

     negative rho (up, down):  1.418E-04 1.727E-04
 
     Adding external electric field

     Computed dipole along edir(3) : 
        Dipole               -0.3927 Ry au,         -0.9982 Debye
        Dipole field         -0.0002 Ry au, 
 
        Potential amp.        0.0265 Ry
        Total length         55.1515 bohr
 
 
     Adding external electric field

     Computed dipole along edir(3) : 
        Dipole               -0.3927 Ry au,         -0.9982 Debye
        Dipole field         -0.0002 Ry au, 
 
        Potential amp.        0.0265 Ry
        Total length         55.1515 bohr
 

     total cpu time spent up to now is      433.5 secs

     total energy              =   -7738.35287713 Ry
     estimated scf accuracy    <       0.14156353 Ry

     total magnetization       =    87.71 Bohr mag/cell
     absolute magnetization    =    89.65 Bohr mag/cell

     iteration # 26     ecut=    50.00 Ry     beta= 0.10
     Davidson diagonalization with overlap
     ethr =  1.30E-05,  avg # of iterations =  2.0

     negative rho (up, down):  8.981E-05 8.652E-05
 
     Adding external electric field

     Computed dipole along edir(3) : 
        Dipole               -0.3576 Ry au,         -0.9089 Debye
        Dipole field         -0.0002 Ry au, 
 
        Potential amp.        0.0241 Ry
        Total length         55.1515 bohr
 
 
     Adding external electric field

     Computed dipole along edir(3) : 
        Dipole               -0.3576 Ry au,         -0.9089 Debye
        Dipole field         -0.0002 Ry au, 
 
        Potential amp.        0.0241 Ry
        Total length         55.1515 bohr
 

     total cpu time spent up to now is      448.4 secs

     total energy              =   -7738.35485269 Ry
     estimated scf accuracy    <       0.06663446 Ry

     total magnetization       =    87.12 Bohr mag/cell
     absolute magnetization    =    88.94 Bohr mag/cell

     iteration # 27     ecut=    50.00 Ry     beta= 0.10
     Davidson diagonalization with overlap
     c_bands:  5 eigenvalues not converged
     c_bands:  3 eigenvalues not converged
     ethr =  6.10E-06,  avg # of iterations = 20.0

     negative rho (up, down):  4.372E-05 4.966E-05
 
     Adding external electric field

     Computed dipole along edir(3) : 
        Dipole               -0.3730 Ry au,         -0.9481 Debye
        Dipole field         -0.0002 Ry au, 
 
        Potential amp.        0.0252 Ry
        Total length         55.1515 bohr
 
 
     Adding external electric field

     Computed dipole along edir(3) : 
        Dipole               -0.3730 Ry au,         -0.9481 Debye
        Dipole field         -0.0002 Ry au, 
 
        Potential amp.        0.0252 Ry
        Total length         55.1515 bohr
 

     total cpu time spent up to now is      480.8 secs

     total energy              =   -7738.35293187 Ry
     estimated scf accuracy    <       0.09713516 Ry

     total magnetization       =    87.46 Bohr mag/cell
     absolute magnetization    =    89.25 Bohr mag/cell

     iteration # 28     ecut=    50.00 Ry     beta= 0.10
     Davidson diagonalization with overlap
     ethr =  6.10E-06,  avg # of iterations =  6.5

     negative rho (up, down):  5.825E-06 6.518E-06
 
     Adding external electric field

     Computed dipole along edir(3) : 
        Dipole               -0.3516 Ry au,         -0.8936 Debye
        Dipole field         -0.0002 Ry au, 
 
        Potential amp.        0.0237 Ry
        Total length         55.1515 bohr
 
 
     Adding external electric field

     Computed dipole along edir(3) : 
        Dipole               -0.3516 Ry au,         -0.8936 Debye
        Dipole field         -0.0002 Ry au, 
 
        Potential amp.        0.0237 Ry
        Total length         55.1515 bohr
 

     total cpu time spent up to now is      498.2 secs

     total energy              =   -7738.35287473 Ry
     estimated scf accuracy    <       0.07479321 Ry

     total magnetization       =    86.97 Bohr mag/cell
     absolute magnetization    =    88.82 Bohr mag/cell

     iteration # 29     ecut=    50.00 Ry     beta= 0.10
     Davidson diagonalization with overlap
     ethr =  6.10E-06,  avg # of iterations =  2.0

     negative rho (up, down):  6.169E-05 1.173E-04
 
     Adding external electric field

     Computed dipole along edir(3) : 
        Dipole               -0.3771 Ry au,         -0.9585 Debye
        Dipole field         -0.0002 Ry au, 
 
        Potential amp.        0.0255 Ry
        Total length         55.1515 bohr
 
 
     Adding external electric field

     Computed dipole along edir(3) : 
        Dipole               -0.3771 Ry au,         -0.9585 Debye
        Dipole field         -0.0002 Ry au, 
 
        Potential amp.        0.0255 Ry
        Total length         55.1515 bohr
 

     total cpu time spent up to now is      513.2 secs

     total energy              =   -7738.35480394 Ry
     estimated scf accuracy    <       0.20966141 Ry

     total magnetization       =    86.32 Bohr mag/cell
     absolute magnetization    =    88.24 Bohr mag/cell

     iteration # 30     ecut=    50.00 Ry     beta= 0.10
     Davidson diagonalization with overlap
     ethr =  6.10E-06,  avg # of iterations =  1.5

     negative rho (up, down):  9.463E-05 1.149E-04
 
     Adding external electric field

     Computed dipole along edir(3) : 
        Dipole               -0.3377 Ry au,         -0.8584 Debye
        Dipole field         -0.0002 Ry au, 
 
        Potential amp.        0.0228 Ry
        Total length         55.1515 bohr
 
 
     Adding external electric field

     Computed dipole along edir(3) : 
        Dipole               -0.3377 Ry au,         -0.8584 Debye
        Dipole field         -0.0002 Ry au, 
 
        Potential amp.        0.0228 Ry
        Total length         55.1515 bohr
 

     total cpu time spent up to now is      527.1 secs

     total energy              =   -7738.35486869 Ry
     estimated scf accuracy    <       0.14173931 Ry

     total magnetization       =    86.15 Bohr mag/cell
     absolute magnetization    =    87.90 Bohr mag/cell

     iteration # 31     ecut=    50.00 Ry     beta= 0.10
     Davidson diagonalization with overlap
     ethr =  6.10E-06,  avg # of iterations =  1.5

     negative rho (up, down):  1.111E-04 1.384E-04
 
     Adding external electric field

     Computed dipole along edir(3) : 
        Dipole               -0.3308 Ry au,         -0.8409 Debye
        Dipole field         -0.0002 Ry au, 
 
        Potential amp.        0.0223 Ry
        Total length         55.1515 bohr
 
 
     Adding external electric field

     Computed dipole along edir(3) : 
        Dipole               -0.3308 Ry au,         -0.8409 Debye
        Dipole field         -0.0002 Ry au, 
 
        Potential amp.        0.0223 Ry
        Total length         55.1515 bohr
 

     total cpu time spent up to now is      540.5 secs

     total energy              =   -7738.35577330 Ry
     estimated scf accuracy    <       0.07295373 Ry

     total magnetization       =    86.66 Bohr mag/cell
     absolute magnetization    =    88.23 Bohr mag/cell

     iteration # 32     ecut=    50.00 Ry     beta= 0.10
     Davidson diagonalization with overlap
     ethr =  6.10E-06,  avg # of iterations =  1.0

     negative rho (up, down):  7.426E-05 1.484E-04
 
     Adding external electric field

     Computed dipole along edir(3) : 
        Dipole               -0.3604 Ry au,         -0.9160 Debye
        Dipole field         -0.0002 Ry au, 
 
        Potential amp.        0.0243 Ry
        Total length         55.1515 bohr
 
 
     Adding external electric field

     Computed dipole along edir(3) : 
        Dipole               -0.3604 Ry au,         -0.9160 Debye
        Dipole field         -0.0002 Ry au, 
 
        Potential amp.        0.0243 Ry
        Total length         55.1515 bohr
 

     total cpu time spent up to now is      553.3 secs

     total energy              =   -7738.35539164 Ry
     estimated scf accuracy    <       0.07067875 Ry

     total magnetization       =    86.58 Bohr mag/cell
     absolute magnetization    =    88.11 Bohr mag/cell

     iteration # 33     ecut=    50.00 Ry     beta= 0.10
     Davidson diagonalization with overlap
     ethr =  6.10E-06,  avg # of iterations =  1.5

     negative rho (up, down):  2.995E-05 1.190E-04
 
     Adding external electric field

     Computed dipole along edir(3) : 
        Dipole               -0.3508 Ry au,         -0.8918 Debye
        Dipole field         -0.0002 Ry au, 
 
        Potential amp.        0.0237 Ry
        Total length         55.1515 bohr
 
 
     Adding external electric field

     Computed dipole along edir(3) : 
        Dipole               -0.3508 Ry au,         -0.8918 Debye
        Dipole field         -0.0002 Ry au, 
 
        Potential amp.        0.0237 Ry
        Total length         55.1515 bohr
 

     total cpu time spent up to now is      566.4 secs

     total energy              =   -7738.35211827 Ry
     estimated scf accuracy    <       0.09436621 Ry

     total magnetization       =    86.30 Bohr mag/cell
     absolute magnetization    =    87.86 Bohr mag/cell

     iteration # 34     ecut=    50.00 Ry     beta= 0.10
     Davidson diagonalization with overlap
     ethr =  6.10E-06,  avg # of iterations =  1.5

     negative rho (up, down):  1.582E-05 8.466E-06
 
     Adding external electric field

     Computed dipole along edir(3) : 
        Dipole               -0.2469 Ry au,         -0.6275 Debye
        Dipole field         -0.0002 Ry au, 
 
        Potential amp.        0.0167 Ry
        Total length         55.1515 bohr
 
 
     Adding external electric field

     Computed dipole along edir(3) : 
        Dipole               -0.2469 Ry au,         -0.6275 Debye
        Dipole field         -0.0002 Ry au, 
 
        Potential amp.        0.0167 Ry
        Total length         55.1515 bohr
 

     total cpu time spent up to now is      579.5 secs

     total energy              =   -7738.35000824 Ry
     estimated scf accuracy    <       0.12975004 Ry

     total magnetization       =    86.43 Bohr mag/cell
     absolute magnetization    =    87.92 Bohr mag/cell

     iteration # 35     ecut=    50.00 Ry     beta= 0.10
     Davidson diagonalization with overlap
     ethr =  6.10E-06,  avg # of iterations =  2.0

     negative rho (up, down):  7.573E-06 4.643E-06
 
     Adding external electric field

     Computed dipole along edir(3) : 
        Dipole               -0.2041 Ry au,         -0.5186 Debye
        Dipole field         -0.0001 Ry au, 
 
        Potential amp.        0.0138 Ry
        Total length         55.1515 bohr
 
 
     Adding external electric field

     Computed dipole along edir(3) : 
        Dipole               -0.2041 Ry au,         -0.5186 Debye
        Dipole field         -0.0001 Ry au, 
 
        Potential amp.        0.0138 Ry
        Total length         55.1515 bohr
 

     total cpu time spent up to now is      594.1 secs

     total energy              =   -7738.35568462 Ry
     estimated scf accuracy    <       0.11999024 Ry

     total magnetization       =    87.46 Bohr mag/cell
     absolute magnetization    =    88.89 Bohr mag/cell

     iteration # 36     ecut=    50.00 Ry     beta= 0.10
     Davidson diagonalization with overlap
     ethr =  6.10E-06,  avg # of iterations =  1.5

     negative rho (up, down):  5.394E-06 5.751E-06
 
     Adding external electric field

     Computed dipole along edir(3) : 
        Dipole               -0.1436 Ry au,         -0.3649 Debye
        Dipole field         -0.0001 Ry au, 
 
        Potential amp.        0.0097 Ry
        Total length         55.1515 bohr
 
 
     Adding external electric field

     Computed dipole along edir(3) : 
        Dipole               -0.1436 Ry au,         -0.3649 Debye
        Dipole field         -0.0001 Ry au, 
 
        Potential amp.        0.0097 Ry
        Total length         55.1515 bohr
 

     total cpu time spent up to now is      607.4 secs

     total energy              =   -7738.35431829 Ry
     estimated scf accuracy    <       0.10348473 Ry

     total magnetization       =    87.43 Bohr mag/cell
     absolute magnetization    =    88.90 Bohr mag/cell

     iteration # 37     ecut=    50.00 Ry     beta= 0.10
     Davidson diagonalization with overlap
     ethr =  6.10E-06,  avg # of iterations =  1.5

     negative rho (up, down):  2.467E-06 3.228E-06
 
     Adding external electric field

     Computed dipole along edir(3) : 
        Dipole               -0.2138 Ry au,         -0.5434 Debye
        Dipole field         -0.0001 Ry au, 
 
        Potential amp.        0.0144 Ry
        Total length         55.1515 bohr
 
 
     Adding external electric field

     Computed dipole along edir(3) : 
        Dipole               -0.2138 Ry au,         -0.5434 Debye
        Dipole field         -0.0001 Ry au, 
 
        Potential amp.        0.0144 Ry
        Total length         55.1515 bohr
 

     total cpu time spent up to now is      620.6 secs

     total energy              =   -7738.35432541 Ry
     estimated scf accuracy    <       0.07075775 Ry

     total magnetization       =    87.17 Bohr mag/cell
     absolute magnetization    =    88.81 Bohr mag/cell

     iteration # 38     ecut=    50.00 Ry     beta= 0.10
     Davidson diagonalization with overlap
     ethr =  6.10E-06,  avg # of iterations =  1.5

     negative rho (up, down):  1.158E-06 2.573E-06
 
     Adding external electric field

     Computed dipole along edir(3) : 
        Dipole               -0.2824 Ry au,         -0.7178 Debye
        Dipole field         -0.0002 Ry au, 
 
        Potential amp.        0.0191 Ry
        Total length         55.1515 bohr
 
 
     Adding external electric field

     Computed dipole along edir(3) : 
        Dipole               -0.2824 Ry au,         -0.7178 Debye
        Dipole field         -0.0002 Ry au, 
 
        Potential amp.        0.0191 Ry
        Total length         55.1515 bohr
 

     total cpu time spent up to now is      633.6 secs

     total energy              =   -7738.35312585 Ry
     estimated scf accuracy    <       0.06662882 Ry

     total magnetization       =    87.17 Bohr mag/cell
     absolute magnetization    =    88.86 Bohr mag/cell

     iteration # 39     ecut=    50.00 Ry     beta= 0.10
     Davidson diagonalization with overlap
     ethr =  6.10E-06,  avg # of iterations =  1.0

     negative rho (up, down):  2.286E-06 2.224E-06
 
     Adding external electric field

     Computed dipole along edir(3) : 
        Dipole               -0.2469 Ry au,         -0.6276 Debye
        Dipole field         -0.0002 Ry au, 
 
        Potential amp.        0.0167 Ry
        Total length         55.1515 bohr
 
 
     Adding external electric field

     Computed dipole along edir(3) : 
        Dipole               -0.2469 Ry au,         -0.6276 Debye
        Dipole field         -0.0002 Ry au, 
 
        Potential amp.        0.0167 Ry
        Total length         55.1515 bohr
 

     total cpu time spent up to now is      645.8 secs

     total energy              =   -7738.35441421 Ry
     estimated scf accuracy    <       0.05436117 Ry

     total magnetization       =    87.04 Bohr mag/cell
     absolute magnetization    =    88.81 Bohr mag/cell

     iteration # 40     ecut=    50.00 Ry     beta= 0.10
     Davidson diagonalization with overlap
     ethr =  4.97E-06,  avg # of iterations =  1.0

     negative rho (up, down):  2.147E-06 3.978E-06
 
     Adding external electric field

     Computed dipole along edir(3) : 
        Dipole               -0.2791 Ry au,         -0.7093 Debye
        Dipole field         -0.0002 Ry au, 
 
        Potential amp.        0.0188 Ry
        Total length         55.1515 bohr
 
 
     Adding external electric field

     Computed dipole along edir(3) : 
        Dipole               -0.2791 Ry au,         -0.7093 Debye
        Dipole field         -0.0002 Ry au, 
 
        Potential amp.        0.0188 Ry
        Total length         55.1515 bohr
 

     total cpu time spent up to now is      658.7 secs

     total energy              =   -7738.35449313 Ry
     estimated scf accuracy    <       0.06599920 Ry

     total magnetization       =    87.22 Bohr mag/cell
     absolute magnetization    =    88.98 Bohr mag/cell

     iteration # 41     ecut=    50.00 Ry     beta= 0.10
     Davidson diagonalization with overlap
     ethr =  4.97E-06,  avg # of iterations =  1.5

     negative rho (up, down):  1.319E-06 1.171E-06
 
     Adding external electric field

     Computed dipole along edir(3) : 
        Dipole               -0.2599 Ry au,         -0.6607 Debye
        Dipole field         -0.0002 Ry au, 
 
        Potential amp.        0.0175 Ry
        Total length         55.1515 bohr
 
 
     Adding external electric field

     Computed dipole along edir(3) : 
        Dipole               -0.2599 Ry au,         -0.6607 Debye
        Dipole field         -0.0002 Ry au, 
 
        Potential amp.        0.0175 Ry
        Total length         55.1515 bohr
 

     total cpu time spent up to now is      672.0 secs

     total energy              =   -7738.35483163 Ry
     estimated scf accuracy    <       0.06397565 Ry

     total magnetization       =    87.11 Bohr mag/cell
     absolute magnetization    =    88.81 Bohr mag/cell

     iteration # 42     ecut=    50.00 Ry     beta= 0.10
     Davidson diagonalization with overlap
     ethr =  4.97E-06,  avg # of iterations =  1.0

     negative rho (up, down):  3.045E-06 3.154E-06
 
     Adding external electric field

     Computed dipole along edir(3) : 
        Dipole               -0.2204 Ry au,         -0.5602 Debye
        Dipole field         -0.0001 Ry au, 
 
        Potential amp.        0.0149 Ry
        Total length         55.1515 bohr
 
 
     Adding external electric field

     Computed dipole along edir(3) : 
        Dipole               -0.2204 Ry au,         -0.5602 Debye
        Dipole field         -0.0001 Ry au, 
 
        Potential amp.        0.0149 Ry
        Total length         55.1515 bohr
 

     total cpu time spent up to now is      684.6 secs

     total energy              =   -7738.35245097 Ry
     estimated scf accuracy    <       0.09610732 Ry

     total magnetization       =    87.41 Bohr mag/cell
     absolute magnetization    =    89.06 Bohr mag/cell

     iteration # 43     ecut=    50.00 Ry     beta= 0.10
     Davidson diagonalization with overlap
     ethr =  4.97E-06,  avg # of iterations =  1.5

     negative rho (up, down):  2.623E-06 2.725E-06
 
     Adding external electric field

     Computed dipole along edir(3) : 
        Dipole               -0.2742 Ry au,         -0.6968 Debye
        Dipole field         -0.0002 Ry au, 
 
        Potential amp.        0.0185 Ry
        Total length         55.1515 bohr
 
 
     Adding external electric field

     Computed dipole along edir(3) : 
        Dipole               -0.2742 Ry au,         -0.6968 Debye
        Dipole field         -0.0002 Ry au, 
 
        Potential amp.        0.0185 Ry
        Total length         55.1515 bohr
 

     total cpu time spent up to now is      697.4 secs

     total energy              =   -7738.35570564 Ry
     estimated scf accuracy    <       0.07412133 Ry

     total magnetization       =    87.29 Bohr mag/cell
     absolute magnetization    =    89.16 Bohr mag/cell

     iteration # 44     ecut=    50.00 Ry     beta= 0.10
     Davidson diagonalization with overlap
     ethr =  4.97E-06,  avg # of iterations =  1.0

     negative rho (up, down):  1.422E-06 1.790E-06
 
     Adding external electric field

     Computed dipole along edir(3) : 
        Dipole               -0.3150 Ry au,         -0.8007 Debye
        Dipole field         -0.0002 Ry au, 
 
        Potential amp.        0.0213 Ry
        Total length         55.1515 bohr
 
 
     Adding external electric field

     Computed dipole along edir(3) : 
        Dipole               -0.3150 Ry au,         -0.8007 Debye
        Dipole field         -0.0002 Ry au, 
 
        Potential amp.        0.0213 Ry
        Total length         55.1515 bohr
 

     total cpu time spent up to now is      710.5 secs

     total energy              =   -7738.35380299 Ry
     estimated scf accuracy    <       0.08623646 Ry

     total magnetization       =    87.46 Bohr mag/cell
     absolute magnetization    =    89.17 Bohr mag/cell

     iteration # 45     ecut=    50.00 Ry     beta= 0.10
     Davidson diagonalization with overlap
     ethr =  4.97E-06,  avg # of iterations =  1.0

     negative rho (up, down):  1.032E-06 1.982E-06
 
     Adding external electric field

     Computed dipole along edir(3) : 
        Dipole               -0.3151 Ry au,         -0.8008 Debye
        Dipole field         -0.0002 Ry au, 
 
        Potential amp.        0.0213 Ry
        Total length         55.1515 bohr
 
 
     Adding external electric field

     Computed dipole along edir(3) : 
        Dipole               -0.3151 Ry au,         -0.8008 Debye
        Dipole field         -0.0002 Ry au, 
 
        Potential amp.        0.0213 Ry
        Total length         55.1515 bohr
 

     total cpu time spent up to now is      723.0 secs

     total energy              =   -7738.35264973 Ry
     estimated scf accuracy    <       0.05490823 Ry

     total magnetization       =    87.22 Bohr mag/cell
     absolute magnetization    =    88.98 Bohr mag/cell

     iteration # 46     ecut=    50.00 Ry     beta= 0.10
     Davidson diagonalization with overlap
     ethr =  4.97E-06,  avg # of iterations =  1.0

     negative rho (up, down):  7.295E-07 1.719E-06
 
     Adding external electric field

     Computed dipole along edir(3) : 
        Dipole               -0.3479 Ry au,         -0.8841 Debye
        Dipole field         -0.0002 Ry au, 
 
        Potential amp.        0.0235 Ry
        Total length         55.1515 bohr
 
 
     Adding external electric field

     Computed dipole along edir(3) : 
        Dipole               -0.3479 Ry au,         -0.8841 Debye
        Dipole field         -0.0002 Ry au, 
 
        Potential amp.        0.0235 Ry
        Total length         55.1515 bohr
 

     total cpu time spent up to now is      734.9 secs

     total energy              =   -7738.35218571 Ry
     estimated scf accuracy    <       0.05025059 Ry

     total magnetization       =    87.12 Bohr mag/cell
     absolute magnetization    =    88.96 Bohr mag/cell

     iteration # 47     ecut=    50.00 Ry     beta= 0.10
     Davidson diagonalization with overlap
     ethr =  4.60E-06,  avg # of iterations =  1.0

     negative rho (up, down):  1.646E-06 2.938E-06
 
     Adding external electric field

     Computed dipole along edir(3) : 
        Dipole               -0.2642 Ry au,         -0.6715 Debye
        Dipole field         -0.0002 Ry au, 
 
        Potential amp.        0.0178 Ry
        Total length         55.1515 bohr
 
 
     Adding external electric field

     Computed dipole along edir(3) : 
        Dipole               -0.2642 Ry au,         -0.6715 Debye
        Dipole field         -0.0002 Ry au, 
 
        Potential amp.        0.0178 Ry
        Total length         55.1515 bohr
 

     total cpu time spent up to now is      748.3 secs

     total energy              =   -7738.35263863 Ry
     estimated scf accuracy    <       0.05008854 Ry

     total magnetization       =    87.11 Bohr mag/cell
     absolute magnetization    =    88.98 Bohr mag/cell

     iteration # 48     ecut=    50.00 Ry     beta= 0.10
     Davidson diagonalization with overlap
     ethr =  4.58E-06,  avg # of iterations =  1.5

     negative rho (up, down):  1.761E-06 3.191E-06
 
     Adding external electric field

     Computed dipole along edir(3) : 
        Dipole               -0.2904 Ry au,         -0.7382 Debye
        Dipole field         -0.0002 Ry au, 
 
        Potential amp.        0.0196 Ry
        Total length         55.1515 bohr
 
 
     Adding external electric field

     Computed dipole along edir(3) : 
        Dipole               -0.2904 Ry au,         -0.7382 Debye
        Dipole field         -0.0002 Ry au, 
 
        Potential amp.        0.0196 Ry
        Total length         55.1515 bohr
 

     total cpu time spent up to now is      761.7 secs

     total energy              =   -7738.35254666 Ry
     estimated scf accuracy    <       0.04911636 Ry

     total magnetization       =    87.03 Bohr mag/cell
     absolute magnetization    =    88.85 Bohr mag/cell

     iteration # 49     ecut=    50.00 Ry     beta= 0.10
     Davidson diagonalization with overlap
     ethr =  4.49E-06,  avg # of iterations =  1.0

     negative rho (up, down):  2.035E-06 3.754E-06
 
     Adding external electric field

     Computed dipole along edir(3) : 
        Dipole               -0.3366 Ry au,         -0.8556 Debye
        Dipole field         -0.0002 Ry au, 
 
        Potential amp.        0.0227 Ry
        Total length         55.1515 bohr
 
 
     Adding external electric field

     Computed dipole along edir(3) : 
        Dipole               -0.3366 Ry au,         -0.8556 Debye
        Dipole field         -0.0002 Ry au, 
 
        Potential amp.        0.0227 Ry
        Total length         55.1515 bohr
 

     total cpu time spent up to now is      774.4 secs

     total energy              =   -7738.35313341 Ry
     estimated scf accuracy    <       0.04495353 Ry

     total magnetization       =    86.95 Bohr mag/cell
     absolute magnetization    =    88.78 Bohr mag/cell

     iteration # 50     ecut=    50.00 Ry     beta= 0.10
     Davidson diagonalization with overlap
     ethr =  4.11E-06,  avg # of iterations =  1.5

     negative rho (up, down):  2.302E-06 6.130E-06
 
     Adding external electric field

     Computed dipole along edir(3) : 
        Dipole               -0.4163 Ry au,         -1.0581 Debye
        Dipole field         -0.0003 Ry au, 
 
        Potential amp.        0.0281 Ry
        Total length         55.1515 bohr
 
 
     Adding external electric field

     Computed dipole along edir(3) : 
        Dipole               -0.4163 Ry au,         -1.0581 Debye
        Dipole field         -0.0003 Ry au, 
 
        Potential amp.        0.0281 Ry
        Total length         55.1515 bohr
 

     total cpu time spent up to now is      788.2 secs

     total energy              =   -7738.35253135 Ry
     estimated scf accuracy    <       0.04312863 Ry

     total magnetization       =    86.98 Bohr mag/cell
     absolute magnetization    =    88.78 Bohr mag/cell

     iteration # 51     ecut=    50.00 Ry     beta= 0.10
     Davidson diagonalization with overlap
     ethr =  3.95E-06,  avg # of iterations =  1.0

     negative rho (up, down):  2.719E-06 3.308E-06
 
     Adding external electric field

     Computed dipole along edir(3) : 
        Dipole               -0.4752 Ry au,         -1.2078 Debye
        Dipole field         -0.0003 Ry au, 
 
        Potential amp.        0.0321 Ry
        Total length         55.1515 bohr
 
 
     Adding external electric field

     Computed dipole along edir(3) : 
        Dipole               -0.4752 Ry au,         -1.2078 Debye
        Dipole field         -0.0003 Ry au, 
 
        Potential amp.        0.0321 Ry
        Total length         55.1515 bohr
 

     total cpu time spent up to now is      800.6 secs

     total energy              =   -7738.35438122 Ry
     estimated scf accuracy    <       0.04039635 Ry

     total magnetization       =    86.70 Bohr mag/cell
     absolute magnetization    =    88.51 Bohr mag/cell

     iteration # 52     ecut=    50.00 Ry     beta= 0.10
     Davidson diagonalization with overlap
     ethr =  3.70E-06,  avg # of iterations =  1.5

     negative rho (up, down):  2.882E-06 4.624E-06
 
     Adding external electric field

     Computed dipole along edir(3) : 
        Dipole               -0.4576 Ry au,         -1.1632 Debye
        Dipole field         -0.0003 Ry au, 
 
        Potential amp.        0.0309 Ry
        Total length         55.1515 bohr
 
 
     Adding external electric field

     Computed dipole along edir(3) : 
        Dipole               -0.4576 Ry au,         -1.1632 Debye
        Dipole field         -0.0003 Ry au, 
 
        Potential amp.        0.0309 Ry
        Total length         55.1515 bohr
 

     total cpu time spent up to now is      813.6 secs

     total energy              =   -7738.35506024 Ry
     estimated scf accuracy    <       0.04243811 Ry

     total magnetization       =    87.14 Bohr mag/cell
     absolute magnetization    =    88.85 Bohr mag/cell

     iteration # 53     ecut=    50.00 Ry     beta= 0.10
     Davidson diagonalization with overlap
     ethr =  3.70E-06,  avg # of iterations =  1.0

     negative rho (up, down):  1.356E-06 1.165E-06
 
     Adding external electric field

     Computed dipole along edir(3) : 
        Dipole               -0.4220 Ry au,         -1.0727 Debye
        Dipole field         -0.0003 Ry au, 
 
        Potential amp.        0.0285 Ry
        Total length         55.1515 bohr
 
 
     Adding external electric field

     Computed dipole along edir(3) : 
        Dipole               -0.4220 Ry au,         -1.0727 Debye
        Dipole field         -0.0003 Ry au, 
 
        Potential amp.        0.0285 Ry
        Total length         55.1515 bohr
 

     total cpu time spent up to now is      826.1 secs

     total energy              =   -7738.35439437 Ry
     estimated scf accuracy    <       0.04434397 Ry

     total magnetization       =    87.16 Bohr mag/cell
     absolute magnetization    =    88.86 Bohr mag/cell

     iteration # 54     ecut=    50.00 Ry     beta= 0.10
     Davidson diagonalization with overlap
     ethr =  3.70E-06,  avg # of iterations =  1.0

     negative rho (up, down):  1.757E-06 2.336E-06
 
     Adding external electric field

     Computed dipole along edir(3) : 
        Dipole               -0.4164 Ry au,         -1.0584 Debye
        Dipole field         -0.0003 Ry au, 
 
        Potential amp.        0.0281 Ry
        Total length         55.1515 bohr
 
 
     Adding external electric field

     Computed dipole along edir(3) : 
        Dipole               -0.4164 Ry au,         -1.0584 Debye
        Dipole field         -0.0003 Ry au, 
 
        Potential amp.        0.0281 Ry
        Total length         55.1515 bohr
 

     total cpu time spent up to now is      838.8 secs

     total energy              =   -7738.35305236 Ry
     estimated scf accuracy    <       0.04717571 Ry

     total magnetization       =    87.22 Bohr mag/cell
     absolute magnetization    =    88.94 Bohr mag/cell

     iteration # 55     ecut=    50.00 Ry     beta= 0.10
     Davidson diagonalization with overlap
     ethr =  3.70E-06,  avg # of iterations =  1.0

     negative rho (up, down):  9.668E-07 6.838E-07
 
     Adding external electric field

     Computed dipole along edir(3) : 
        Dipole               -0.3926 Ry au,         -0.9978 Debye
        Dipole field         -0.0002 Ry au, 
 
        Potential amp.        0.0265 Ry
        Total length         55.1515 bohr
 
 
     Adding external electric field

     Computed dipole along edir(3) : 
        Dipole               -0.3926 Ry au,         -0.9978 Debye
        Dipole field         -0.0002 Ry au, 
 
        Potential amp.        0.0265 Ry
        Total length         55.1515 bohr
 

     total cpu time spent up to now is      851.4 secs

     total energy              =   -7738.35421380 Ry
     estimated scf accuracy    <       0.04577380 Ry

     total magnetization       =    87.03 Bohr mag/cell
     absolute magnetization    =    88.84 Bohr mag/cell

     iteration # 56     ecut=    50.00 Ry     beta= 0.10
     Davidson diagonalization with overlap
     ethr =  3.70E-06,  avg # of iterations =  1.5

     negative rho (up, down):  9.270E-07 9.865E-07
 
     Adding external electric field

     Computed dipole along edir(3) : 
        Dipole               -0.4188 Ry au,         -1.0644 Debye
        Dipole field         -0.0003 Ry au, 
 
        Potential amp.        0.0283 Ry
        Total length         55.1515 bohr
 
 
     Adding external electric field

     Computed dipole along edir(3) : 
        Dipole               -0.4188 Ry au,         -1.0644 Debye
        Dipole field         -0.0003 Ry au, 
 
        Potential amp.        0.0283 Ry
        Total length         55.1515 bohr
 

     total cpu time spent up to now is      864.9 secs

     total energy              =   -7738.35416911 Ry
     estimated scf accuracy    <       0.05121394 Ry

     total magnetization       =    87.09 Bohr mag/cell
     absolute magnetization    =    88.74 Bohr mag/cell

     iteration # 57     ecut=    50.00 Ry     beta= 0.10
     Davidson diagonalization with overlap
     ethr =  3.70E-06,  avg # of iterations =  1.0

     negative rho (up, down):  1.350E-06 1.094E-06
 
     Adding external electric field

     Computed dipole along edir(3) : 
        Dipole               -0.3633 Ry au,         -0.9233 Debye
        Dipole field         -0.0002 Ry au, 
 
        Potential amp.        0.0245 Ry
        Total length         55.1515 bohr
 
 
     Adding external electric field

     Computed dipole along edir(3) : 
        Dipole               -0.3633 Ry au,         -0.9233 Debye
        Dipole field         -0.0002 Ry au, 
 
        Potential amp.        0.0245 Ry
        Total length         55.1515 bohr
 

     total cpu time spent up to now is      877.0 secs

     total energy              =   -7738.35422491 Ry
     estimated scf accuracy    <       0.04888608 Ry

     total magnetization       =    87.16 Bohr mag/cell
     absolute magnetization    =    88.88 Bohr mag/cell

     iteration # 58     ecut=    50.00 Ry     beta= 0.10
     Davidson diagonalization with overlap
     ethr =  3.70E-06,  avg # of iterations =  1.0

     negative rho (up, down):  1.038E-06 1.492E-06
 
     Adding external electric field

     Computed dipole along edir(3) : 
        Dipole               -0.3284 Ry au,         -0.8346 Debye
        Dipole field         -0.0002 Ry au, 
 
[...]
    -5.9707  -5.9479  -5.9254  -5.9208  -5.9052  -5.8820  -5.8782  -5.8473
    -5.8190  -5.8155  -5.7984  -5.7737  -5.7492  -5.7421  -5.7036  -5.6982
    -5.6907  -5.6570  -5.6149  -5.5920  -5.5825  -5.5475  -5.5307  -5.5106
    -5.5015  -5.4931  -5.4737  -5.4642  -5.4266  -5.4177  -5.3957  -5.3709
    -5.3036  -5.2417  -5.2331  -5.2093  -5.1978  -5.1856  -5.1544  -5.1084
    -5.0439  -5.0334  -5.0075  -4.9684  -4.9589  -4.9416  -4.9234  -4.8685
    -4.8255  -4.7746  -4.7687  -4.7583  -4.7510  -4.7072  -4.6758  -4.6665
    -4.5811  -4.5445  -4.5011  -4.4920  -4.4349  -4.4271  -4.4001  -4.3792
    -4.3700  -4.3431  -4.2269  -4.2174  -4.1904  -4.1673  -4.1397  -4.1120
    -4.1002  -4.0930  -4.0731  -4.0009  -3.9756  -3.9534  -3.9330  -3.9182
    -3.8700  -3.8331  -3.8273  -3.8036  -3.7974  -3.7692  -3.7379  -3.7001
    -3.6784  -3.6455  -3.6244  -3.6167  -3.6135  -3.5918  -3.5916  -3.5729
    -3.5413  -3.5224  -3.5117  -3.4896  -3.4852  -3.4671  -3.4559  -3.4252
    -3.4060  -3.3980  -3.3832  -3.3657  -3.3417  -3.3074  -3.2910  -3.2659
    -3.2398  -3.2385  -3.2194  -3.2087  -3.1962  -3.1496  -3.1291  -3.1022
    -3.0555  -3.0515  -3.0431  -3.0346  -3.0332  -3.0262  -3.0181  -2.9768
    -2.9464  -2.9405  -2.9319  -2.8823  -2.8720  -2.8681  -2.8138  -2.7973
    -2.7722  -2.7703  -2.7608  -2.7570  -2.7373  -2.7326  -2.7119  -2.7062
    -2.6910  -2.6683  -2.6604  -2.6314  -2.6274  -2.6136  -2.6072  -2.5991
    -2.5960  -2.5774  -2.5606  -2.5424  -2.5277  -2.5228  -2.4817  -2.4751
    -2.4535  -2.4436  -2.4224  -2.3957  -2.3613  -2.3549  -2.3350  -2.3015
    -2.2816  -2.2716  -2.2516  -2.2218  -2.2056  -2.1828  -2.1653  -2.1377
    -2.1294  -2.1218  -2.1138  -2.1052  -2.0777  -2.0666  -2.0252  -1.9960
    -1.9790  -1.9639  -1.9518  -1.9338  -1.9180  -1.9118  -1.8938  -1.8647
    -1.8555  -1.8390  -1.8188  -1.8108  -1.8047  -1.7852  -1.7735  -1.7669
    -1.7473  -1.7199  -1.7038  -1.6435  -1.6400  -1.6321  -1.5818  -1.5694
    -1.5638  -1.5335  -1.5124  -1.5014  -1.4924  -1.4837  -1.4513  -1.4346
    -1.4220  -1.4105  -1.3995  -1.3824  -1.3562  -1.3378  -1.3253  -1.3165
    -1.2744  -1.2633  -1.2437  -1.2105  -1.1904  -1.1439  -1.1220  -1.0802
    -1.0133  -0.9088  -0.8856  -0.8715  -0.8512  -0.7245  -0.7177  -0.5203
    -0.4827  -0.3188  -0.2723  -0.1403   0.1792   0.2100   0.2273   0.2439
     0.2499   0.2659   0.2925   0.3048   0.3268   0.3296   0.3500   0.3613
     0.3670   0.3728   0.3892   0.4030   0.4123   0.4139   0.4164   0.4223
     0.4265   0.4304   0.4460   0.4532   0.4557   0.4614   0.4741   0.4890
     0.4921   0.5000   0.5044   0.5123   0.5211   0.5319   0.5321   0.5393
     0.5595   0.5656   0.5743   0.5748   0.5818   0.5945   0.5972   0.6114
     0.6211   0.6228   0.6397   0.6418   0.6458   0.6497   0.6734   0.6770
     0.6807   0.6890   0.6946   0.7043   0.7104   0.7307   0.7351   0.7473
     0.7553   0.7586   0.7606   0.7711   0.7923   0.7950   0.8033   0.8085
     0.8174   0.8191   0.8277   0.8380   0.8496   0.8574   0.8677   0.8678
     0.8778   0.8898   0.9249   0.9356   0.9504   0.9526   0.9564   0.9821
     0.9976   1.0113   1.0959   1.0982   1.1970   1.2191   1.7457   1.7507
     1.7576   1.7707   1.7774   1.7857   1.8035   1.8182   1.8239   1.9026
     1.9184   1.9339   1.9639   1.9813   2.0219   2.0291   2.0438   2.1001
     2.1197   2.1325   2.1448   2.1465   2.1872   2.1925   2.2176   2.2286
     2.2430   2.2557   2.2833   2.2908   2.3013   2.3393   2.3534   2.3600
     2.3724   2.3871   2.3952   2.4141   2.4297   2.4461   2.4543   2.4746
     2.4848   2.5044   2.5069   2.5254   2.5341   2.5543   2.5853   2.6096
     2.6197   2.6335   2.6367   2.6934   2.7741   2.7921   2.8402   2.8598
     2.8883   2.9070   3.2969   3.5029   3.6321   3.6936   3.7493   3.8571
     3.9026   3.9252   3.9284   3.9537   3.9975   4.0665   4.0747   4.0866
     4.1091   4.1400   4.1483   4.1653   4.1820   4.3950   4.4796   4.6361
     4.8300   4.8779   4.9109   4.9340   4.9662   5.0297   5.0459   5.1031
     5.1240   5.1631   5.3926   6.2667   6.3575   6.4943   6.5994   6.6819
     6.7510   6.8312   6.8548   6.9071   6.9592   7.0434   7.0896   7.1800
     7.2422   7.3216   7.3512   7.3971   7.4692   7.5218   7.6160   7.6616
     7.6913   7.7008   7.7406   7.7740   7.8510   7.8603   7.8969   7.9464
     7.9836   8.0068   8.0550   8.0774   8.1149   8.1719   8.2019   8.2196
     8.2242   8.2736   8.3118   8.3329   8.3863   8.4099   8.4216   8.4395
     8.4503   8.4749   8.5056   8.5177   8.5421   8.5653   8.6056   8.6269
     8.6567   8.6890   8.6970   8.7272   8.7452   8.7851   8.8261   8.8659

     the Fermi energy is     1.6595 ev

!    total energy              =   -7738.34974366 Ry
     estimated scf accuracy    <       0.00000077 Ry
     smearing contrib. (-TS)   =      -0.02172173 Ry
     internal energy E=F+TS    =   -7738.32802193 Ry

     The total energy is F=E-TS. E is the sum of the following terms:
     one-electron contribution =  -95225.47646576 Ry
     hartree contribution      =   48228.80037018 Ry
     xc contribution           =   -2218.74162398 Ry
     ewald contribution        =   41478.89950707 Ry
     Dispersion Correction     =      -1.80991415 Ry
     electric field correction =       0.00010470 Ry

     total magnetization       =    86.97 Bohr mag/cell
     absolute magnetization    =    88.48 Bohr mag/cell

     convergence has been achieved in 135 iterations

     negative rho (up, down):  1.049E-03 5.969E-04

     Forces acting on atoms (cartesian axes, Ry/au):

     atom    1 type  1   force =     0.02515469   -0.03092422    0.01831414
     atom    2 type  2   force =    -0.01381608   -0.00156575   -0.00985761
     atom    3 type  1   force =    -0.02321216   -0.01852031    0.01970831
     atom    4 type  1   force =     0.00573729    0.00410286   -0.00635907
     atom    5 type  1   force =    -0.00192157    0.00123935   -0.00528259
     atom    6 type  1   force =     0.00205253    0.00766990   -0.00904827
     atom    7 type  3   force =    -0.00770137    0.00119259   -0.01046515
     atom    8 type  3   force =    -0.03501388    0.05415110   -0.08330990
     atom    9 type  3   force =     0.03414274    0.03817466   -0.06432185
     atom   10 type  3   force =    -0.00303686   -0.00246331   -0.01167820
     atom   11 type  4   force =     0.00664292    0.00549820    0.01385293
     atom   12 type  4   force =    -0.00030658   -0.00288621    0.01488575
     atom   13 type  4   force =     0.00198492    0.00175888    0.01743639
     atom   14 type  4   force =    -0.00047049   -0.00134678    0.01263976
     atom   15 type  4   force =    -0.00072220    0.00451591   -0.00190910
     atom   16 type  4   force =    -0.00045566    0.00269447    0.04014845
     atom   17 type  4   force =     0.00173885    0.00815111    0.03768098
     atom   18 type  4   force =     0.00802240   -0.00453912   -0.00038141
     atom   19 type  4   force =     0.00049109    0.01198842    0.00428586
     atom   20 type  4   force =    -0.00959740   -0.02688286   -0.00371757
     atom   21 type  4   force =    -0.01124399   -0.00044232    0.00066274
     atom   22 type  4   force =    -0.03219271    0.00310491    0.00783573
     atom   23 type  4   force =     0.03218601    0.00057502    0.01406517
     atom   24 type  4   force =     0.00698021   -0.03707809    0.00374738
     atom   25 type  4   force =    -0.00319126    0.00181806    0.00395954
     atom   26 type  4   force =     0.01794517   -0.00684790    0.00079623
     atom   27 type  1   force =    -0.00534256   -0.00867806    0.00280864
     atom   28 type  2   force =    -0.01350426    0.00019215    0.00461362
     atom   29 type  1   force =     0.00300510   -0.00514759   -0.00128380
     atom   30 type  1   force =     0.00258008    0.00374626   -0.00144199
     atom   31 type  1   force =     0.00139100   -0.00466068    0.00017642
     atom   32 type  1   force =    -0.00099863    0.00128594   -0.00164932
     atom   33 type  3   force =    -0.00689408   -0.00334741   -0.00086951
     atom   34 type  3   force =    -0.00810615    0.00270955   -0.00024106
     atom   35 type  3   force =     0.00442159   -0.00069798    0.00264706
     atom   36 type  3   force =     0.00061776    0.00040162   -0.00507311
     atom   37 type  4   force =     0.00877006    0.00549499    0.00716891
     atom   38 type  4   force =     0.00377444   -0.00086798   -0.01934212
     atom   39 type  4   force =    -0.00147081    0.00370119   -0.00971191
     atom   40 type  4   force =    -0.00129707   -0.00271619    0.00947316
     atom   41 type  4   force =    -0.00303067    0.00410649   -0.00706289
     atom   42 type  4   force =    -0.00429234   -0.00448702    0.01778410
     atom   43 type  4   force =     0.00773032    0.00341849    0.00769299
     atom   44 type  4   force =     0.01036657   -0.00561827   -0.00587751
     atom   45 type  4   force =     0.00315696    0.00373177   -0.00016083
     atom   46 type  4   force =     0.00244718   -0.00012822   -0.00557786
     atom   47 type  4   force =    -0.01284977   -0.00077433   -0.00333535
     atom   48 type  4   force =    -0.01474229    0.00127001    0.00339543
     atom   49 type  4   force =     0.01360911    0.00250635    0.00431942
     atom   50 type  4   force =    -0.00274469   -0.00510336   -0.00047590
     atom   51 type  4   force =    -0.00563461    0.00214370    0.00002555
     atom   52 type  4   force =     0.01577208   -0.00355676   -0.00451995
     atom   53 type  1   force =     0.00021318    0.00000940    0.00044578
     atom   54 type  2   force =    -0.00039446    0.00005926    0.00068648
     atom   55 type  1   force =    -0.00024064   -0.00001068    0.00013878
     atom   56 type  1   force =    -0.00014161    0.00012543   -0.00017829
     atom   57 type  1   force =     0.00030522   -0.00052060    0.00084876
     atom   58 type  1   force =    -0.00003043    0.00018194    0.00067706
     atom   59 type  3   force =     0.00019064    0.00004177    0.00026346
     atom   60 type  3   force =     0.00029857   -0.00019803    0.00011281
     atom   61 type  3   force =     0.00003393    0.00012680    0.00009220
     atom   62 type  3   force =     0.00000313   -0.00049763    0.00017752
     atom   63 type  4   force =    -0.00012980    0.00004308    0.00008176
     atom   64 type  4   force =     0.00004082    0.00010983    0.00003245
     atom   65 type  4   force =     0.00005111   -0.00011612    0.00037910
     atom   66 type  4   force =     0.00014914   -0.00001257   -0.00010921
     atom   67 type  4   force =     0.00040221    0.00016925   -0.00005927
     atom   68 type  4   force =    -0.00010480    0.00024376    0.00039910
     atom   69 type  4   force =    -0.00000622   -0.00048052   -0.00003442
     atom   70 type  4   force =     0.00011608   -0.00004887    0.00010614
     atom   71 type  4   force =    -0.00000455   -0.00010973    0.00021178
     atom   72 type  4   force =     0.00035309   -0.00034572    0.00012672
     atom   73 type  4   force =     0.00018173   -0.00063870   -0.00015790
     atom   74 type  4   force =     0.00017891   -0.00019886   -0.00007006
     atom   75 type  4   force =     0.00013550   -0.00014967   -0.00030439
     atom   76 type  4   force =     0.00039748   -0.00025158   -0.00024325
     atom   77 type  4   force =    -0.00042206   -0.00027768    0.00019278
     atom   78 type  4   force =    -0.00013886    0.00000412   -0.00016325
     atom   79 type  1   force =     0.02519718   -0.03093242    0.01831305
     atom   80 type  2   force =    -0.01370556   -0.00148972   -0.00992270
     atom   81 type  1   force =    -0.02320583   -0.01852854    0.01970837
     atom   82 type  1   force =     0.00573110    0.00409252   -0.00637050
     atom   83 type  1   force =    -0.00193022    0.00117928   -0.00525712
     atom   84 type  1   force =     0.00210247    0.00767690   -0.00905911
     atom   85 type  3   force =    -0.00768640    0.00122692   -0.01052223
     atom   86 type  3   force =    -0.03501380    0.05414960   -0.08331793
     atom   87 type  3   force =     0.03414933    0.03817427   -0.06432352
     atom   88 type  3   force =    -0.00305015   -0.00246337   -0.01168529
     atom   89 type  4   force =     0.00679191    0.00551302    0.01383369
     atom   90 type  4   force =    -0.00019497   -0.00280533    0.01488014
     atom   91 type  4   force =     0.00207412    0.00174659    0.01741248
     atom   92 type  4   force =    -0.00030619   -0.00133888    0.01264372
     atom   93 type  4   force =    -0.00070698    0.00471513   -0.00174021
     atom   94 type  4   force =    -0.00051457    0.00264717    0.03995157
     atom   95 type  4   force =     0.00186769    0.00815299    0.03767804
     atom   96 type  4   force =     0.00782525   -0.00455935   -0.00038379
     atom   97 type  4   force =     0.00061876    0.01206429    0.00417846
     atom   98 type  4   force =    -0.00949360   -0.02671002   -0.00367992
     atom   99 type  4   force =    -0.01125651   -0.00039886    0.00085886
     atom  100 type  4   force =    -0.03222100    0.00300394    0.00770821
     atom  101 type  4   force =     0.03221862    0.00057694    0.01406719
     atom  102 type  4   force =     0.00679971   -0.03707247    0.00375666
     atom  103 type  4   force =    -0.00309640    0.00176387    0.00394321
     atom  104 type  4   force =     0.01802688   -0.00686590    0.00080575
     atom  105 type  1   force =    -0.00512793   -0.00879046    0.00283851
     atom  106 type  2   force =    -0.01325186   -0.00024346    0.00454972
     atom  107 type  1   force =     0.00296591   -0.00513836   -0.00131405
     atom  108 type  1   force =     0.00258588    0.00451209   -0.00202298
     atom  109 type  1   force =     0.00152900   -0.00473564    0.00028328
     atom  110 type  1   force =    -0.00068550    0.00128316   -0.00169535
     atom  111 type  3   force =    -0.00664461   -0.00309608   -0.00164576
     atom  112 type  3   force =    -0.00785569    0.00256781   -0.00006229
     atom  113 type  3   force =     0.00443205   -0.00060892    0.00264314
     atom  114 type  3   force =     0.00061430   -0.00038012   -0.00557363
     atom  115 type  4   force =     0.00850289    0.00514266    0.00706792
     atom  116 type  4   force =     0.00375448   -0.00084186   -0.01933618
     atom  117 type  4   force =    -0.00136838    0.00370154   -0.00975299
     atom  118 type  4   force =    -0.00143957   -0.00275849    0.00959310
     atom  119 type  4   force =    -0.00215195    0.00513132   -0.00746184
     atom  120 type  4   force =    -0.00439388   -0.00441898    0.01785214
     atom  121 type  4   force =     0.00775209    0.00338429    0.00774043
     atom  122 type  4   force =     0.01024356   -0.00571126   -0.00653365
     atom  123 type  4   force =     0.00265265    0.00402538    0.00066895
     atom  124 type  4   force =     0.00227418   -0.00022353   -0.00560966
     atom  125 type  4   force =    -0.01275041   -0.00072397   -0.00340457
     atom  126 type  4   force =    -0.01480036    0.00125288    0.00341913
     atom  127 type  4   force =     0.01376021    0.00245002    0.00452497
     atom  128 type  4   force =    -0.00291679   -0.00508491   -0.00051116
     atom  129 type  4   force =    -0.00537428    0.00204348    0.00028334
     atom  130 type  4   force =     0.01563303   -0.00349294   -0.00461995
     atom  131 type  1   force =     0.00025417    0.00052906    0.00097852
     atom  132 type  2   force =    -0.00315297   -0.00147195    0.00331503
     atom  133 type  1   force =    -0.00007286    0.00027319    0.00020452
     atom  134 type  1   force =    -0.00024103    0.00007653    0.00062359
     atom  135 type  1   force =     0.00017254   -0.00027453    0.00069972
     atom  136 type  1   force =    -0.00048361    0.00009450    0.00055911
     atom  137 type  3   force =    -0.00067679   -0.00060752    0.00045600
     atom  138 type  3   force =    -0.00001502   -0.00008887   -0.00016556
     atom  139 type  3   force =     0.00019468   -0.00016691    0.00012335
     atom  140 type  3   force =     0.00029982   -0.00006895    0.00019297
     atom  141 type  4   force =    -0.00026619   -0.00015307   -0.00027452
     atom  142 type  4   force =     0.00007167   -0.00020806   -0.00019860
     atom  143 type  4   force =     0.00054722   -0.00012960    0.00004749
     atom  144 type  4   force =    -0.00013632    0.00020455   -0.00019571
     atom  145 type  4   force =     0.00002003    0.00095307   -0.00036290
     atom  146 type  4   force =     0.00006415    0.00025131    0.00025002
     atom  147 type  4   force =     0.00042789   -0.00005558   -0.00066877
     atom  148 type  4   force =     0.00027679    0.00040034    0.00032099
     atom  149 type  4   force =    -0.00003872   -0.00039357    0.00029913
     atom  150 type  4   force =    -0.00001370    0.00023937    0.00007664
     atom  151 type  4   force =     0.00034775   -0.00040100   -0.00007944
     atom  152 type  4   force =     0.00017454   -0.00042488   -0.00019197
     atom  153 type  4   force =     0.00022052    0.00027842    0.00037255
     atom  154 type  4   force =    -0.00002886   -0.00045709    0.00024126
     atom  155 type  4   force =    -0.00002425   -0.00034921    0.00038740
     atom  156 type  4   force =     0.00035134   -0.00073883   -0.00063240
     atom  157 type  4   force =     0.01460829   -0.00691842   -0.00550126
     atom  158 type  5   force =    -0.01020918    0.00752260    0.00290173

     Total force =     0.263721     Total SCF correction =     0.003795
 
     init_run     :      8.80s CPU      9.63s WALL (       1 calls)
     electrons    :   1901.24s CPU   2001.57s WALL (       1 calls)
     forces       :      4.40s CPU      4.92s WALL (       1 calls)
     force_london :      0.12s CPU      0.12s WALL (       1 calls)

     Called by init_run:
     wfcinit      :      5.33s CPU      5.58s WALL (       1 calls)
     potinit      :      0.54s CPU      0.73s WALL (       1 calls)
     hinit0       :      1.54s CPU      1.66s WALL (       1 calls)

     Called by electrons:
     c_bands      :   1467.48s CPU   1514.37s WALL (     135 calls)
     sum_band     :    273.23s CPU    300.26s WALL (     135 calls)
     v_of_rho     :     35.56s CPU     37.10s WALL (     136 calls)
     newd         :     77.86s CPU    100.33s WALL (     136 calls)
     mix_rho      :     42.86s CPU     43.05s WALL (     135 calls)
     energy_londo :      0.11s CPU      0.11s WALL (       1 calls)

     Called by c_bands:
     init_us_2    :      4.76s CPU      4.89s WALL (     544 calls)
     init_us_2:cp :      4.76s CPU      4.89s WALL (     544 calls)
     regterg      :   1431.01s CPU   1477.27s WALL (     271 calls)

     Called by *egterg:
     rdiaghg      :    374.58s CPU    395.29s WALL (     844 calls)
     h_psi        :    608.38s CPU    620.62s WALL (     846 calls)
     s_psi        :    113.22s CPU    113.29s WALL (     846 calls)
     g_psi        :      0.86s CPU      0.87s WALL (     573 calls)

     Called by h_psi:
     h_psi:calbec :    148.00s CPU    157.36s WALL (     846 calls)
     vloc_psi     :    346.29s CPU    347.83s WALL (     846 calls)
     add_vuspsi   :    112.71s CPU    114.03s WALL (     846 calls)

     General routines
     calbec       :    220.50s CPU    234.60s WALL (    1124 calls)
     fft          :     29.80s CPU     31.83s WALL (    2461 calls)
     ffts         :     26.27s CPU     26.35s WALL (   16889 calls)
     fftw         :    392.14s CPU    393.87s WALL (  451398 calls)
     interpolate  :      2.67s CPU      2.80s WALL (     272 calls)
 
     Parallel routines
 
     PWSCF        :  31m56.73s CPU  33m38.71s WALL

 
   This run was terminated on:  22: 3:41  17Nov2025            

=------------------------------------------------------------------------------=
   JOB DONE.
=------------------------------------------------------------------------------=
