
     Program PWSCF v.7.2 starts on 19Nov2025 at 23:31:42 

     This program is part of the open-source Quantum ESPRESSO suite
     for quantum simulation of materials; please cite
         "P. Giannozzi et al., J. Phys.:Condens. Matter 21 395502 (2009);
         "P. Giannozzi et al., J. Phys.:Condens. Matter 29 465901 (2017);
         "P. Giannozzi et al., J. Chem. Phys. 152 154105 (2020);
          URL http://www.quantum-espresso.org", 
     in publications or presentations arising from this work. More details at
     http://www.quantum-espresso.org/quote

     Parallel version (MPI), running on    64 processors

     MPI processes distributed on     4 nodes
     450356 MiB available memory on the printing compute node when the environment starts
 
     Reading input from PWINPUT_atm158_zp

     Current dimensions of program PWSCF are:
     Max number of different atomic species (ntypx) = 10
     Max number of k-points (npk) =  40000
     Max angular momentum in pseudopotentials (lmaxx) =  4
     Presently no symmetry can be used with electric field

     file Ni.pbe-n-rrkjus_psl.1.0.0.UPF: wavefunction(s)  3D renormalized
     file Mn.pbe-spn-rrkjus_psl.0.3.1.UPF: wavefunction(s)  3D renormalized
     file O.pbe-rrkjus.UPF: wavefunction(s)  2S renormalized
     file H.pbe-rrkjus.UPF: wavefunction(s)  1S renormalized

     gamma-point specific algorithms are used
 
     R & G space division:  proc/nbgrp/npool/nimage =      64
     Subspace diagonalization in iterative solution of the eigenvalue problem:
     one sub-group per band group will be used
     custom distributed-memory algorithm (size of sub-group:  7*  7 procs)

 
     Parallelization info
     --------------------
     sticks:   dense  smooth     PW     G-vecs:    dense   smooth      PW
     Min         207      82     20                60552    15302    1896
     Max         210      84     22                60574    15336    1950
     Sum       13325    5345   1333              3876045   980655  122653
 
     Using Slab Decomposition
 


     bravais-lattice index     =            0
     lattice parameter (alat)  =      17.4067  a.u.
     unit-cell volume          =   20529.8182 (a.u.)^3
     number of atoms/cell      =          158
     number of atomic types    =            5
     number of electrons       =      1093.00
     number of Kohn-Sham states=          656
     kinetic-energy cutoff     =      50.0000  Ry
     charge density cutoff     =     500.0000  Ry
     scf convergence threshold =      1.0E-06
     mixing beta               =       0.5000
     number of iterations used =            8  local-TF  mixing
     Exchange-correlation=  SLA  PW   PBE  PBE
                           (   1   4   3   4   0   0   0)

     celldm(1)=  17.406729  celldm(2)=   0.000000  celldm(3)=   0.000000
     celldm(4)=   0.000000  celldm(5)=   0.000000  celldm(6)=   0.000000

     crystal axes: (cart. coord. in units of alat)
               a(1) = (   1.000000   0.000000   0.000000 )  
               a(2) = (  -0.001404   1.105696   0.000000 )  
               a(3) = (   0.000000   0.000000   3.520448 )  

     reciprocal axes: (cart. coord. in units 2 pi/alat)
               b(1) = (  1.000000  0.001270  0.000000 )  
               b(2) = (  0.000000  0.904408  0.000000 )  
               b(3) = (  0.000000  0.000000  0.284055 )  


     PseudoPot. # 1 for Ni read from file:
     ~/PSEUDO/Ni.pbe-n-rrkjus_psl.1.0.0.UPF
     MD5 check sum: Not computed, couldn't open file
     Pseudo is Ultrasoft + core correction, Zval = 10.0
     Generated using "atomic" code by A. Dal Corso  v.5.1.2
     Using radial grid of 1195 points,  6 beta functions with: 
                l(1) =   0
                l(2) =   0
                l(3) =   1
                l(4) =   1
                l(5) =   2
                l(6) =   2
     Q(r) pseudized with 0 coefficients 


     PseudoPot. # 2 for Mn read from file:
     ~/PSEUDO/Mn.pbe-spn-rrkjus_psl.0.3.1.UPF
     MD5 check sum: Not computed, couldn't open file
     Pseudo is Ultrasoft + core correction, Zval = 15.0
     Generated using &quot;atomic&quot; code by A. Dal Corso  v.6.2.2
     Using radial grid of 1187 points,  6 beta functions with: 
                l(1) =   0
                l(2) =   0
                l(3) =   1
                l(4) =   1
                l(5) =   2
                l(6) =   2
     Q(r) pseudized with 0 coefficients 


     PseudoPot. # 3 for P  read from file:
     ~/PSEUDO/P.pbe-n-rrkjus_psl.1.0.0.UPF
     MD5 check sum: Not computed, couldn't open file
     Pseudo is Ultrasoft + core correction, Zval =  5.0
     Generated using "atomic" code by A. Dal Corso  v.5.1
     Using radial grid of 1147 points,  6 beta functions with: 
                l(1) =   0
                l(2) =   0
                l(3) =   1
                l(4) =   1
                l(5) =   2
                l(6) =   2
     Q(r) pseudized with 0 coefficients 


     PseudoPot. # 4 for O  read from file:
     ~/PSEUDO/O.pbe-rrkjus.UPF
     MD5 check sum: Not computed, couldn't open file
     Pseudo is Ultrasoft, Zval =  6.0
     Generated by new atomic code, or converted to UPF format
     Using radial grid of 1269 points,  4 beta functions with: 
                l(1) =   0
                l(2) =   0
                l(3) =   1
                l(4) =   1
     Q(r) pseudized with 0 coefficients 


     PseudoPot. # 5 for H  read from file:
     ~/PSEUDO/H.pbe-rrkjus.UPF
     MD5 check sum: Not computed, couldn't open file
     Pseudo is Ultrasoft, Zval =  1.0
     Generated by new atomic code, or converted to UPF format
     Using radial grid of 1061 points,  2 beta functions with: 
                l(1) =   0
                l(2) =   0
     Q(r) pseudized with 0 coefficients 


     atomic species   valence    mass     pseudopotential
     Ni               10.00    58.69300     Ni( 1.00)
     Mn               15.00    54.93800     Mn( 1.00)
     P                 5.00    30.97300     P ( 1.00)
     O                 6.00    15.99900     O ( 1.00)
     H                 1.00     1.00790     H ( 1.00)

     Starting magnetic structure 
     atomic species   magnetization
     Ni              1.000
     Mn              1.000
     P               1.000
     O               1.000
     H               0.000

     No symmetry found



   Cartesian axes

     site n.     atom                  positions (alat units)
         1        Ni     tau(   1) = (   0.2421002   0.8609138   0.1302181  )
         2        Mn     tau(   2) = (   0.4924481   0.7886602   0.4655392  )
         3        Ni     tau(   3) = (   0.0052341   0.3031820   0.1284544  )
         4        Ni     tau(   4) = (   0.2570603   0.2374878   0.4617901  )
         5        Ni     tau(   5) = (   0.4976584   1.1048203   0.2964410  )
         6        Ni     tau(   6) = (   0.2495781   0.5440308   0.2953805  )
         7        P      tau(   7) = (   0.2083492   0.9982113   0.4588145  )
         8        P      tau(   8) = (   0.4584476   0.6559264   0.1347090  )
         9        P      tau(   9) = (   0.2889394   0.1031966   0.1319347  )
        10        P      tau(  10) = (   0.0400379   0.4338094   0.4586283  )
        11        O      tau(  11) = (   0.1314218   0.9248062   0.3189972  )
        12        O      tau(  12) = (   0.3797244   0.7272031   0.2742874  )
        13        O      tau(  13) = (   0.3662315   0.1762062   0.2720888  )
        14        O      tau(  14) = (   0.1171240   0.3646150   0.3169340  )
        15        O      tau(  15) = (   0.1510364   0.9068326   0.5881934  )
        16        O      tau(  16) = (   0.3981989   0.7453439   0.0053495  )
        17        O      tau(  17) = (   0.3490561   0.1888693   0.0010856  )
        18        O      tau(  18) = (   0.0982395   0.3475583   0.5894443  )
        19        O      tau(  19) = (   0.0992163   0.5918099   0.4542505  )
        20        O      tau(  20) = (   0.3467441   1.0504690   0.1405000  )
        21        O      tau(  21) = (   0.3739183   0.4303319   0.4477971  )
        22        O      tau(  22) = (   0.1230967   0.1088895   0.1422960  )
        23        O      tau(  23) = (   0.1242901   0.6635968   0.1442928  )
        24        O      tau(  24) = (   0.4011802   0.4971632   0.1376281  )
        25        O      tau(  25) = (   0.1484006   0.0497464   0.4550965  )
        26        O      tau(  26) = (   0.3736100   0.9942556   0.4492158  )
        27        Ni     tau(  27) = (   0.2413539   0.8509941   0.7820408  )
        28        Mn     tau(  28) = (   0.4917018   0.7787406   1.1173619  )
        29        Ni     tau(  29) = (   0.0044877   0.2932623   0.7802771  )
        30        Ni     tau(  30) = (   0.2563139   0.2275682   1.1136128  )
        31        Ni     tau(  31) = (   0.4969120   1.0949007   0.9482637  )
        32        Ni     tau(  32) = (   0.2488318   0.5341111   0.9472032  )
        33        P      tau(  33) = (   0.2076029   0.9882917   1.1106372  )
        34        P      tau(  34) = (   0.4577012   0.6460068   0.7865316  )
        35        P      tau(  35) = (   0.2881931   0.0932770   0.7837574  )
        36        P      tau(  36) = (   0.0392916   0.4238898   1.1104509  )
        37        O      tau(  37) = (   0.1306755   0.9148866   0.9708199  )
        38        O      tau(  38) = (   0.3789780   0.7172835   0.9261101  )
        39        O      tau(  39) = (   0.3654852   0.1662865   0.9239115  )
        40        O      tau(  40) = (   0.1163776   0.3546954   0.9687567  )
        41        O      tau(  41) = (   0.1502901   0.8969129   1.2400160  )
        42        O      tau(  42) = (   0.3974525   0.7354243   0.6571722  )
        43        O      tau(  43) = (   0.3483097   0.1789497   0.6529083  )
        44        O      tau(  44) = (   0.0974932   0.3376387   1.2412670  )
        45        O      tau(  45) = (   0.0984699   0.5818903   1.1060732  )
        46        O      tau(  46) = (   0.3459978   1.0405493   0.7923226  )
        47        O      tau(  47) = (   0.3731719   0.4204123   1.0996198  )
        48        O      tau(  48) = (   0.1223503   0.0989699   0.7941187  )
        49        O      tau(  49) = (   0.1235438   0.6536772   0.7961155  )
        50        O      tau(  50) = (   0.4004339   0.4872435   0.7894508  )
        51        O      tau(  51) = (   0.1476543   0.0398268   1.1069192  )
        52        O      tau(  52) = (   0.3728637   0.9843360   1.1010385  )
        53        Ni     tau(  53) = (   0.2370412   0.8309538   1.4331176  )
        54        Mn     tau(  54) = (   0.4926631   0.7628968   1.7632485  )
        55        Ni     tau(  55) = (   0.0034911   0.2761505   1.4288190  )
        56        Ni     tau(  56) = (   0.2447240   0.2143424   1.7402852  )
        57        Ni     tau(  57) = (   0.4995763   1.0749455   1.5940578  )
        58        Ni     tau(  58) = (   0.2416135   0.5184975   1.5926664  )
        59        P      tau(  59) = (   0.2112504   0.9662532   1.7634059  )
        60        P      tau(  60) = (   0.4542182   0.6277361   1.4346135  )
        61        P      tau(  61) = (   0.2883980   0.0741680   1.4295170  )
        62        P      tau(  62) = (   0.0313409   0.4059310   1.7580048  )
        63        O      tau(  63) = (   0.1301929   0.8896257   1.6241257  )
        64        O      tau(  64) = (   0.3764588   0.7005702   1.5725819  )
        65        O      tau(  65) = (   0.3665257   0.1482364   1.5677237  )
        66        O      tau(  66) = (   0.1091997   0.3432023   1.6091719  )
        67        O      tau(  67) = (   0.1578284   0.8739230   1.8896615  )
        68        O      tau(  68) = (   0.3933424   0.7186889   1.3072492  )
        69        O      tau(  69) = (   0.3501246   0.1627399   1.3008447  )
        70        O      tau(  70) = (   0.0912886   0.3068810   1.8752755  )
        71        O      tau(  71) = (   0.0914117   0.5660224   1.7516325  )
        72        O      tau(  72) = (   0.3458000   1.0214174   1.4372269  )
        73        O      tau(  73) = (   0.3623972   0.4009134   1.7433105  )
        74        O      tau(  74) = (   0.1220058   0.0808885   1.4419267  )
        75        O      tau(  75) = (   0.1203913   0.6366918   1.4432295  )
        76        O      tau(  76) = (   0.3954417   0.4696211   1.4353043  )
        77        O      tau(  77) = (   0.1540582   0.0191928   1.7538461  )
        78        O      tau(  78) = (   0.3779668   0.9615796   1.7458500  )
        79        Ni     tau(  79) = (   0.7421002   0.8609138   0.1302181  )
        80        Mn     tau(  80) = (   0.9924481   0.7886602   0.4655392  )
        81        Ni     tau(  81) = (   0.5052341   0.3031820   0.1284544  )
        82        Ni     tau(  82) = (   0.7570603   0.2374878   0.4617901  )
        83        Ni     tau(  83) = (   0.9976584   1.1048203   0.2964410  )
        84        Ni     tau(  84) = (   0.7495781   0.5440308   0.2953805  )
        85        P      tau(  85) = (   0.7083492   0.9982113   0.4588145  )
        86        P      tau(  86) = (   0.9584476   0.6559264   0.1347090  )
        87        P      tau(  87) = (   0.7889394   0.1031966   0.1319347  )
        88        P      tau(  88) = (   0.5400379   0.4338094   0.4586283  )
        89        O      tau(  89) = (   0.6314218   0.9248062   0.3189972  )
        90        O      tau(  90) = (   0.8797244   0.7272031   0.2742874  )
        91        O      tau(  91) = (   0.8662315   0.1762062   0.2720888  )
        92        O      tau(  92) = (   0.6171240   0.3646150   0.3169340  )
        93        O      tau(  93) = (   0.6510364   0.9068326   0.5881934  )
        94        O      tau(  94) = (   0.8981989   0.7453439   0.0053495  )
        95        O      tau(  95) = (   0.8490561   0.1888693   0.0010856  )
        96        O      tau(  96) = (   0.5982395   0.3475583   0.5894443  )
        97        O      tau(  97) = (   0.5992163   0.5918099   0.4542505  )
        98        O      tau(  98) = (   0.8467441   1.0504690   0.1405000  )
        99        O      tau(  99) = (   0.8739183   0.4303319   0.4477971  )
       100        O      tau( 100) = (   0.6230967   0.1088895   0.1422960  )
       101        O      tau( 101) = (   0.6242901   0.6635968   0.1442928  )
       102        O      tau( 102) = (   0.9011802   0.4971632   0.1376281  )
       103        O      tau( 103) = (   0.6484006   0.0497464   0.4550965  )
       104        O      tau( 104) = (   0.8736100   0.9942556   0.4492158  )
       105        Ni     tau( 105) = (   0.7413539   0.8509941   0.7820408  )
       106        Mn     tau( 106) = (   0.9917018   0.7787406   1.1173619  )
       107        Ni     tau( 107) = (   0.5044877   0.2932623   0.7802771  )
       108        Ni     tau( 108) = (   0.7563139   0.2275682   1.1136128  )
       109        Ni     tau( 109) = (   0.9969120   1.0949007   0.9482637  )
       110        Ni     tau( 110) = (   0.7488318   0.5341111   0.9472032  )
       111        P      tau( 111) = (   0.7076029   0.9882917   1.1106372  )
       112        P      tau( 112) = (   0.9577012   0.6460068   0.7865316  )
       113        P      tau( 113) = (   0.7881931   0.0932770   0.7837574  )
       114        P      tau( 114) = (   0.5392916   0.4238898   1.1104509  )
       115        O      tau( 115) = (   0.6306755   0.9148866   0.9708199  )
       116        O      tau( 116) = (   0.8789780   0.7172835   0.9261101  )
       117        O      tau( 117) = (   0.8654852   0.1662865   0.9239115  )
       118        O      tau( 118) = (   0.6163776   0.3546954   0.9687567  )
       119        O      tau( 119) = (   0.6502901   0.8969129   1.2400160  )
       120        O      tau( 120) = (   0.8974525   0.7354243   0.6571722  )
       121        O      tau( 121) = (   0.8483097   0.1789497   0.6529083  )
       122        O      tau( 122) = (   0.5974932   0.3376387   1.2412670  )
       123        O      tau( 123) = (   0.5984699   0.5818903   1.1060732  )
       124        O      tau( 124) = (   0.8459978   1.0405493   0.7923226  )
       125        O      tau( 125) = (   0.8731719   0.4204123   1.0996198  )
       126        O      tau( 126) = (   0.6223503   0.0989699   0.7941187  )
       127        O      tau( 127) = (   0.6235438   0.6536772   0.7961155  )
       128        O      tau( 128) = (   0.9004339   0.4872435   0.7894508  )
       129        O      tau( 129) = (   0.6476543   0.0398268   1.1069192  )
       130        O      tau( 130) = (   0.8728637   0.9843360   1.1010385  )
       131        Ni     tau( 131) = (   0.7405475   0.8318259   1.4311132  )
       132        Mn     tau( 132) = (   0.9956110   0.7649913   1.7729082  )
       133        Ni     tau( 133) = (   0.5039471   0.2761330   1.4286777  )
       134        Ni     tau( 134) = (   0.7471906   0.2159197   1.7400299  )
       135        Ni     tau( 135) = (   0.9997237   1.0727158   1.5948335  )
       136        Ni     tau( 136) = (   0.7423591   0.5225842   1.5983173  )
       137        P      tau( 137) = (   0.7106654   0.9687571   1.7578636  )
       138        P      tau( 138) = (   0.9535148   0.6281623   1.4350960  )
       139        P      tau( 139) = (   0.7895630   0.0747538   1.4291325  )
       140        P      tau( 140) = (   0.5297546   0.4018931   1.7598490  )
       141        O      tau( 141) = (   0.6360973   0.9008987   1.6134331  )
       142        O      tau( 142) = (   0.8772031   0.7029798   1.5721256  )
       143        O      tau( 143) = (   0.8675063   0.1478470   1.5680249  )
       144        O      tau( 144) = (   0.6092829   0.3462856   1.6101587  )
       145        O      tau( 145) = (   0.6496647   0.8750286   1.8813068  )
       146        O      tau( 146) = (   0.8923560   0.7173781   1.3061853  )
       147        O      tau( 147) = (   0.8502327   0.1643644   1.3007850  )
       148        O      tau( 148) = (   0.5890056   0.3002177   1.8750650  )
       149        O      tau( 149) = (   0.5837121   0.5633300   1.7648578  )
       150        O      tau( 150) = (   0.8492978   1.0227497   1.4347303  )
       151        O      tau( 151) = (   0.8642300   0.4033737   1.7425194  )
       152        O      tau( 152) = (   0.6231466   0.0817702   1.4418230  )
       153        O      tau( 153) = (   0.6205382   0.6372338   1.4467102  )
       154        O      tau( 154) = (   0.8948089   0.4700688   1.4374848  )
       155        O      tau( 155) = (   0.6554469   0.0221206   1.7549295  )
       156        O      tau( 156) = (   0.8783489   0.9609671   1.7489419  )
       157        O      tau( 157) = (   0.8834747   0.6919478   1.9099437  )
       158        H      tau( 158) = (   0.7942685   0.7497743   1.9290940  )

     -------------------------------------------------
     Parameters for Dispersion (Grimme-D2) Correction:
     -------------------------------------------------
       atom      VdW radius       C_6     

        Ni         2.952        374.666
        Mn         2.952        374.666
        P          3.222        271.980
        O          2.536         24.284
        H          1.892          4.857

     number of k points=     1  Gaussian smearing, width (Ry)=  0.0100
                       cart. coord. in units 2pi/alat
        k(    1) = (   0.0000000   0.0000000   0.0000000), wk =   1.0000000

     Dense  grid:  1938023 G-vectors     FFT dimensions: ( 125, 144, 450)

     Smooth grid:   490328 G-vectors     FFT dimensions: (  80,  90, 288)

     Estimated max dynamical RAM per process >     326.29 MB

     Estimated total dynamical RAM >      20.39 GB

     Check: negative core charge=   -0.000001
     Generating pointlists ...
     new r_m :   0.0887 (alat units)  1.5433 (a.u.) for type    1
     new r_m :   0.0790 (alat units)  1.3753 (a.u.) for type    2
     new r_m :   0.0679 (alat units)  1.1825 (a.u.) for type    3
     new r_m :   0.0446 (alat units)  0.7756 (a.u.) for type    4
     new r_m :   0.0446 (alat units)  0.7756 (a.u.) for type    5

     Initial potential from superposition of free atoms

     starting charge    1092.8893, renormalised to    1093.0000

     negative rho (up, down):  1.402E-03 4.538E-04
 
     Adding external electric field

     Computed dipole along edir(3) : 
        Dipole                1.6300 Ry au,          4.1431 Debye
        Dipole field          0.0010 Ry au, 
 
        Potential amp.       -0.1101 Ry
        Total length         55.1515 bohr
 
 
     Adding external electric field

     Computed dipole along edir(3) : 
        Dipole                1.6300 Ry au,          4.1431 Debye
        Dipole field          0.0010 Ry au, 
 
        Potential amp.       -0.1101 Ry
        Total length         55.1515 bohr
 
     Starting wfcs are  815 randomized atomic wfcs

     total cpu time spent up to now is       10.6 secs

     Self-consistent Calculation

     iteration #  1     ecut=    50.00 Ry     beta= 0.50
     Davidson diagonalization with overlap
     ethr =  1.00E-02,  avg # of iterations =  6.0

     negative rho (up, down):  2.487E+00 9.618E-07
 
     Adding external electric field

     Computed dipole along edir(3) : 
        Dipole              -24.0147 Ry au,        -61.0392 Debye
        Dipole field         -0.0147 Ry au, 
 
        Potential amp.        1.6214 Ry
        Total length         55.1515 bohr
 
 
     Adding external electric field

     Computed dipole along edir(3) : 
        Dipole              -24.0147 Ry au,        -61.0392 Debye
        Dipole field         -0.0147 Ry au, 
 
        Potential amp.        1.6214 Ry
        Total length         55.1515 bohr
 

     total cpu time spent up to now is       38.8 secs

     total energy              =   -7541.60130270 Ry
     estimated scf accuracy    <     737.02517993 Ry

     total magnetization       =   219.00 Bohr mag/cell
     absolute magnetization    =   307.63 Bohr mag/cell

     iteration #  2     ecut=    50.00 Ry     beta= 0.50
     Davidson diagonalization with overlap
     ethr =  1.00E-02,  avg # of iterations =  7.5

     negative rho (up, down):  2.529E+00 1.203E-05
 
     Adding external electric field

     Computed dipole along edir(3) : 
        Dipole               -0.5965 Ry au,         -1.5162 Debye
        Dipole field         -0.0004 Ry au, 
 
        Potential amp.        0.0403 Ry
        Total length         55.1515 bohr
 
 
     Adding external electric field

     Computed dipole along edir(3) : 
        Dipole               -0.5965 Ry au,         -1.5162 Debye
        Dipole field         -0.0004 Ry au, 
 
        Potential amp.        0.0403 Ry
        Total length         55.1515 bohr
 

     total cpu time spent up to now is       67.4 secs

     total energy              =   -7634.86608192 Ry
     estimated scf accuracy    <    8871.30149306 Ry

     total magnetization       =   120.72 Bohr mag/cell
     absolute magnetization    =   166.29 Bohr mag/cell

     iteration #  3     ecut=    50.00 Ry     beta= 0.50
     Davidson diagonalization with overlap
     ethr =  1.00E-02,  avg # of iterations =  5.5

     negative rho (up, down):  1.827E+00 2.281E-05
 
     Adding external electric field

     Computed dipole along edir(3) : 
        Dipole               -3.0097 Ry au,         -7.6500 Debye
        Dipole field         -0.0018 Ry au, 
 
        Potential amp.        0.2032 Ry
        Total length         55.1515 bohr
 
 
     Adding external electric field

     Computed dipole along edir(3) : 
        Dipole               -3.0097 Ry au,         -7.6500 Debye
        Dipole field         -0.0018 Ry au, 
 
        Potential amp.        0.2032 Ry
        Total length         55.1515 bohr
 

     total cpu time spent up to now is       84.9 secs

     total energy              =   -7701.93955259 Ry
     estimated scf accuracy    <     531.37365357 Ry

     total magnetization       =   127.74 Bohr mag/cell
     absolute magnetization    =   171.40 Bohr mag/cell

     iteration #  4     ecut=    50.00 Ry     beta= 0.50
     Davidson diagonalization with overlap
     ethr =  1.00E-02,  avg # of iterations =  3.5

     negative rho (up, down):  1.253E+00 2.642E-05
 
     Adding external electric field

     Computed dipole along edir(3) : 
        Dipole               -3.1858 Ry au,         -8.0975 Debye
        Dipole field         -0.0020 Ry au, 
 
        Potential amp.        0.2151 Ry
        Total length         55.1515 bohr
 
 
     Adding external electric field

     Computed dipole along edir(3) : 
        Dipole               -3.1858 Ry au,         -8.0975 Debye
        Dipole field         -0.0020 Ry au, 
 
        Potential amp.        0.2151 Ry
        Total length         55.1515 bohr
 

     total cpu time spent up to now is      100.1 secs

     total energy              =   -7719.96568332 Ry
     estimated scf accuracy    <      98.34241054 Ry

     total magnetization       =    93.01 Bohr mag/cell
     absolute magnetization    =   138.02 Bohr mag/cell

     iteration #  5     ecut=    50.00 Ry     beta= 0.50
     Davidson diagonalization with overlap
     ethr =  9.00E-03,  avg # of iterations =  1.5

     negative rho (up, down):  5.724E-01 0.000E+00
 
     Adding external electric field

     Computed dipole along edir(3) : 
        Dipole               -3.3077 Ry au,         -8.4074 Debye
        Dipole field         -0.0020 Ry au, 
 
        Potential amp.        0.2233 Ry
        Total length         55.1515 bohr
 
 
     Adding external electric field

     Computed dipole along edir(3) : 
        Dipole               -3.3077 Ry au,         -8.4074 Debye
        Dipole field         -0.0020 Ry au, 
 
        Potential amp.        0.2233 Ry
        Total length         55.1515 bohr
 

     total cpu time spent up to now is      113.1 secs

     total energy              =   -7729.58825857 Ry
     estimated scf accuracy    <      60.74238438 Ry

     total magnetization       =    91.00 Bohr mag/cell
     absolute magnetization    =   126.76 Bohr mag/cell

     iteration #  6     ecut=    50.00 Ry     beta= 0.50
     Davidson diagonalization with overlap
     ethr =  5.56E-03,  avg # of iterations =  2.0

     negative rho (up, down):  2.573E-01 1.581E-07
 
     Adding external electric field

     Computed dipole along edir(3) : 
        Dipole               -3.4733 Ry au,         -8.8282 Debye
        Dipole field         -0.0021 Ry au, 
 
        Potential amp.        0.2345 Ry
        Total length         55.1515 bohr
 
 
     Adding external electric field

     Computed dipole along edir(3) : 
        Dipole               -3.4733 Ry au,         -8.8282 Debye
        Dipole field         -0.0021 Ry au, 
 
        Potential amp.        0.2345 Ry
        Total length         55.1515 bohr
 

     total cpu time spent up to now is      126.2 secs

     total energy              =   -7732.98917516 Ry
     estimated scf accuracy    <      53.84181122 Ry

     total magnetization       =    85.21 Bohr mag/cell
     absolute magnetization    =   110.62 Bohr mag/cell

     iteration #  7     ecut=    50.00 Ry     beta= 0.50
     Davidson diagonalization with overlap
     ethr =  4.93E-03,  avg # of iterations =  1.5

     negative rho (up, down):  2.006E-04 3.880E-03
 
     Adding external electric field

     Computed dipole along edir(3) : 
        Dipole               -3.7980 Ry au,         -9.6534 Debye
        Dipole field         -0.0023 Ry au, 
 
        Potential amp.        0.2564 Ry
        Total length         55.1515 bohr
 
 
     Adding external electric field

     Computed dipole along edir(3) : 
        Dipole               -3.7980 Ry au,         -9.6534 Debye
        Dipole field         -0.0023 Ry au, 
 
        Potential amp.        0.2564 Ry
        Total length         55.1515 bohr
 

     total cpu time spent up to now is      139.6 secs

     total energy              =   -7737.42190555 Ry
     estimated scf accuracy    <      11.81379802 Ry

     total magnetization       =    87.18 Bohr mag/cell
     absolute magnetization    =   105.99 Bohr mag/cell

     iteration #  8     ecut=    50.00 Ry     beta= 0.50
     Davidson diagonalization with overlap
     ethr =  1.08E-03,  avg # of iterations =  6.0

     negative rho (up, down):  7.385E-06 5.822E-03
 
     Adding external electric field

     Computed dipole along edir(3) : 
        Dipole               -3.8313 Ry au,         -9.7382 Debye
        Dipole field         -0.0023 Ry au, 
 
        Potential amp.        0.2587 Ry
        Total length         55.1515 bohr
 
 
     Adding external electric field

     Computed dipole along edir(3) : 
        Dipole               -3.8313 Ry au,         -9.7382 Debye
        Dipole field         -0.0023 Ry au, 
 
        Potential amp.        0.2587 Ry
        Total length         55.1515 bohr
 

     total cpu time spent up to now is      159.2 secs

     total energy              =   -7737.91741767 Ry
     estimated scf accuracy    <      11.09933347 Ry

     total magnetization       =    84.69 Bohr mag/cell
     absolute magnetization    =    94.84 Bohr mag/cell

     iteration #  9     ecut=    50.00 Ry     beta= 0.50
     Davidson diagonalization with overlap
     ethr =  1.02E-03,  avg # of iterations =  1.0

     negative rho (up, down):  1.993E-06 1.206E-02
 
     Adding external electric field

     Computed dipole along edir(3) : 
        Dipole               -3.8932 Ry au,         -9.8955 Debye
        Dipole field         -0.0024 Ry au, 
 
        Potential amp.        0.2629 Ry
        Total length         55.1515 bohr
 
 
     Adding external electric field

     Computed dipole along edir(3) : 
        Dipole               -3.8932 Ry au,         -9.8955 Debye
        Dipole field         -0.0024 Ry au, 
 
        Potential amp.        0.2629 Ry
        Total length         55.1515 bohr
 

     total cpu time spent up to now is      171.0 secs

     total energy              =   -7738.28559032 Ry
     estimated scf accuracy    <       6.50613281 Ry

     total magnetization       =    85.15 Bohr mag/cell
     absolute magnetization    =    93.63 Bohr mag/cell

     iteration # 10     ecut=    50.00 Ry     beta= 0.50
     Davidson diagonalization with overlap
     ethr =  5.95E-04,  avg # of iterations =  1.5

     negative rho (up, down):  6.749E-06 2.352E-02
 
     Adding external electric field

     Computed dipole along edir(3) : 
        Dipole               -3.8499 Ry au,         -9.7856 Debye
        Dipole field         -0.0024 Ry au, 
 
        Potential amp.        0.2599 Ry
        Total length         55.1515 bohr
 
 
     Adding external electric field

     Computed dipole along edir(3) : 
        Dipole               -3.8499 Ry au,         -9.7856 Debye
        Dipole field         -0.0024 Ry au, 
 
        Potential amp.        0.2599 Ry
        Total length         55.1515 bohr
 

     total cpu time spent up to now is      183.7 secs

     total energy              =   -7738.37259469 Ry
     estimated scf accuracy    <       7.81659680 Ry

     total magnetization       =    85.48 Bohr mag/cell
     absolute magnetization    =    91.47 Bohr mag/cell

     iteration # 11     ecut=    50.00 Ry     beta= 0.50
     Davidson diagonalization with overlap
     ethr =  5.95E-04,  avg # of iterations =  1.5

     negative rho (up, down):  0.000E+00 4.346E-03
 
     Adding external electric field

     Computed dipole along edir(3) : 
        Dipole               -3.5063 Ry au,         -8.9122 Debye
        Dipole field         -0.0021 Ry au, 
 
        Potential amp.        0.2367 Ry
        Total length         55.1515 bohr
 
 
     Adding external electric field

     Computed dipole along edir(3) : 
        Dipole               -3.5063 Ry au,         -8.9122 Debye
        Dipole field         -0.0021 Ry au, 
 
        Potential amp.        0.2367 Ry
        Total length         55.1515 bohr
 

     total cpu time spent up to now is      195.9 secs

     total energy              =   -7738.39091367 Ry
     estimated scf accuracy    <       8.61455497 Ry

     total magnetization       =    83.31 Bohr mag/cell
     absolute magnetization    =    87.81 Bohr mag/cell

     iteration # 12     ecut=    50.00 Ry     beta= 0.50
     Davidson diagonalization with overlap
     ethr =  5.95E-04,  avg # of iterations =  1.5

     negative rho (up, down):  3.073E-08 1.389E-03
 
     Adding external electric field

     Computed dipole along edir(3) : 
        Dipole               -3.3113 Ry au,         -8.4165 Debye
        Dipole field         -0.0020 Ry au, 
 
        Potential amp.        0.2236 Ry
        Total length         55.1515 bohr
 
 
     Adding external electric field

     Computed dipole along edir(3) : 
        Dipole               -3.3113 Ry au,         -8.4165 Debye
        Dipole field         -0.0020 Ry au, 
 
        Potential amp.        0.2236 Ry
        Total length         55.1515 bohr
 

     total cpu time spent up to now is      207.5 secs

     total energy              =   -7738.28726617 Ry
     estimated scf accuracy    <      10.18166119 Ry

     total magnetization       =    81.31 Bohr mag/cell
     absolute magnetization    =    84.75 Bohr mag/cell

     iteration # 13     ecut=    50.00 Ry     beta= 0.50
     Davidson diagonalization with overlap
     ethr =  5.95E-04,  avg # of iterations =  1.5

     negative rho (up, down):  7.386E-06 1.102E-08
 
     Adding external electric field

     Computed dipole along edir(3) : 
        Dipole               -2.7623 Ry au,         -7.0210 Debye
        Dipole field         -0.0017 Ry au, 
 
        Potential amp.        0.1865 Ry
        Total length         55.1515 bohr
 
 
     Adding external electric field

     Computed dipole along edir(3) : 
        Dipole               -2.7623 Ry au,         -7.0210 Debye
        Dipole field         -0.0017 Ry au, 
 
        Potential amp.        0.1865 Ry
        Total length         55.1515 bohr
 

     total cpu time spent up to now is      219.3 secs

     total energy              =   -7738.20207436 Ry
     estimated scf accuracy    <       3.74351875 Ry

     total magnetization       =    85.07 Bohr mag/cell
     absolute magnetization    =    88.76 Bohr mag/cell

     iteration # 14     ecut=    50.00 Ry     beta= 0.50
     Davidson diagonalization with overlap
     ethr =  3.42E-04,  avg # of iterations =  2.0

     negative rho (up, down):  6.533E-04 1.199E-04
 
     Adding external electric field

     Computed dipole along edir(3) : 
        Dipole               -2.3364 Ry au,         -5.9387 Debye
        Dipole field         -0.0014 Ry au, 
 
        Potential amp.        0.1577 Ry
        Total length         55.1515 bohr
 
 
     Adding external electric field

     Computed dipole along edir(3) : 
        Dipole               -2.3364 Ry au,         -5.9387 Debye
        Dipole field         -0.0014 Ry au, 
 
        Potential amp.        0.1577 Ry
        Total length         55.1515 bohr
 

     total cpu time spent up to now is      231.7 secs

     total energy              =   -7738.29686183 Ry
     estimated scf accuracy    <       5.98067736 Ry

     total magnetization       =    86.11 Bohr mag/cell
     absolute magnetization    =    88.42 Bohr mag/cell

     iteration # 15     ecut=    50.00 Ry     beta= 0.50
     Davidson diagonalization with overlap
     ethr =  3.42E-04,  avg # of iterations =  1.5

     negative rho (up, down):  1.415E-04 0.000E+00
 
     Adding external electric field

     Computed dipole along edir(3) : 
        Dipole               -2.1945 Ry au,         -5.5779 Debye
        Dipole field         -0.0013 Ry au, 
 
        Potential amp.        0.1482 Ry
        Total length         55.1515 bohr
 
 
     Adding external electric field

     Computed dipole along edir(3) : 
        Dipole               -2.1945 Ry au,         -5.5779 Debye
        Dipole field         -0.0013 Ry au, 
 
        Potential amp.        0.1482 Ry
        Total length         55.1515 bohr
 

     total cpu time spent up to now is      243.9 secs

     total energy              =   -7738.34390863 Ry
     estimated scf accuracy    <       0.80729241 Ry

     total magnetization       =    87.08 Bohr mag/cell
     absolute magnetization    =    88.68 Bohr mag/cell

     iteration # 16     ecut=    50.00 Ry     beta= 0.50
     Davidson diagonalization with overlap
     ethr =  7.39E-05,  avg # of iterations =  9.5

     negative rho (up, down):  7.382E-05 1.854E-07
 
     Adding external electric field

     Computed dipole along edir(3) : 
        Dipole               -2.0199 Ry au,         -5.1341 Debye
        Dipole field         -0.0012 Ry au, 
 
        Potential amp.        0.1364 Ry
        Total length         55.1515 bohr
 
 
     Adding external electric field

     Computed dipole along edir(3) : 
        Dipole               -2.0199 Ry au,         -5.1341 Debye
        Dipole field         -0.0012 Ry au, 
 
        Potential amp.        0.1364 Ry
        Total length         55.1515 bohr
 

     total cpu time spent up to now is      266.5 secs

     total energy              =   -7738.36113571 Ry
     estimated scf accuracy    <       0.54610064 Ry

     total magnetization       =    86.82 Bohr mag/cell
     absolute magnetization    =    88.59 Bohr mag/cell

     iteration # 17     ecut=    50.00 Ry     beta= 0.50
     Davidson diagonalization with overlap
     ethr =  5.00E-05,  avg # of iterations =  1.5

     negative rho (up, down):  2.210E-07 0.000E+00
 
     Adding external electric field

     Computed dipole along edir(3) : 
        Dipole               -1.8519 Ry au,         -4.7072 Debye
        Dipole field         -0.0011 Ry au, 
 
        Potential amp.        0.1250 Ry
        Total length         55.1515 bohr
 
 
     Adding external electric field

     Computed dipole along edir(3) : 
        Dipole               -1.8519 Ry au,         -4.7072 Debye
        Dipole field         -0.0011 Ry au, 
 
        Potential amp.        0.1250 Ry
        Total length         55.1515 bohr
 

     total cpu time spent up to now is      278.3 secs

     total energy              =   -7738.37604653 Ry
     estimated scf accuracy    <       0.16559069 Ry

     total magnetization       =    87.19 Bohr mag/cell
     absolute magnetization    =    88.73 Bohr mag/cell

     iteration # 18     ecut=    50.00 Ry     beta= 0.50
     Davidson diagonalization with overlap
     ethr =  1.52E-05,  avg # of iterations = 10.5
 
     Adding external electric field

     Computed dipole along edir(3) : 
        Dipole               -1.6563 Ry au,         -4.2098 Debye
        Dipole field         -0.0010 Ry au, 
 
        Potential amp.        0.1118 Ry
        Total length         55.1515 bohr
 
 
     Adding external electric field

     Computed dipole along edir(3) : 
        Dipole               -1.6563 Ry au,         -4.2098 Debye
        Dipole field         -0.0010 Ry au, 
 
        Potential amp.        0.1118 Ry
        Total length         55.1515 bohr
 

     total cpu time spent up to now is      310.4 secs

     total energy              =   -7738.37579547 Ry
     estimated scf accuracy    <       0.11233492 Ry

     total magnetization       =    87.63 Bohr mag/cell
     absolute magnetization    =    89.17 Bohr mag/cell

     iteration # 19     ecut=    50.00 Ry     beta= 0.50
     Davidson diagonalization with overlap
     ethr =  1.03E-05,  avg # of iterations =  2.0
 
     Adding external electric field

     Computed dipole along edir(3) : 
        Dipole               -1.5564 Ry au,         -3.9560 Debye
        Dipole field         -0.0010 Ry au, 
 
        Potential amp.        0.1051 Ry
        Total length         55.1515 bohr
 
 
     Adding external electric field

     Computed dipole along edir(3) : 
        Dipole               -1.5564 Ry au,         -3.9560 Debye
        Dipole field         -0.0010 Ry au, 
 
        Potential amp.        0.1051 Ry
        Total length         55.1515 bohr
 

     total cpu time spent up to now is      322.8 secs

     total energy              =   -7738.37589721 Ry
     estimated scf accuracy    <       0.18393962 Ry

     total magnetization       =    86.84 Bohr mag/cell
     absolute magnetization    =    88.43 Bohr mag/cell

     iteration # 20     ecut=    50.00 Ry     beta= 0.50
     Davidson diagonalization with overlap
     ethr =  1.03E-05,  avg # of iterations =  1.5
 
     Adding external electric field

     Computed dipole along edir(3) : 
        Dipole               -1.4259 Ry au,         -3.6242 Debye
        Dipole field         -0.0009 Ry au, 
 
        Potential amp.        0.0963 Ry
        Total length         55.1515 bohr
 
 
     Adding external electric field

     Computed dipole along edir(3) : 
        Dipole               -1.4259 Ry au,         -3.6242 Debye
        Dipole field         -0.0009 Ry au, 
 
        Potential amp.        0.0963 Ry
        Total length         55.1515 bohr
 

     total cpu time spent up to now is      336.0 secs

     total energy              =   -7738.37467895 Ry
     estimated scf accuracy    <       0.15298781 Ry

     total magnetization       =    87.23 Bohr mag/cell
     absolute magnetization    =    88.80 Bohr mag/cell

     iteration # 21     ecut=    50.00 Ry     beta= 0.50
     Davidson diagonalization with overlap
     ethr =  1.03E-05,  avg # of iterations =  1.5
 
     Adding external electric field

     Computed dipole along edir(3) : 
        Dipole               -1.2164 Ry au,         -3.0919 Debye
        Dipole field         -0.0007 Ry au, 
 
        Potential amp.        0.0821 Ry
        Total length         55.1515 bohr
 
 
     Adding external electric field

     Computed dipole along edir(3) : 
        Dipole               -1.2164 Ry au,         -3.0919 Debye
        Dipole field         -0.0007 Ry au, 
 
        Potential amp.        0.0821 Ry
        Total length         55.1515 bohr
 

     total cpu time spent up to now is      348.2 secs

     total energy              =   -7738.37121555 Ry
     estimated scf accuracy    <       0.17739061 Ry

     total magnetization       =    87.05 Bohr mag/cell
     absolute magnetization    =    88.64 Bohr mag/cell

     iteration # 22     ecut=    50.00 Ry     beta= 0.50
     Davidson diagonalization with overlap
     ethr =  1.03E-05,  avg # of iterations =  3.0
 
     Adding external electric field

     Computed dipole along edir(3) : 
        Dipole               -0.9582 Ry au,         -2.4354 Debye
        Dipole field         -0.0006 Ry au, 
 
        Potential amp.        0.0647 Ry
        Total length         55.1515 bohr
 
 
     Adding external electric field

     Computed dipole along edir(3) : 
        Dipole               -0.9582 Ry au,         -2.4354 Debye
        Dipole field         -0.0006 Ry au, 
 
        Potential amp.        0.0647 Ry
        Total length         55.1515 bohr
 

     total cpu time spent up to now is      362.2 secs

     total energy              =   -7738.36950523 Ry
     estimated scf accuracy    <       0.16258847 Ry

     total magnetization       =    86.87 Bohr mag/cell
     absolute magnetization    =    88.45 Bohr mag/cell

     iteration # 23     ecut=    50.00 Ry     beta= 0.50
     Davidson diagonalization with overlap
     ethr =  1.03E-05,  avg # of iterations = 12.0
 
     Adding external electric field

     Computed dipole along edir(3) : 
        Dipole               -1.3544 Ry au,         -3.4426 Debye
        Dipole field         -0.0008 Ry au, 
 
        Potential amp.        0.0914 Ry
        Total length         55.1515 bohr
 
 
     Adding external electric field

     Computed dipole along edir(3) : 
        Dipole               -1.3544 Ry au,         -3.4426 Debye
        Dipole field         -0.0008 Ry au, 
 
        Potential amp.        0.0914 Ry
        Total length         55.1515 bohr
 

     total cpu time spent up to now is      385.7 secs

     total energy              =   -7738.37159655 Ry
     estimated scf accuracy    <       0.26445456 Ry

     total magnetization       =    87.08 Bohr mag/cell
     absolute magnetization    =    88.68 Bohr mag/cell

     iteration # 24     ecut=    50.00 Ry     beta= 0.50
     Davidson diagonalization with overlap
     ethr =  1.03E-05,  avg # of iterations =  1.5
 
     Adding external electric field

     Computed dipole along edir(3) : 
        Dipole               -1.3958 Ry au,         -3.5479 Debye
        Dipole field         -0.0009 Ry au, 
 
        Potential amp.        0.0942 Ry
        Total length         55.1515 bohr
 
 
     Adding external electric field

     Computed dipole along edir(3) : 
        Dipole               -1.3958 Ry au,         -3.5479 Debye
        Dipole field         -0.0009 Ry au, 
 
        Potential amp.        0.0942 Ry
        Total length         55.1515 bohr
 

     total cpu time spent up to now is      398.3 secs

     total energy              =   -7738.37422941 Ry
     estimated scf accuracy    <       0.19951899 Ry

     total magnetization       =    87.21 Bohr mag/cell
     absolute magnetization    =    88.78 Bohr mag/cell

     iteration # 25     ecut=    50.00 Ry     beta= 0.50
     Davidson diagonalization with overlap
     ethr =  1.03E-05,  avg # of iterations =  1.5
 
     Adding external electric field

     Computed dipole along edir(3) : 
        Dipole               -1.4791 Ry au,         -3.7595 Debye
        Dipole field         -0.0009 Ry au, 
 
        Potential amp.        0.0999 Ry
        Total length         55.1515 bohr
 
 
     Adding external electric field

     Computed dipole along edir(3) : 
        Dipole               -1.4791 Ry au,         -3.7595 Debye
        Dipole field         -0.0009 Ry au, 
 
        Potential amp.        0.0999 Ry
        Total length         55.1515 bohr
 

     total cpu time spent up to now is      411.5 secs

     total energy              =   -7738.37441557 Ry
     estimated scf accuracy    <       0.16946531 Ry

     total magnetization       =    87.04 Bohr mag/cell
     absolute magnetization    =    88.61 Bohr mag/cell

     iteration # 26     ecut=    50.00 Ry     beta= 0.50
     Davidson diagonalization with overlap
     ethr =  1.03E-05,  avg # of iterations =  2.0
 
     Adding external electric field

     Computed dipole along edir(3) : 
        Dipole               -1.4644 Ry au,         -3.7222 Debye
        Dipole field         -0.0009 Ry au, 
 
        Potential amp.        0.0989 Ry
        Total length         55.1515 bohr
 
 
     Adding external electric field

     Computed dipole along edir(3) : 
        Dipole               -1.4644 Ry au,         -3.7222 Debye
        Dipole field         -0.0009 Ry au, 
 
        Potential amp.        0.0989 Ry
        Total length         55.1515 bohr
 

     total cpu time spent up to now is      424.4 secs

     total energy              =   -7738.37583290 Ry
     estimated scf accuracy    <       0.26374268 Ry

     total magnetization       =    86.54 Bohr mag/cell
     absolute magnetization    =    88.09 Bohr mag/cell

     iteration # 27     ecut=    50.00 Ry     beta= 0.50
     Davidson diagonalization with overlap
     ethr =  1.03E-05,  avg # of iterations =  1.5
 
     Adding external electric field

     Computed dipole along edir(3) : 
        Dipole               -1.3105 Ry au,         -3.3309 Debye
        Dipole field         -0.0008 Ry au, 
 
        Potential amp.        0.0885 Ry
        Total length         55.1515 bohr
 
 
     Adding external electric field

     Computed dipole along edir(3) : 
        Dipole               -1.3105 Ry au,         -3.3309 Debye
        Dipole field         -0.0008 Ry au, 
 
        Potential amp.        0.0885 Ry
        Total length         55.1515 bohr
 

     total cpu time spent up to now is      436.4 secs

     total energy              =   -7738.36971413 Ry
     estimated scf accuracy    <       0.28862897 Ry

     total magnetization       =    86.90 Bohr mag/cell
     absolute magnetization    =    88.43 Bohr mag/cell

     iteration # 28     ecut=    50.00 Ry     beta= 0.50
     Davidson diagonalization with overlap
     ethr =  1.03E-05,  avg # of iterations =  1.0
 
     Adding external electric field

     Computed dipole along edir(3) : 
        Dipole               -1.1690 Ry au,         -2.9714 Debye
        Dipole field         -0.0007 Ry au, 
 
        Potential amp.        0.0789 Ry
        Total length         55.1515 bohr
 
 
     Adding external electric field

     Computed dipole along edir(3) : 
        Dipole               -1.1690 Ry au,         -2.9714 Debye
        Dipole field         -0.0007 Ry au, 
 
        Potential amp.        0.0789 Ry
        Total length         55.1515 bohr
 

     total cpu time spent up to now is      447.8 secs

     total energy              =   -7738.36884451 Ry
     estimated scf accuracy    <       0.10060943 Ry

     total magnetization       =    87.12 Bohr mag/cell
     absolute magnetization    =    88.71 Bohr mag/cell

     iteration # 29     ecut=    50.00 Ry     beta= 0.50
     Davidson diagonalization with overlap
     ethr =  9.20E-06,  avg # of iterations =  1.0
 
     Adding external electric field

     Computed dipole along edir(3) : 
        Dipole               -0.9319 Ry au,         -2.3686 Debye
        Dipole field         -0.0006 Ry au, 
 
        Potential amp.        0.0629 Ry
        Total length         55.1515 bohr
 
 
     Adding external electric field

     Computed dipole along edir(3) : 
        Dipole               -0.9319 Ry au,         -2.3686 Debye
        Dipole field         -0.0006 Ry au, 
 
        Potential amp.        0.0629 Ry
        Total length         55.1515 bohr
 

     total cpu time spent up to now is      459.4 secs

     total energy              =   -7738.36441159 Ry
     estimated scf accuracy    <       0.14197834 Ry

     total magnetization       =    87.01 Bohr mag/cell
     absolute magnetization    =    88.61 Bohr mag/cell

     iteration # 30     ecut=    50.00 Ry     beta= 0.50
     Davidson diagonalization with overlap
     ethr =  9.20E-06,  avg # of iterations =  2.5
 
     Adding external electric field

     Computed dipole along edir(3) : 
        Dipole               -0.8505 Ry au,         -2.1619 Debye
        Dipole field         -0.0005 Ry au, 
 
        Potential amp.        0.0574 Ry
        Total length         55.1515 bohr
 
 
     Adding external electric field

     Computed dipole along edir(3) : 
        Dipole               -0.8505 Ry au,         -2.1619 Debye
        Dipole field         -0.0005 Ry au, 
 
        Potential amp.        0.0574 Ry
        Total length         55.1515 bohr
 

     total cpu time spent up to now is      472.5 secs

     total energy              =   -7738.36348211 Ry
     estimated scf accuracy    <       0.07064013 Ry

     total magnetization       =    87.16 Bohr mag/cell
     absolute magnetization    =    88.77 Bohr mag/cell

     iteration # 31     ecut=    50.00 Ry     beta= 0.50
     Davidson diagonalization with overlap
     ethr =  6.46E-06,  avg # of iterations =  6.5
 
     Adding external electric field

     Computed dipole along edir(3) : 
        Dipole               -0.5864 Ry au,         -1.4906 Debye
        Dipole field         -0.0004 Ry au, 
 
        Potential amp.        0.0396 Ry
        Total length         55.1515 bohr
 
 
     Adding external electric field

     Computed dipole along edir(3) : 
        Dipole               -0.5864 Ry au,         -1.4906 Debye
        Dipole field         -0.0004 Ry au, 
 
        Potential amp.        0.0396 Ry
        Total length         55.1515 bohr
 

     total cpu time spent up to now is      487.0 secs

     total energy              =   -7738.35969366 Ry
     estimated scf accuracy    <       0.07329812 Ry

     total magnetization       =    86.94 Bohr mag/cell
     absolute magnetization    =    88.55 Bohr mag/cell

     iteration # 32     ecut=    50.00 Ry     beta= 0.50
     Davidson diagonalization with overlap
     ethr =  6.46E-06,  avg # of iterations =  2.5
 
     Adding external electric field

     Computed dipole along edir(3) : 
        Dipole               -0.2248 Ry au,         -0.5714 Debye
        Dipole field         -0.0001 Ry au, 
 
        Potential amp.        0.0152 Ry
        Total length         55.1515 bohr
 
 
     Adding external electric field

     Computed dipole along edir(3) : 
        Dipole               -0.2248 Ry au,         -0.5714 Debye
        Dipole field         -0.0001 Ry au, 
 
        Potential amp.        0.0152 Ry
        Total length         55.1515 bohr
 

     total cpu time spent up to now is      500.3 secs

     total energy              =   -7738.35510386 Ry
     estimated scf accuracy    <       0.04983434 Ry

     total magnetization       =    86.86 Bohr mag/cell
     absolute magnetization    =    88.45 Bohr mag/cell

     iteration # 33     ecut=    50.00 Ry     beta= 0.50
     Davidson diagonalization with overlap
     c_bands:  1 eigenvalues not converged
     ethr =  4.56E-06,  avg # of iterations = 18.0

     negative rho (up, down):  2.665E-08 0.000E+00
 
     Adding external electric field

     Computed dipole along edir(3) : 
        Dipole                0.0420 Ry au,          0.1068 Debye
        Dipole field          0.0000 Ry au, 
 
        Potential amp.       -0.0028 Ry
        Total length         55.1515 bohr
 
 
     Adding external electric field

     Computed dipole along edir(3) : 
        Dipole                0.0420 Ry au,          0.1068 Debye
        Dipole field          0.0000 Ry au, 
 
        Potential amp.       -0.0028 Ry
        Total length         55.1515 bohr
 

     total cpu time spent up to now is      524.9 secs

     total energy              =   -7738.35214593 Ry
     estimated scf accuracy    <       0.09220573 Ry

     total magnetization       =    87.12 Bohr mag/cell
     absolute magnetization    =    88.65 Bohr mag/cell

     iteration # 34     ecut=    50.00 Ry     beta= 0.50
     Davidson diagonalization with overlap
     ethr =  4.56E-06,  avg # of iterations =  2.5

     negative rho (up, down):  5.142E-03 4.008E-03
 
     Adding external electric field

     Computed dipole along edir(3) : 
        Dipole                0.4050 Ry au,          1.0294 Debye
        Dipole field          0.0002 Ry au, 
 
        Potential amp.       -0.0273 Ry
        Total length         55.1515 bohr
 
 
     Adding external electric field

     Computed dipole along edir(3) : 
        Dipole                0.4050 Ry au,          1.0294 Debye
        Dipole field          0.0002 Ry au, 
 
        Potential amp.       -0.0273 Ry
        Total length         55.1515 bohr
 

     total cpu time spent up to now is      538.4 secs

     total energy              =   -7738.35039340 Ry
     estimated scf accuracy    <       0.03656877 Ry

     total magnetization       =    87.11 Bohr mag/cell
     absolute magnetization    =    88.63 Bohr mag/cell

     iteration # 35     ecut=    50.00 Ry     beta= 0.50
     Davidson diagonalization with overlap
     ethr =  3.35E-06,  avg # of iterations = 27.5

     negative rho (up, down):  5.833E-03 4.933E-03
 
     Adding external electric field

     Computed dipole along edir(3) : 
        Dipole                0.4798 Ry au,          1.2195 Debye
        Dipole field          0.0003 Ry au, 
 
        Potential amp.       -0.0324 Ry
        Total length         55.1515 bohr
 
 
     Adding external electric field

     Computed dipole along edir(3) : 
        Dipole                0.4798 Ry au,          1.2195 Debye
        Dipole field          0.0003 Ry au, 
 
        Potential amp.       -0.0324 Ry
        Total length         55.1515 bohr
 

     total cpu time spent up to now is      572.6 secs

     total energy              =   -7738.34888838 Ry
     estimated scf accuracy    <       0.12224992 Ry

     total magnetization       =    86.75 Bohr mag/cell
     absolute magnetization    =    88.26 Bohr mag/cell

     iteration # 36     ecut=    50.00 Ry     beta= 0.50
     Davidson diagonalization with overlap
     ethr =  3.35E-06,  avg # of iterations =  2.0

     negative rho (up, down):  4.332E-04 1.235E-04
 
     Adding external electric field

     Computed dipole along edir(3) : 
        Dipole                0.3316 Ry au,          0.8428 Debye
        Dipole field          0.0002 Ry au, 
 
        Potential amp.       -0.0224 Ry
        Total length         55.1515 bohr
 
 
     Adding external electric field

     Computed dipole along edir(3) : 
        Dipole                0.3316 Ry au,          0.8428 Debye
        Dipole field          0.0002 Ry au, 
 
        Potential amp.       -0.0224 Ry
        Total length         55.1515 bohr
 

     total cpu time spent up to now is      586.4 secs

     total energy              =   -7738.34894006 Ry
     estimated scf accuracy    <       0.12069489 Ry

     total magnetization       =    87.00 Bohr mag/cell
     absolute magnetization    =    88.47 Bohr mag/cell

     iteration # 37     ecut=    50.00 Ry     beta= 0.50
     Davidson diagonalization with overlap
     ethr =  3.35E-06,  avg # of iterations =  2.0

     negative rho (up, down):  1.974E-05 9.193E-07
 
     Adding external electric field

     Computed dipole along edir(3) : 
        Dipole                0.2802 Ry au,          0.7121 Debye
        Dipole field          0.0002 Ry au, 
 
        Potential amp.       -0.0189 Ry
        Total length         55.1515 bohr
 
 
     Adding external electric field

     Computed dipole along edir(3) : 
        Dipole                0.2802 Ry au,          0.7121 Debye
        Dipole field          0.0002 Ry au, 
 
        Potential amp.       -0.0189 Ry
        Total length         55.1515 bohr
 

     total cpu time spent up to now is      600.1 secs

     total energy              =   -7738.35046853 Ry
     estimated scf accuracy    <       0.03943398 Ry

     total magnetization       =    87.18 Bohr mag/cell
     absolute magnetization    =    88.65 Bohr mag/cell

     iteration # 38     ecut=    50.00 Ry     beta= 0.50
     Davidson diagonalization with overlap
     ethr =  3.35E-06,  avg # of iterations =  2.0

     negative rho (up, down):  1.049E-05 2.479E-06
 
     Adding external electric field

     Computed dipole along edir(3) : 
        Dipole                0.3046 Ry au,          0.7741 Debye
        Dipole field          0.0002 Ry au, 
 
        Potential amp.       -0.0206 Ry
        Total length         55.1515 bohr
 
 
     Adding external electric field

     Computed dipole along edir(3) : 
        Dipole                0.3046 Ry au,          0.7741 Debye
        Dipole field          0.0002 Ry au, 
 
        Potential amp.       -0.0206 Ry
        Total length         55.1515 bohr
 

     total cpu time spent up to now is      613.9 secs

     total energy              =   -7738.34957329 Ry
     estimated scf accuracy    <       0.02771826 Ry

     total magnetization       =    87.22 Bohr mag/cell
     absolute magnetization    =    88.68 Bohr mag/cell

     iteration # 39     ecut=    50.00 Ry     beta= 0.50
     Davidson diagonalization with overlap
     ethr =  2.54E-06,  avg # of iterations =  3.0

     negative rho (up, down):  7.794E-07 1.657E-07
 
     Adding external electric field

     Computed dipole along edir(3) : 
        Dipole                0.1172 Ry au,          0.2980 Debye
        Dipole field          0.0001 Ry au, 
 
        Potential amp.       -0.0079 Ry
        Total length         55.1515 bohr
 
 
     Adding external electric field

     Computed dipole along edir(3) : 
        Dipole                0.1172 Ry au,          0.2980 Debye
        Dipole field          0.0001 Ry au, 
 
        Potential amp.       -0.0079 Ry
        Total length         55.1515 bohr
 

     total cpu time spent up to now is      628.5 secs

     total energy              =   -7738.34943187 Ry
     estimated scf accuracy    <       0.01935887 Ry

     total magnetization       =    87.19 Bohr mag/cell
     absolute magnetization    =    88.66 Bohr mag/cell

     iteration # 40     ecut=    50.00 Ry     beta= 0.50
     Davidson diagonalization with overlap
     c_bands:  2 eigenvalues not converged
     ethr =  1.77E-06,  avg # of iterations = 18.5

     negative rho (up, down):  1.883E-05 1.104E-05
 
     Adding external electric field

     Computed dipole along edir(3) : 
        Dipole                0.2070 Ry au,          0.5261 Debye
        Dipole field          0.0001 Ry au, 
 
        Potential amp.       -0.0140 Ry
        Total length         55.1515 bohr
 
 
     Adding external electric field

     Computed dipole along edir(3) : 
        Dipole                0.2070 Ry au,          0.5261 Debye
        Dipole field          0.0001 Ry au, 
 
        Potential amp.       -0.0140 Ry
        Total length         55.1515 bohr
 

     total cpu time spent up to now is      655.5 secs

     total energy              =   -7738.34945857 Ry
     estimated scf accuracy    <       0.01397566 Ry

     total magnetization       =    86.91 Bohr mag/cell
     absolute magnetization    =    88.40 Bohr mag/cell

     iteration # 41     ecut=    50.00 Ry     beta= 0.50
     Davidson diagonalization with overlap
     c_bands:  1 eigenvalues not converged
     ethr =  1.28E-06,  avg # of iterations = 11.0

     negative rho (up, down):  1.914E-05 1.817E-05
 
     Adding external electric field

     Computed dipole along edir(3) : 
        Dipole                0.2586 Ry au,          0.6574 Debye
        Dipole field          0.0002 Ry au, 
 
        Potential amp.       -0.0175 Ry
        Total length         55.1515 bohr
 
 
     Adding external electric field

     Computed dipole along edir(3) : 
        Dipole                0.2586 Ry au,          0.6574 Debye
        Dipole field          0.0002 Ry au, 
 
        Potential amp.       -0.0175 Ry
        Total length         55.1515 bohr
 

     total cpu time spent up to now is      674.8 secs

     total energy              =   -7738.34973814 Ry
     estimated scf accuracy    <       0.01007202 Ry

     total magnetization       =    87.16 Bohr mag/cell
     absolute magnetization    =    88.64 Bohr mag/cell

     iteration # 42     ecut=    50.00 Ry     beta= 0.50
     Davidson diagonalization with overlap
     ethr =  9.22E-07,  avg # of iterations =  2.5

     negative rho (up, down):  7.765E-06 5.510E-06
 
     Adding external electric field

     Computed dipole along edir(3) : 
        Dipole                0.3163 Ry au,          0.8039 Debye
        Dipole field          0.0002 Ry au, 
 
        Potential amp.       -0.0214 Ry
        Total length         55.1515 bohr
 
 
     Adding external electric field

     Computed dipole along edir(3) : 
        Dipole                0.3163 Ry au,          0.8039 Debye
        Dipole field          0.0002 Ry au, 
 
        Potential amp.       -0.0214 Ry
        Total length         55.1515 bohr
 

     total cpu time spent up to now is      688.3 secs

     total energy              =   -7738.34976230 Ry
     estimated scf accuracy    <       0.00966088 Ry

     total magnetization       =    87.14 Bohr mag/cell
     absolute magnetization    =    88.63 Bohr mag/cell

     iteration # 43     ecut=    50.00 Ry     beta= 0.50
     Davidson diagonalization with overlap
     ethr =  8.84E-07,  avg # of iterations =  2.0

     negative rho (up, down):  5.030E-05 2.715E-05
 
     Adding external electric field

     Computed dipole along edir(3) : 
        Dipole                0.4009 Ry au,          1.0191 Debye
        Dipole field          0.0002 Ry au, 
 
        Potential amp.       -0.0271 Ry
        Total length         55.1515 bohr
 
 
     Adding external electric field

     Computed dipole along edir(3) : 
        Dipole                0.4009 Ry au,          1.0191 Debye
        Dipole field          0.0002 Ry au, 
 
        Potential amp.       -0.0271 Ry
        Total length         55.1515 bohr
 

     total cpu time spent up to now is      701.8 secs

     total energy              =   -7738.34971950 Ry
     estimated scf accuracy    <       0.01186003 Ry

     total magnetization       =    87.00 Bohr mag/cell
     absolute magnetization    =    88.52 Bohr mag/cell

     iteration # 44     ecut=    50.00 Ry     beta= 0.50
     Davidson diagonalization with overlap
     c_bands:  1 eigenvalues not converged
     ethr =  8.84E-07,  avg # of iterations = 11.0

     negative rho (up, down):  2.759E-03 2.550E-03
 
     Adding external electric field

     Computed dipole along edir(3) : 
        Dipole                0.4811 Ry au,          1.2228 Debye
        Dipole field          0.0003 Ry au, 
 
        Potential amp.       -0.0325 Ry
        Total length         55.1515 bohr
 
 
     Adding external electric field

     Computed dipole along edir(3) : 
        Dipole                0.4811 Ry au,          1.2228 Debye
        Dipole field          0.0003 Ry au, 
 
        Potential amp.       -0.0325 Ry
        Total length         55.1515 bohr
 

     total cpu time spent up to now is      721.3 secs

     total energy              =   -7738.34978495 Ry
     estimated scf accuracy    <       0.00402151 Ry

     total magnetization       =    87.03 Bohr mag/cell
     absolute magnetization    =    88.54 Bohr mag/cell

     iteration # 45     ecut=    50.00 Ry     beta= 0.50
     Davidson diagonalization with overlap
     ethr =  3.68E-07,  avg # of iterations =  2.0

     negative rho (up, down):  7.581E-05 1.582E-05
 
     Adding external electric field

     Computed dipole along edir(3) : 
        Dipole                0.3869 Ry au,          0.9834 Debye
        Dipole field          0.0002 Ry au, 
 
        Potential amp.       -0.0261 Ry
        Total length         55.1515 bohr
 
 
     Adding external electric field

     Computed dipole along edir(3) : 
        Dipole                0.3869 Ry au,          0.9834 Debye
        Dipole field          0.0002 Ry au, 
 
        Potential amp.       -0.0261 Ry
        Total length         55.1515 bohr
 

     total cpu time spent up to now is      735.3 secs

     total energy              =   -7738.34955954 Ry
     estimated scf accuracy    <       0.00564460 Ry

     total magnetization       =    86.93 Bohr mag/cell
     absolute magnetization    =    88.45 Bohr mag/cell

     iteration # 46     ecut=    50.00 Ry     beta= 0.50
     Davidson diagonalization with overlap
     ethr =  3.68E-07,  avg # of iterations =  2.0

     negative rho (up, down):  1.210E-03 1.017E-03
 
     Adding external electric field

     Computed dipole along edir(3) : 
        Dipole                0.4339 Ry au,          1.1028 Debye
        Dipole field          0.0003 Ry au, 
 
        Potential amp.       -0.0293 Ry
        Total length         55.1515 bohr
 
 
     Adding external electric field

     Computed dipole along edir(3) : 
        Dipole                0.4339 Ry au,          1.1028 Debye
        Dipole field          0.0003 Ry au, 
 
        Potential amp.       -0.0293 Ry
        Total length         55.1515 bohr
 

     total cpu time spent up to now is      749.0 secs

     total energy              =   -7738.34975595 Ry
     estimated scf accuracy    <       0.00450438 Ry

     total magnetization       =    87.06 Bohr mag/cell
     absolute magnetization    =    88.57 Bohr mag/cell

     iteration # 47     ecut=    50.00 Ry     beta= 0.50
     Davidson diagonalization with overlap
     ethr =  3.68E-07,  avg # of iterations =  2.0

     negative rho (up, down):  1.022E-03 6.217E-04
 
     Adding external electric field

     Computed dipole along edir(3) : 
        Dipole                0.4266 Ry au,          1.0843 Debye
        Dipole field          0.0003 Ry au, 
 
        Potential amp.       -0.0288 Ry
        Total length         55.1515 bohr
 
 
     Adding external electric field

     Computed dipole along edir(3) : 
        Dipole                0.4266 Ry au,          1.0843 Debye
        Dipole field          0.0003 Ry au, 
 
        Potential amp.       -0.0288 Ry
        Total length         55.1515 bohr
 

     total cpu time spent up to now is      762.0 secs

     total energy              =   -7738.34985566 Ry
     estimated scf accuracy    <       0.00071170 Ry

     total magnetization       =    86.97 Bohr mag/cell
     absolute magnetization    =    88.48 Bohr mag/cell

     iteration # 48     ecut=    50.00 Ry     beta= 0.50
     Davidson diagonalization with overlap
     ethr =  6.51E-08,  avg # of iterations =  1.0

     negative rho (up, down):  9.554E-04 5.428E-04
 
     Adding external electric field

     Computed dipole along edir(3) : 
        Dipole                0.4190 Ry au,          1.0650 Debye
        Dipole field          0.0003 Ry au, 
 
        Potential amp.       -0.0283 Ry
        Total length         55.1515 bohr
 
 
     Adding external electric field

     Computed dipole along edir(3) : 
        Dipole                0.4190 Ry au,          1.0650 Debye
        Dipole field          0.0003 Ry au, 
 
        Potential amp.       -0.0283 Ry
        Total length         55.1515 bohr
 

     total cpu time spent up to now is      774.7 secs

     total energy              =   -7738.34986202 Ry
     estimated scf accuracy    <       0.00071849 Ry

     total magnetization       =    86.99 Bohr mag/cell
     absolute magnetization    =    88.50 Bohr mag/cell

     iteration # 49     ecut=    50.00 Ry     beta= 0.50
     Davidson diagonalization with overlap
     ethr =  6.51E-08,  avg # of iterations =  2.0

     negative rho (up, down):  1.346E-03 9.634E-04
 
     Adding external electric field

     Computed dipole along edir(3) : 
        Dipole                0.4226 Ry au,          1.0741 Debye
        Dipole field          0.0003 Ry au, 
 
        Potential amp.       -0.0285 Ry
        Total length         55.1515 bohr
 
 
     Adding external electric field

     Computed dipole along edir(3) : 
        Dipole                0.4226 Ry au,          1.0741 Debye
        Dipole field          0.0003 Ry au, 
 
        Potential amp.       -0.0285 Ry
        Total length         55.1515 bohr
 

     total cpu time spent up to now is      789.1 secs

     total energy              =   -7738.34986906 Ry
     estimated scf accuracy    <       0.00042593 Ry

     total magnetization       =    86.99 Bohr mag/cell
     absolute magnetization    =    88.50 Bohr mag/cell

     iteration # 50     ecut=    50.00 Ry     beta= 0.50
     Davidson diagonalization with overlap
     ethr =  3.90E-08,  avg # of iterations =  1.0

     negative rho (up, down):  1.430E-03 1.059E-03
 
     Adding external electric field

     Computed dipole along edir(3) : 
        Dipole                0.4216 Ry au,          1.0716 Debye
        Dipole field          0.0003 Ry au, 
 
        Potential amp.       -0.0285 Ry
        Total length         55.1515 bohr
 
 
     Adding external electric field

     Computed dipole along edir(3) : 
        Dipole                0.4216 Ry au,          1.0716 Debye
        Dipole field          0.0003 Ry au, 
 
        Potential amp.       -0.0285 Ry
        Total length         55.1515 bohr
 

     total cpu time spent up to now is      801.7 secs

     total energy              =   -7738.34987429 Ry
     estimated scf accuracy    <       0.00010275 Ry

     total magnetization       =    86.98 Bohr mag/cell
     absolute magnetization    =    88.49 Bohr mag/cell

     iteration # 51     ecut=    50.00 Ry     beta= 0.50
     Davidson diagonalization with overlap
     ethr =  9.40E-09,  avg # of iterations =  2.0

     negative rho (up, down):  1.456E-03 1.070E-03
 
     Adding external electric field

     Computed dipole along edir(3) : 
        Dipole                0.4223 Ry au,          1.0735 Debye
        Dipole field          0.0003 Ry au, 
 
        Potential amp.       -0.0285 Ry
        Total length         55.1515 bohr
 
 
     Adding external electric field

     Computed dipole along edir(3) : 
        Dipole                0.4223 Ry au,          1.0735 Debye
        Dipole field          0.0003 Ry au, 
 
        Potential amp.       -0.0285 Ry
        Total length         55.1515 bohr
 

     total cpu time spent up to now is      815.0 secs

     total energy              =   -7738.34987500 Ry
     estimated scf accuracy    <       0.00004807 Ry

     total magnetization       =    86.98 Bohr mag/cell
     absolute magnetization    =    88.49 Bohr mag/cell

     iteration # 52     ecut=    50.00 Ry     beta= 0.50
     Davidson diagonalization with overlap
     ethr =  4.40E-09,  avg # of iterations =  1.0

     negative rho (up, down):  1.281E-03 8.612E-04
 
     Adding external electric field

     Computed dipole along edir(3) : 
        Dipole                0.4219 Ry au,          1.0723 Debye
        Dipole field          0.0003 Ry au, 
 
        Potential amp.       -0.0285 Ry
        Total length         55.1515 bohr
 
 
     Adding external electric field

     Computed dipole along edir(3) : 
        Dipole                0.4219 Ry au,          1.0723 Debye
        Dipole field          0.0003 Ry au, 
 
        Potential amp.       -0.0285 Ry
        Total length         55.1515 bohr
 

     total cpu time spent up to now is      826.7 secs

     total energy              =   -7738.34987335 Ry
     estimated scf accuracy    <       0.00003554 Ry

     total magnetization       =    86.98 Bohr mag/cell
     absolute magnetization    =    88.49 Bohr mag/cell

     iteration # 53     ecut=    50.00 Ry     beta= 0.50
     Davidson diagonalization with overlap
     ethr =  3.25E-09,  avg # of iterations =  1.0

     negative rho (up, down):  1.207E-03 7.617E-04
 
     Adding external electric field

     Computed dipole along edir(3) : 
        Dipole                0.4227 Ry au,          1.0743 Debye
        Dipole field          0.0003 Ry au, 
 
        Potential amp.       -0.0285 Ry
        Total length         55.1515 bohr
 
 
     Adding external electric field

     Computed dipole along edir(3) : 
        Dipole                0.4227 Ry au,          1.0743 Debye
        Dipole field          0.0003 Ry au, 
 
        Potential amp.       -0.0285 Ry
        Total length         55.1515 bohr
 

     total cpu time spent up to now is      838.5 secs

     total energy              =   -7738.34987227 Ry
     estimated scf accuracy    <       0.00002423 Ry

     total magnetization       =    86.97 Bohr mag/cell
     absolute magnetization    =    88.48 Bohr mag/cell

     iteration # 54     ecut=    50.00 Ry     beta= 0.50
     Davidson diagonalization with overlap
     ethr =  2.22E-09,  avg # of iterations =  1.5

     negative rho (up, down):  1.255E-03 8.054E-04
 
     Adding external electric field

     Computed dipole along edir(3) : 
        Dipole                0.4213 Ry au,          1.0708 Debye
        Dipole field          0.0003 Ry au, 
 
        Potential amp.       -0.0284 Ry
        Total length         55.1515 bohr
 
 
     Adding external electric field

     Computed dipole along edir(3) : 
        Dipole                0.4213 Ry au,          1.0708 Debye
        Dipole field          0.0003 Ry au, 
 
        Potential amp.       -0.0284 Ry
        Total length         55.1515 bohr
 

     total cpu time spent up to now is      851.0 secs

     total energy              =   -7738.34987275 Ry
     estimated scf accuracy    <       0.00001479 Ry

     total magnetization       =    86.98 Bohr mag/cell
     absolute magnetization    =    88.49 Bohr mag/cell

     iteration # 55     ecut=    50.00 Ry     beta= 0.50
     Davidson diagonalization with overlap
     ethr =  1.35E-09,  avg # of iterations =  1.5

     negative rho (up, down):  1.118E-03 6.608E-04
 
     Adding external electric field

     Computed dipole along edir(3) : 
        Dipole                0.4196 Ry au,          1.0666 Debye
        Dipole field          0.0003 Ry au, 
 
        Potential amp.       -0.0283 Ry
        Total length         55.1515 bohr
 
 
     Adding external electric field

     Computed dipole along edir(3) : 
        Dipole                0.4196 Ry au,          1.0666 Debye
        Dipole field          0.0003 Ry au, 
 
        Potential amp.       -0.0283 Ry
        Total length         55.1515 bohr
 

     total cpu time spent up to now is      863.3 secs

     total energy              =   -7738.34987174 Ry
     estimated scf accuracy    <       0.00002558 Ry

     total magnetization       =    86.97 Bohr mag/cell
     absolute magnetization    =    88.48 Bohr mag/cell

     iteration # 56     ecut=    50.00 Ry     beta= 0.50
     Davidson diagonalization with overlap
     ethr =  1.35E-09,  avg # of iterations =  1.5

     negative rho (up, down):  1.071E-03 6.158E-04
 
     Adding external electric field

     Computed dipole along edir(3) : 
        Dipole                0.4184 Ry au,          1.0633 Debye
        Dipole field          0.0003 Ry au, 
 
        Potential amp.       -0.0282 Ry
        Total length         55.1515 bohr
 
 
     Adding external electric field

     Computed dipole along edir(3) : 
        Dipole                0.4184 Ry au,          1.0633 Debye
        Dipole field          0.0003 Ry au, 
 
        Potential amp.       -0.0282 Ry
        Total length         55.1515 bohr
 

     total cpu time spent up to now is      875.9 secs

     total energy              =   -7738.34987220 Ry
     estimated scf accuracy    <       0.00004281 Ry

     total magnetization       =    86.97 Bohr mag/cell
     absolute magnetization    =    88.48 Bohr mag/cell

     iteration # 57     ecut=    50.00 Ry     beta= 0.50
     Davidson diagonalization with overlap
     ethr =  1.35E-09,  avg # of iterations =  1.0

     negative rho (up, down):  1.115E-03 6.599E-04
 
     Adding external electric field

     Computed dipole along edir(3) : 
        Dipole                0.4193 Ry au,          1.0658 Debye
        Dipole field          0.0003 Ry au, 
 
        Potential amp.       -0.0283 Ry
        Total length         55.1515 bohr
 
 
     Adding external electric field

     Computed dipole along edir(3) : 
        Dipole                0.4193 Ry au,          1.0658 Debye
        Dipole field          0.0003 Ry au, 
 
        Potential amp.       -0.0283 Ry
        Total length         55.1515 bohr
 

     total cpu time spent up to now is      887.8 secs

     total energy              =   -7738.34987249 Ry
     estimated scf accuracy    <       0.00004899 Ry

     total magnetization       =    86.97 Bohr mag/cell
     absolute magnetization    =    88.48 Bohr mag/cell

     iteration # 58     ecut=    50.00 Ry     beta= 0.50
     Davidson diagonalization with overlap
     ethr =  1.35E-09,  avg # of iterations =  1.0

     negative rho (up, down):  1.122E-03 6.669E-04
 
     Adding external electric field

     Computed dipole along edir(3) : 
        Dipole                0.4191 Ry au,          1.0652 Debye
        Dipole field          0.0003 Ry au, 
 
        Potential amp.       -0.0283 Ry
        Total length         55.1515 bohr
 
 
     Adding external electric field

     Computed dipole along edir(3) : 
        Dipole                0.4191 Ry au,          1.0652 Debye
        Dipole field          0.0003 Ry au, 
 
        Potential amp.       -0.0283 Ry
        Total length         55.1515 bohr
 

     total cpu time spent up to now is      899.9 secs

     total energy              =   -7738.34987249 Ry
     estimated scf accuracy    <       0.00002361 Ry

     total magnetization       =    86.97 Bohr mag/cell
     absolute magnetization    =    88.48 Bohr mag/cell

     iteration # 59     ecut=    50.00 Ry     beta= 0.50
     Davidson diagonalization with overlap
[...]
    -5.9676  -5.9444  -5.9220  -5.9174  -5.9021  -5.8785  -5.8748  -5.8439
    -5.8156  -5.8124  -5.7954  -5.7700  -5.7458  -5.7387  -5.7005  -5.6949
    -5.6871  -5.6538  -5.6119  -5.5886  -5.5792  -5.5444  -5.5272  -5.5071
    -5.4982  -5.4899  -5.4704  -5.4607  -5.4232  -5.4143  -5.3922  -5.3684
    -5.3007  -5.2386  -5.2299  -5.2060  -5.1945  -5.1822  -5.1530  -5.1049
    -5.0406  -5.0301  -5.0049  -4.9649  -4.9564  -4.9386  -4.9202  -4.8662
    -4.8222  -4.7714  -4.7653  -4.7550  -4.7480  -4.7042  -4.6726  -4.6633
    -4.5778  -4.5418  -4.4982  -4.4888  -4.4315  -4.4237  -4.3969  -4.3758
    -4.3665  -4.3396  -4.2235  -4.2140  -4.1876  -4.1641  -4.1364  -4.1085
    -4.0970  -4.0897  -4.0697  -3.9975  -3.9724  -3.9501  -3.9298  -3.9150
    -3.8668  -3.8302  -3.8242  -3.8002  -3.7941  -3.7662  -3.7346  -3.6968
    -3.6754  -3.6426  -3.6212  -3.6136  -3.6104  -3.5886  -3.5883  -3.5695
    -3.5380  -3.5191  -3.5083  -3.4862  -3.4819  -3.4640  -3.4525  -3.4219
    -3.4030  -3.3946  -3.3797  -3.3633  -3.3387  -3.3042  -3.2876  -3.2629
    -3.2365  -3.2353  -3.2160  -3.2056  -3.1934  -3.1464  -3.1259  -3.0998
    -3.0521  -3.0481  -3.0400  -3.0312  -3.0298  -3.0228  -3.0149  -2.9734
    -2.9436  -2.9372  -2.9291  -2.8791  -2.8686  -2.8647  -2.8105  -2.7940
    -2.7689  -2.7673  -2.7575  -2.7546  -2.7339  -2.7293  -2.7089  -2.7029
    -2.6876  -2.6648  -2.6571  -2.6281  -2.6241  -2.6102  -2.6041  -2.5958
    -2.5926  -2.5740  -2.5573  -2.5391  -2.5246  -2.5193  -2.4784  -2.4716
    -2.4502  -2.4406  -2.4195  -2.3923  -2.3586  -2.3521  -2.3317  -2.2989
    -2.2784  -2.2684  -2.2483  -2.2189  -2.2022  -2.1795  -2.1630  -2.1344
    -2.1261  -2.1187  -2.1109  -2.1017  -2.0747  -2.0634  -2.0220  -1.9935
    -1.9756  -1.9612  -1.9485  -1.9305  -1.9149  -1.9084  -1.8911  -1.8620
    -1.8523  -1.8358  -1.8156  -1.8076  -1.8014  -1.7844  -1.7708  -1.7638
    -1.7453  -1.7178  -1.7004  -1.6403  -1.6368  -1.6286  -1.5786  -1.5662
    -1.5609  -1.5316  -1.5093  -1.4991  -1.4891  -1.4803  -1.4479  -1.4321
    -1.4186  -1.4072  -1.3966  -1.3791  -1.3528  -1.3345  -1.3229  -1.3137
    -1.2712  -1.2600  -1.2409  -1.2085  -1.1871  -1.1451  -1.1185  -1.0768
    -1.0101  -0.9056  -0.8846  -0.8694  -0.8481  -0.7226  -0.7145  -0.5362
    -0.4796  -0.3156  -0.2691  -0.1371   0.1825   0.2134   0.2307   0.2472
     0.2531   0.2691   0.2958   0.3082   0.3302   0.3330   0.3531   0.3645
     0.3703   0.3761   0.3926   0.4064   0.4156   0.4170   0.4196   0.4254
     0.4297   0.4335   0.4493   0.4565   0.4590   0.4646   0.4774   0.4922
     0.4953   0.5033   0.5076   0.5155   0.5243   0.5351   0.5354   0.5425
     0.5628   0.5688   0.5775   0.5782   0.5850   0.5977   0.6005   0.6146
     0.6244   0.6261   0.6428   0.6450   0.6490   0.6528   0.6764   0.6803
     0.6840   0.6922   0.6979   0.7076   0.7136   0.7339   0.7383   0.7505
     0.7585   0.7618   0.7638   0.7745   0.7955   0.7982   0.8064   0.8118
     0.8206   0.8225   0.8308   0.8412   0.8529   0.8607   0.8709   0.8711
     0.8811   0.8930   0.9281   0.9388   0.9536   0.9558   0.9595   0.9853
     1.0007   1.0141   1.0991   1.1014   1.2000   1.2222   1.7488   1.7538
     1.7607   1.7738   1.7804   1.7888   1.8069   1.8215   1.8272   1.9060
     1.9217   1.9374   1.9672   1.9846   2.0252   2.0324   2.0471   2.1034
     2.1229   2.1358   2.1480   2.1498   2.1904   2.1959   2.2208   2.2320
     2.2463   2.2589   2.2865   2.2940   2.3047   2.3426   2.3567   2.3634
     2.3757   2.3904   2.3984   2.4171   2.4330   2.4495   2.4576   2.4778
     2.4880   2.5077   2.5101   2.5286   2.5374   2.5576   2.5885   2.6128
     2.6231   2.6368   2.6399   2.6968   2.7774   2.7954   2.8433   2.8630
     2.8915   2.9102   3.3045   3.5083   3.6358   3.6974   3.7637   3.8603
     3.9059   3.9288   3.9315   3.9575   4.0007   4.0697   4.0778   4.0900
     4.1125   4.1433   4.1515   4.1687   4.1854   4.4063   4.4882   4.6398
     4.8333   4.8814   4.9139   4.9376   4.9692   5.0327   5.0493   5.1061
     5.1275   5.1661   5.3952   6.2689   6.3606   6.4974   6.6026   6.6845
     6.7535   6.8339   6.8576   6.9084   6.9625   7.0465   7.0912   7.1832
     7.2454   7.3248   7.3544   7.3998   7.4722   7.5192   7.6175   7.6646
     7.6946   7.7038   7.7438   7.7773   7.8531   7.8628   7.9000   7.9489
     7.9858   8.0094   8.0582   8.0807   8.1177   8.1748   8.2053   8.2207
     8.2231   8.2768   8.3148   8.3352   8.3893   8.4130   8.4243   8.4410
     8.4535   8.4766   8.5083   8.5198   8.5450   8.5672   8.6084   8.6302
     8.6593   8.6923   8.6985   8.7294   8.7471   8.7850   8.8259   8.8626

     the Fermi energy is     1.6627 ev

!    total energy              =   -7738.34987107 Ry
     estimated scf accuracy    <       0.00000096 Ry
     smearing contrib. (-TS)   =      -0.02173006 Ry
     internal energy E=F+TS    =   -7738.32814101 Ry

     The total energy is F=E-TS. E is the sum of the following terms:
     one-electron contribution =  -95224.92269315 Ry
     hartree contribution      =   48228.48810085 Ry
     xc contribution           =   -2218.73589352 Ry
     ewald contribution        =   41478.65212645 Ry
     Dispersion Correction     =      -1.80989939 Ry
     electric field correction =       0.00011775 Ry

     total magnetization       =    86.97 Bohr mag/cell
     absolute magnetization    =    88.48 Bohr mag/cell

     convergence has been achieved in  70 iterations

     negative rho (up, down):  1.049E-03 5.970E-04

     Forces acting on atoms (cartesian axes, Ry/au):

     atom    1 type  1   force =     0.02523838   -0.03094027    0.01859250
     atom    2 type  2   force =    -0.01380823   -0.00153014   -0.00919978
     atom    3 type  1   force =    -0.02326600   -0.01856924    0.01999574
     atom    4 type  1   force =     0.00571841    0.00409152   -0.00582865
     atom    5 type  1   force =    -0.00192876    0.00120424   -0.00483907
     atom    6 type  1   force =     0.00207152    0.00768051   -0.00862710
     atom    7 type  3   force =    -0.00769219    0.00119604   -0.01053972
     atom    8 type  3   force =    -0.03501739    0.05415991   -0.08336906
     atom    9 type  3   force =     0.03414621    0.03817679   -0.06438739
     atom   10 type  3   force =    -0.00303958   -0.00245643   -0.01174915
     atom   11 type  4   force =     0.00659033    0.00542936    0.01376095
     atom   12 type  4   force =    -0.00036931   -0.00281618    0.01500794
     atom   13 type  4   force =     0.00202672    0.00182852    0.01759399
     atom   14 type  4   force =    -0.00041738   -0.00142095    0.01255884
     atom   15 type  4   force =    -0.00070386    0.00453080   -0.00186224
     atom   16 type  4   force =    -0.00053181    0.00283689    0.03977212
     atom   17 type  4   force =     0.00180836    0.00829060    0.03727177
     atom   18 type  4   force =     0.00800690   -0.00452590   -0.00036082
     atom   19 type  4   force =     0.00053001    0.01202074    0.00433981
     atom   20 type  4   force =    -0.00948390   -0.02706971   -0.00375598
     atom   21 type  4   force =    -0.01131544   -0.00042997    0.00071347
     atom   22 type  4   force =    -0.03242689    0.00308503    0.00779977
     atom   23 type  4   force =     0.03242641    0.00056042    0.01402530
     atom   24 type  4   force =     0.00685048   -0.03727903    0.00368907
     atom   25 type  4   force =    -0.00322459    0.00186848    0.00401275
     atom   26 type  4   force =     0.01799918   -0.00683476    0.00084523
     atom   27 type  1   force =    -0.00527816   -0.00869285    0.00323867
     atom   28 type  2   force =    -0.01349478    0.00026478    0.00464749
     atom   29 type  1   force =     0.00299086   -0.00517702   -0.00095316
     atom   30 type  1   force =     0.00257403    0.00375389   -0.00135190
     atom   31 type  1   force =     0.00140015   -0.00474926    0.00043480
     atom   32 type  1   force =    -0.00097600    0.00135798   -0.00136199
     atom   33 type  3   force =    -0.00689630   -0.00333644   -0.00092326
     atom   34 type  3   force =    -0.00810101    0.00270024   -0.00031379
     atom   35 type  3   force =     0.00441841   -0.00069794    0.00257826
     atom   36 type  3   force =     0.00061396    0.00039223   -0.00513667
     atom   37 type  4   force =     0.00884215    0.00558692    0.00735002
     atom   38 type  4   force =     0.00386942   -0.00095999   -0.01947608
     atom   39 type  4   force =    -0.00153670    0.00360199   -0.00984337
     atom   40 type  4   force =    -0.00136694   -0.00261727    0.00962846
     atom   41 type  4   force =    -0.00292066    0.00422962   -0.00736374
     atom   42 type  4   force =    -0.00426150   -0.00452041    0.01789679
     atom   43 type  4   force =     0.00770427    0.00338452    0.00778912
     atom   44 type  4   force =     0.01024963   -0.00549632   -0.00614042
     atom   45 type  4   force =     0.00302594    0.00350958   -0.00022747
     atom   46 type  4   force =     0.00237495    0.00000727   -0.00553205
     atom   47 type  4   force =    -0.01258624   -0.00078572   -0.00338026
     atom   48 type  4   force =    -0.01458901    0.00127144    0.00343678
     atom   49 type  4   force =     0.01344738    0.00251817    0.00436836
     atom   50 type  4   force =    -0.00268326   -0.00495772   -0.00042510
     atom   51 type  4   force =    -0.00550980    0.00189363   -0.00004409
     atom   52 type  4   force =     0.01548033   -0.00359859   -0.00457776
     atom   53 type  1   force =     0.00028105   -0.00002652    0.00018098
     atom   54 type  2   force =    -0.00055109   -0.00006663    0.00030567
     atom   55 type  1   force =    -0.00023529   -0.00003653   -0.00002899
     atom   56 type  1   force =    -0.00013585    0.00012963   -0.00047774
     atom   57 type  1   force =     0.00024470   -0.00046698    0.00056457
     atom   58 type  1   force =    -0.00005384    0.00019261    0.00047081
     atom   59 type  3   force =     0.00008886   -0.00004501    0.00005307
     atom   60 type  3   force =     0.00024466   -0.00020909    0.00007324
     atom   61 type  3   force =     0.00002029    0.00012320    0.00003746
     atom   62 type  3   force =     0.00017903   -0.00030744    0.00005917
     atom   63 type  4   force =     0.00001764    0.00024684    0.00004973
     atom   64 type  4   force =     0.00016689   -0.00000619   -0.00022752
     atom   65 type  4   force =    -0.00003049   -0.00020489    0.00018062
     atom   66 type  4   force =     0.00006645    0.00000212   -0.00001946
     atom   67 type  4   force =     0.00049116    0.00027458   -0.00020016
     atom   68 type  4   force =     0.00005165    0.00010490    0.00056088
     atom   69 type  4   force =    -0.00012963   -0.00060160    0.00013126
     atom   70 type  4   force =     0.00005287    0.00003146   -0.00010344
     atom   71 type  4   force =     0.00019744   -0.00053720   -0.00015573
     atom   72 type  4   force =     0.00026005   -0.00012247    0.00009147
     atom   73 type  4   force =     0.00043100   -0.00066251   -0.00021008
     atom   74 type  4   force =     0.00043285   -0.00018090   -0.00011136
     atom   75 type  4   force =    -0.00012805   -0.00014396   -0.00035744
     atom   76 type  4   force =     0.00053371   -0.00002211   -0.00027209
     atom   77 type  4   force =    -0.00032780   -0.00037617    0.00012303
     atom   78 type  4   force =    -0.00025669   -0.00001330   -0.00020928
     atom   79 type  1   force =     0.02525271   -0.03094246    0.01859654
     atom   80 type  2   force =    -0.01366687   -0.00147915   -0.00924381
     atom   81 type  1   force =    -0.02327108   -0.01857459    0.02000112
     atom   82 type  1   force =     0.00573239    0.00409022   -0.00584191
     atom   83 type  1   force =    -0.00190945    0.00122288   -0.00485264
     atom   84 type  1   force =     0.00210209    0.00765913   -0.00861720
     atom   85 type  3   force =    -0.00768042    0.00122806   -0.01059791
     atom   86 type  3   force =    -0.03502054    0.05416209   -0.08337772
     atom   87 type  3   force =     0.03414751    0.03817392   -0.06439137
     atom   88 type  3   force =    -0.00305402   -0.00245485   -0.01175762
     atom   89 type  4   force =     0.00672260    0.00544559    0.01376905
     atom   90 type  4   force =    -0.00026395   -0.00273389    0.01502086
     atom   91 type  4   force =     0.00212609    0.00182420    0.01755407
     atom   92 type  4   force =    -0.00024121   -0.00141622    0.01256497
     atom   93 type  4   force =    -0.00069092    0.00473569   -0.00171010
     atom   94 type  4   force =    -0.00058053    0.00278705    0.03956262
     atom   95 type  4   force =     0.00194820    0.00829314    0.03728807
     atom   96 type  4   force =     0.00781114   -0.00454384   -0.00036572
     atom   97 type  4   force =     0.00064381    0.01210422    0.00423250
     atom   98 type  4   force =    -0.00936606   -0.02689396   -0.00372191
     atom   99 type  4   force =    -0.01132878   -0.00039453    0.00090887
     atom  100 type  4   force =    -0.03246287    0.00297266    0.00767479
     atom  101 type  4   force =     0.03246094    0.00055780    0.01402952
     atom  102 type  4   force =     0.00668622   -0.03728441    0.00369680
     atom  103 type  4   force =    -0.00312851    0.00180803    0.00399783
     atom  104 type  4   force =     0.01809287   -0.00683854    0.00085743
     atom  105 type  1   force =    -0.00512157   -0.00879510    0.00327547
     atom  106 type  2   force =    -0.01321853   -0.00017542    0.00460295
     atom  107 type  1   force =     0.00295620   -0.00516689   -0.00097877
     atom  108 type  1   force =     0.00254639    0.00452503   -0.00194720
     atom  109 type  1   force =     0.00153721   -0.00480616    0.00053626
     atom  110 type  1   force =    -0.00069408    0.00135571   -0.00140691
     atom  111 type  3   force =    -0.00664852   -0.00308270   -0.00171447
     atom  112 type  3   force =    -0.00785249    0.00255889   -0.00013464
     atom  113 type  3   force =     0.00442901   -0.00061029    0.00257403
     atom  114 type  3   force =     0.00060650   -0.00038691   -0.00563583
     atom  115 type  4   force =     0.00858159    0.00524364    0.00725562
     atom  116 type  4   force =     0.00384059   -0.00093438   -0.01947706
     atom  117 type  4   force =    -0.00143485    0.00360344   -0.00988330
     atom  118 type  4   force =    -0.00151176   -0.00265762    0.00975113
     atom  119 type  4   force =    -0.00205178    0.00524680   -0.00775357
     atom  120 type  4   force =    -0.00438290   -0.00444788    0.01796456
     atom  121 type  4   force =     0.00772393    0.00335123    0.00783466
     atom  122 type  4   force =     0.01012327   -0.00558820   -0.00679683
     atom  123 type  4   force =     0.00251611    0.00379984    0.00060210
     atom  124 type  4   force =     0.00219911   -0.00009004   -0.00556403
     atom  125 type  4   force =    -0.01249618   -0.00073451   -0.00344968
     atom  126 type  4   force =    -0.01464581    0.00125327    0.00346083
     atom  127 type  4   force =     0.01358944    0.00246438    0.00457335
     atom  128 type  4   force =    -0.00285770   -0.00494163   -0.00046053
     atom  129 type  4   force =    -0.00525191    0.00179122    0.00021642
     atom  130 type  4   force =     0.01534477   -0.00353301   -0.00467593
     atom  131 type  1   force =     0.00027141    0.00051444    0.00065020
     atom  132 type  2   force =    -0.00047538    0.00025401    0.00012426
     atom  133 type  1   force =    -0.00008861    0.00027713    0.00000421
     atom  134 type  1   force =    -0.00015731    0.00014126    0.00034409
     atom  135 type  1   force =     0.00019010   -0.00023208    0.00043912
     atom  136 type  1   force =    -0.00051128    0.00002428    0.00030551
     atom  137 type  3   force =    -0.00027052   -0.00047036    0.00004736
     atom  138 type  3   force =     0.00003317   -0.00010819   -0.00020242
     atom  139 type  3   force =     0.00020834   -0.00015899    0.00007484
     atom  140 type  3   force =     0.00022848   -0.00015072    0.00002709
     atom  141 type  4   force =    -0.00020693   -0.00007430   -0.00004305
     atom  142 type  4   force =     0.00005216   -0.00032440   -0.00036433
     atom  143 type  4   force =     0.00043887   -0.00020368   -0.00016364
     atom  144 type  4   force =    -0.00022594    0.00029447   -0.00006179
     atom  145 type  4   force =     0.00056308    0.00041816   -0.00001465
     atom  146 type  4   force =     0.00018710    0.00014632    0.00039989
     atom  147 type  4   force =     0.00030328   -0.00017720   -0.00050674
     atom  148 type  4   force =     0.00024292    0.00053468    0.00014502
     atom  149 type  4   force =    -0.00005806   -0.00052179    0.00028533
     atom  150 type  4   force =    -0.00013396    0.00044914    0.00004327
     atom  151 type  4   force =     0.00045352   -0.00041186   -0.00012868
     atom  152 type  4   force =     0.00040858   -0.00041720   -0.00022408
     atom  153 type  4   force =    -0.00000807    0.00028403    0.00034314
     atom  154 type  4   force =     0.00006694   -0.00023615    0.00022491
     atom  155 type  4   force =     0.00002294   -0.00060251    0.00036414
     atom  156 type  4   force =    -0.00000490   -0.00073886   -0.00064071
     atom  157 type  4   force =    -0.00312224    0.00065663    0.00120343
     atom  158 type  5   force =     0.00381466   -0.00096298   -0.00100807

     Total force =     0.262934     Total SCF correction =     0.005408
 
     init_run     :      7.79s CPU      8.42s WALL (       1 calls)
     electrons    :    982.87s CPU   1030.35s WALL (       1 calls)
     forces       :      3.59s CPU      3.99s WALL (       1 calls)
     force_london :      0.08s CPU      0.08s WALL (       1 calls)

     Called by init_run:
     wfcinit      :      4.90s CPU      5.09s WALL (       1 calls)
     potinit      :      0.50s CPU      0.70s WALL (       1 calls)
     hinit0       :      1.21s CPU      1.29s WALL (       1 calls)

     Called by electrons:
     c_bands      :    789.70s CPU    816.71s WALL (      70 calls)
     sum_band     :    121.66s CPU    132.71s WALL (      70 calls)
     v_of_rho     :     15.63s CPU     16.82s WALL (      71 calls)
     newd         :     36.74s CPU     44.97s WALL (      71 calls)
     mix_rho      :     18.33s CPU     18.48s WALL (      70 calls)
     energy_londo :      0.08s CPU      0.08s WALL (       1 calls)

     Called by c_bands:
     init_us_2    :      2.26s CPU      2.33s WALL (     284 calls)
     init_us_2:cp :      2.26s CPU      2.33s WALL (     284 calls)
     regterg      :    775.30s CPU    802.06s WALL (     142 calls)

     Called by *egterg:
     rdiaghg      :    263.71s CPU    277.77s WALL (     627 calls)
     h_psi        :    279.16s CPU    284.72s WALL (     629 calls)
     s_psi        :     51.80s CPU     51.86s WALL (     629 calls)
     g_psi        :      0.37s CPU      0.37s WALL (     485 calls)

     Called by h_psi:
     h_psi:calbec :     70.99s CPU     75.72s WALL (     629 calls)
     vloc_psi     :    154.09s CPU    154.83s WALL (     629 calls)
     add_vuspsi   :     53.31s CPU     53.39s WALL (     629 calls)

     General routines
     calbec       :    104.04s CPU    111.13s WALL (     777 calls)
     fft          :     16.70s CPU     18.45s WALL (    1291 calls)
     ffts         :     10.74s CPU     10.78s WALL (    8115 calls)
     fftw         :    171.81s CPU    172.57s WALL (  241814 calls)
     interpolate  :      1.31s CPU      1.43s WALL (     142 calls)
 
     Parallel routines
 
     PWSCF        :  16m36.35s CPU  17m25.14s WALL

 
   This run was terminated on:  23:49: 7  19Nov2025            

=------------------------------------------------------------------------------=
   JOB DONE.
=------------------------------------------------------------------------------=
