
     Program PWSCF v.7.2 starts on 18Nov2025 at  0:25:37 

     This program is part of the open-source Quantum ESPRESSO suite
     for quantum simulation of materials; please cite
         "P. Giannozzi et al., J. Phys.:Condens. Matter 21 395502 (2009);
         "P. Giannozzi et al., J. Phys.:Condens. Matter 29 465901 (2017);
         "P. Giannozzi et al., J. Chem. Phys. 152 154105 (2020);
          URL http://www.quantum-espresso.org", 
     in publications or presentations arising from this work. More details at
     http://www.quantum-espresso.org/quote

     Parallel version (MPI), running on    64 processors

     MPI processes distributed on     4 nodes
     370127 MiB available memory on the printing compute node when the environment starts
 
     Reading input from PWINPUT_atm158_xm

     Current dimensions of program PWSCF are:
     Max number of different atomic species (ntypx) = 10
     Max number of k-points (npk) =  40000
     Max angular momentum in pseudopotentials (lmaxx) =  4
     Presently no symmetry can be used with electric field

     file Ni.pbe-n-rrkjus_psl.1.0.0.UPF: wavefunction(s)  3D renormalized
     file Mn.pbe-spn-rrkjus_psl.0.3.1.UPF: wavefunction(s)  3D renormalized
     file O.pbe-rrkjus.UPF: wavefunction(s)  2S renormalized
     file H.pbe-rrkjus.UPF: wavefunction(s)  1S renormalized

     gamma-point specific algorithms are used
 
     R & G space division:  proc/nbgrp/npool/nimage =      64
     Subspace diagonalization in iterative solution of the eigenvalue problem:
     one sub-group per band group will be used
     custom distributed-memory algorithm (size of sub-group:  7*  7 procs)

 
     Parallelization info
     --------------------
     sticks:   dense  smooth     PW     G-vecs:    dense   smooth      PW
     Min         207      82     20                60552    15302    1896
     Max         210      84     22                60574    15336    1950
     Sum       13325    5345   1333              3876045   980655  122653
 
     Using Slab Decomposition
 


     bravais-lattice index     =            0
     lattice parameter (alat)  =      17.4067  a.u.
     unit-cell volume          =   20529.8182 (a.u.)^3
     number of atoms/cell      =          158
     number of atomic types    =            5
     number of electrons       =      1093.00
     number of Kohn-Sham states=          656
     kinetic-energy cutoff     =      50.0000  Ry
     charge density cutoff     =     500.0000  Ry
     scf convergence threshold =      1.0E-06
     mixing beta               =       0.1000
     number of iterations used =            8  local-TF  mixing
     Exchange-correlation=  SLA  PW   PBE  PBE
                           (   1   4   3   4   0   0   0)

     celldm(1)=  17.406729  celldm(2)=   0.000000  celldm(3)=   0.000000
     celldm(4)=   0.000000  celldm(5)=   0.000000  celldm(6)=   0.000000

     crystal axes: (cart. coord. in units of alat)
               a(1) = (   1.000000   0.000000   0.000000 )  
               a(2) = (  -0.001404   1.105696   0.000000 )  
               a(3) = (   0.000000   0.000000   3.520448 )  

     reciprocal axes: (cart. coord. in units 2 pi/alat)
               b(1) = (  1.000000  0.001270  0.000000 )  
               b(2) = (  0.000000  0.904408  0.000000 )  
               b(3) = (  0.000000  0.000000  0.284055 )  


     PseudoPot. # 1 for Ni read from file:
     ~/PSEUDO/Ni.pbe-n-rrkjus_psl.1.0.0.UPF
     MD5 check sum: Not computed, couldn't open file
     Pseudo is Ultrasoft + core correction, Zval = 10.0
     Generated using "atomic" code by A. Dal Corso  v.5.1.2
     Using radial grid of 1195 points,  6 beta functions with: 
                l(1) =   0
                l(2) =   0
                l(3) =   1
                l(4) =   1
                l(5) =   2
                l(6) =   2
     Q(r) pseudized with 0 coefficients 


     PseudoPot. # 2 for Mn read from file:
     ~/PSEUDO/Mn.pbe-spn-rrkjus_psl.0.3.1.UPF
     MD5 check sum: Not computed, couldn't open file
     Pseudo is Ultrasoft + core correction, Zval = 15.0
     Generated using &quot;atomic&quot; code by A. Dal Corso  v.6.2.2
     Using radial grid of 1187 points,  6 beta functions with: 
                l(1) =   0
                l(2) =   0
                l(3) =   1
                l(4) =   1
                l(5) =   2
                l(6) =   2
     Q(r) pseudized with 0 coefficients 


     PseudoPot. # 3 for P  read from file:
     ~/PSEUDO/P.pbe-n-rrkjus_psl.1.0.0.UPF
     MD5 check sum: Not computed, couldn't open file
     Pseudo is Ultrasoft + core correction, Zval =  5.0
     Generated using "atomic" code by A. Dal Corso  v.5.1
     Using radial grid of 1147 points,  6 beta functions with: 
                l(1) =   0
                l(2) =   0
                l(3) =   1
                l(4) =   1
                l(5) =   2
                l(6) =   2
     Q(r) pseudized with 0 coefficients 


     PseudoPot. # 4 for O  read from file:
     ~/PSEUDO/O.pbe-rrkjus.UPF
     MD5 check sum: Not computed, couldn't open file
     Pseudo is Ultrasoft, Zval =  6.0
     Generated by new atomic code, or converted to UPF format
     Using radial grid of 1269 points,  4 beta functions with: 
                l(1) =   0
                l(2) =   0
                l(3) =   1
                l(4) =   1
     Q(r) pseudized with 0 coefficients 


     PseudoPot. # 5 for H  read from file:
     ~/PSEUDO/H.pbe-rrkjus.UPF
     MD5 check sum: Not computed, couldn't open file
     Pseudo is Ultrasoft, Zval =  1.0
     Generated by new atomic code, or converted to UPF format
     Using radial grid of 1061 points,  2 beta functions with: 
                l(1) =   0
                l(2) =   0
     Q(r) pseudized with 0 coefficients 


     atomic species   valence    mass     pseudopotential
     Ni               10.00    58.69300     Ni( 1.00)
     Mn               15.00    54.93800     Mn( 1.00)
     P                 5.00    30.97300     P ( 1.00)
     O                 6.00    15.99900     O ( 1.00)
     H                 1.00     1.00790     H ( 1.00)

     Starting magnetic structure 
     atomic species   magnetization
     Ni              1.000
     Mn              1.000
     P               1.000
     O               1.000
     H               0.000

     No symmetry found



   Cartesian axes

     site n.     atom                  positions (alat units)
         1        Ni     tau(   1) = (   0.2421002   0.8609138   0.1302181  )
         2        Mn     tau(   2) = (   0.4924481   0.7886602   0.4655392  )
         3        Ni     tau(   3) = (   0.0052341   0.3031820   0.1284544  )
         4        Ni     tau(   4) = (   0.2570603   0.2374878   0.4617901  )
         5        Ni     tau(   5) = (   0.4976584   1.1048203   0.2964410  )
         6        Ni     tau(   6) = (   0.2495781   0.5440308   0.2953805  )
         7        P      tau(   7) = (   0.2083492   0.9982113   0.4588145  )
         8        P      tau(   8) = (   0.4584476   0.6559264   0.1347090  )
         9        P      tau(   9) = (   0.2889394   0.1031966   0.1319347  )
        10        P      tau(  10) = (   0.0400379   0.4338094   0.4586283  )
        11        O      tau(  11) = (   0.1314218   0.9248062   0.3189972  )
        12        O      tau(  12) = (   0.3797244   0.7272031   0.2742874  )
        13        O      tau(  13) = (   0.3662315   0.1762062   0.2720888  )
        14        O      tau(  14) = (   0.1171240   0.3646150   0.3169340  )
        15        O      tau(  15) = (   0.1510364   0.9068326   0.5881934  )
        16        O      tau(  16) = (   0.3981989   0.7453439   0.0053495  )
        17        O      tau(  17) = (   0.3490561   0.1888693   0.0010856  )
        18        O      tau(  18) = (   0.0982395   0.3475583   0.5894443  )
        19        O      tau(  19) = (   0.0992163   0.5918099   0.4542505  )
        20        O      tau(  20) = (   0.3467441   1.0504690   0.1405000  )
        21        O      tau(  21) = (   0.3739183   0.4303319   0.4477971  )
        22        O      tau(  22) = (   0.1230967   0.1088895   0.1422960  )
        23        O      tau(  23) = (   0.1242901   0.6635968   0.1442928  )
        24        O      tau(  24) = (   0.4011802   0.4971632   0.1376281  )
        25        O      tau(  25) = (   0.1484006   0.0497464   0.4550965  )
        26        O      tau(  26) = (   0.3736100   0.9942556   0.4492158  )
        27        Ni     tau(  27) = (   0.2413539   0.8509941   0.7820408  )
        28        Mn     tau(  28) = (   0.4917018   0.7787406   1.1173619  )
        29        Ni     tau(  29) = (   0.0044877   0.2932623   0.7802771  )
        30        Ni     tau(  30) = (   0.2563139   0.2275682   1.1136128  )
        31        Ni     tau(  31) = (   0.4969120   1.0949007   0.9482637  )
        32        Ni     tau(  32) = (   0.2488318   0.5341111   0.9472032  )
        33        P      tau(  33) = (   0.2076029   0.9882917   1.1106372  )
        34        P      tau(  34) = (   0.4577012   0.6460068   0.7865316  )
        35        P      tau(  35) = (   0.2881931   0.0932770   0.7837574  )
        36        P      tau(  36) = (   0.0392916   0.4238898   1.1104509  )
        37        O      tau(  37) = (   0.1306755   0.9148866   0.9708199  )
        38        O      tau(  38) = (   0.3789780   0.7172835   0.9261101  )
        39        O      tau(  39) = (   0.3654852   0.1662865   0.9239115  )
        40        O      tau(  40) = (   0.1163776   0.3546954   0.9687567  )
        41        O      tau(  41) = (   0.1502901   0.8969129   1.2400160  )
        42        O      tau(  42) = (   0.3974525   0.7354243   0.6571722  )
        43        O      tau(  43) = (   0.3483097   0.1789497   0.6529083  )
        44        O      tau(  44) = (   0.0974932   0.3376387   1.2412670  )
        45        O      tau(  45) = (   0.0984699   0.5818903   1.1060732  )
        46        O      tau(  46) = (   0.3459978   1.0405493   0.7923226  )
        47        O      tau(  47) = (   0.3731719   0.4204123   1.0996198  )
        48        O      tau(  48) = (   0.1223503   0.0989699   0.7941187  )
        49        O      tau(  49) = (   0.1235438   0.6536772   0.7961155  )
        50        O      tau(  50) = (   0.4004339   0.4872435   0.7894508  )
        51        O      tau(  51) = (   0.1476543   0.0398268   1.1069192  )
        52        O      tau(  52) = (   0.3728637   0.9843360   1.1010385  )
        53        Ni     tau(  53) = (   0.2370412   0.8309538   1.4331176  )
        54        Mn     tau(  54) = (   0.4926631   0.7628968   1.7632485  )
        55        Ni     tau(  55) = (   0.0034911   0.2761505   1.4288190  )
        56        Ni     tau(  56) = (   0.2447240   0.2143424   1.7402852  )
        57        Ni     tau(  57) = (   0.4995763   1.0749455   1.5940578  )
        58        Ni     tau(  58) = (   0.2416135   0.5184975   1.5926664  )
        59        P      tau(  59) = (   0.2112504   0.9662532   1.7634059  )
        60        P      tau(  60) = (   0.4542182   0.6277361   1.4346135  )
        61        P      tau(  61) = (   0.2883980   0.0741680   1.4295170  )
        62        P      tau(  62) = (   0.0313409   0.4059310   1.7580048  )
        63        O      tau(  63) = (   0.1301929   0.8896257   1.6241257  )
        64        O      tau(  64) = (   0.3764588   0.7005702   1.5725819  )
        65        O      tau(  65) = (   0.3665257   0.1482364   1.5677237  )
        66        O      tau(  66) = (   0.1091997   0.3432023   1.6091719  )
        67        O      tau(  67) = (   0.1578284   0.8739230   1.8896615  )
        68        O      tau(  68) = (   0.3933424   0.7186889   1.3072492  )
        69        O      tau(  69) = (   0.3501246   0.1627399   1.3008447  )
        70        O      tau(  70) = (   0.0912886   0.3068810   1.8752755  )
        71        O      tau(  71) = (   0.0914117   0.5660224   1.7516325  )
        72        O      tau(  72) = (   0.3458000   1.0214174   1.4372269  )
        73        O      tau(  73) = (   0.3623972   0.4009134   1.7433105  )
        74        O      tau(  74) = (   0.1220058   0.0808885   1.4419267  )
        75        O      tau(  75) = (   0.1203913   0.6366918   1.4432295  )
        76        O      tau(  76) = (   0.3954417   0.4696211   1.4353043  )
        77        O      tau(  77) = (   0.1540582   0.0191928   1.7538461  )
        78        O      tau(  78) = (   0.3779668   0.9615796   1.7458500  )
        79        Ni     tau(  79) = (   0.7421002   0.8609138   0.1302181  )
        80        Mn     tau(  80) = (   0.9924481   0.7886602   0.4655392  )
        81        Ni     tau(  81) = (   0.5052341   0.3031820   0.1284544  )
        82        Ni     tau(  82) = (   0.7570603   0.2374878   0.4617901  )
        83        Ni     tau(  83) = (   0.9976584   1.1048203   0.2964410  )
        84        Ni     tau(  84) = (   0.7495781   0.5440308   0.2953805  )
        85        P      tau(  85) = (   0.7083492   0.9982113   0.4588145  )
        86        P      tau(  86) = (   0.9584476   0.6559264   0.1347090  )
        87        P      tau(  87) = (   0.7889394   0.1031966   0.1319347  )
        88        P      tau(  88) = (   0.5400379   0.4338094   0.4586283  )
        89        O      tau(  89) = (   0.6314218   0.9248062   0.3189972  )
        90        O      tau(  90) = (   0.8797244   0.7272031   0.2742874  )
        91        O      tau(  91) = (   0.8662315   0.1762062   0.2720888  )
        92        O      tau(  92) = (   0.6171240   0.3646150   0.3169340  )
        93        O      tau(  93) = (   0.6510364   0.9068326   0.5881934  )
        94        O      tau(  94) = (   0.8981989   0.7453439   0.0053495  )
        95        O      tau(  95) = (   0.8490561   0.1888693   0.0010856  )
        96        O      tau(  96) = (   0.5982395   0.3475583   0.5894443  )
        97        O      tau(  97) = (   0.5992163   0.5918099   0.4542505  )
        98        O      tau(  98) = (   0.8467441   1.0504690   0.1405000  )
        99        O      tau(  99) = (   0.8739183   0.4303319   0.4477971  )
       100        O      tau( 100) = (   0.6230967   0.1088895   0.1422960  )
       101        O      tau( 101) = (   0.6242901   0.6635968   0.1442928  )
       102        O      tau( 102) = (   0.9011802   0.4971632   0.1376281  )
       103        O      tau( 103) = (   0.6484006   0.0497464   0.4550965  )
       104        O      tau( 104) = (   0.8736100   0.9942556   0.4492158  )
       105        Ni     tau( 105) = (   0.7413539   0.8509941   0.7820408  )
       106        Mn     tau( 106) = (   0.9917018   0.7787406   1.1173619  )
       107        Ni     tau( 107) = (   0.5044877   0.2932623   0.7802771  )
       108        Ni     tau( 108) = (   0.7563139   0.2275682   1.1136128  )
       109        Ni     tau( 109) = (   0.9969120   1.0949007   0.9482637  )
       110        Ni     tau( 110) = (   0.7488318   0.5341111   0.9472032  )
       111        P      tau( 111) = (   0.7076029   0.9882917   1.1106372  )
       112        P      tau( 112) = (   0.9577012   0.6460068   0.7865316  )
       113        P      tau( 113) = (   0.7881931   0.0932770   0.7837574  )
       114        P      tau( 114) = (   0.5392916   0.4238898   1.1104509  )
       115        O      tau( 115) = (   0.6306755   0.9148866   0.9708199  )
       116        O      tau( 116) = (   0.8789780   0.7172835   0.9261101  )
       117        O      tau( 117) = (   0.8654852   0.1662865   0.9239115  )
       118        O      tau( 118) = (   0.6163776   0.3546954   0.9687567  )
       119        O      tau( 119) = (   0.6502901   0.8969129   1.2400160  )
       120        O      tau( 120) = (   0.8974525   0.7354243   0.6571722  )
       121        O      tau( 121) = (   0.8483097   0.1789497   0.6529083  )
       122        O      tau( 122) = (   0.5974932   0.3376387   1.2412670  )
       123        O      tau( 123) = (   0.5984699   0.5818903   1.1060732  )
       124        O      tau( 124) = (   0.8459978   1.0405493   0.7923226  )
       125        O      tau( 125) = (   0.8731719   0.4204123   1.0996198  )
       126        O      tau( 126) = (   0.6223503   0.0989699   0.7941187  )
       127        O      tau( 127) = (   0.6235438   0.6536772   0.7961155  )
       128        O      tau( 128) = (   0.9004339   0.4872435   0.7894508  )
       129        O      tau( 129) = (   0.6476543   0.0398268   1.1069192  )
       130        O      tau( 130) = (   0.8728637   0.9843360   1.1010385  )
       131        Ni     tau( 131) = (   0.7405475   0.8318259   1.4311132  )
       132        Mn     tau( 132) = (   0.9956110   0.7649913   1.7729082  )
       133        Ni     tau( 133) = (   0.5039471   0.2761330   1.4286777  )
       134        Ni     tau( 134) = (   0.7471906   0.2159197   1.7400299  )
       135        Ni     tau( 135) = (   0.9997237   1.0727158   1.5948335  )
       136        Ni     tau( 136) = (   0.7423591   0.5225842   1.5983173  )
       137        P      tau( 137) = (   0.7106654   0.9687571   1.7578636  )
       138        P      tau( 138) = (   0.9535148   0.6281623   1.4350960  )
       139        P      tau( 139) = (   0.7895630   0.0747538   1.4291325  )
       140        P      tau( 140) = (   0.5297546   0.4018931   1.7598490  )
       141        O      tau( 141) = (   0.6360973   0.9008987   1.6134331  )
       142        O      tau( 142) = (   0.8772031   0.7029798   1.5721256  )
       143        O      tau( 143) = (   0.8675063   0.1478470   1.5680249  )
       144        O      tau( 144) = (   0.6092829   0.3462856   1.6101587  )
       145        O      tau( 145) = (   0.6496647   0.8750286   1.8813068  )
       146        O      tau( 146) = (   0.8923560   0.7173781   1.3061853  )
       147        O      tau( 147) = (   0.8502327   0.1643644   1.3007850  )
       148        O      tau( 148) = (   0.5890056   0.3002177   1.8750650  )
       149        O      tau( 149) = (   0.5837121   0.5633300   1.7648578  )
       150        O      tau( 150) = (   0.8492978   1.0227497   1.4347303  )
       151        O      tau( 151) = (   0.8642300   0.4033737   1.7425194  )
       152        O      tau( 152) = (   0.6231466   0.0817702   1.4418230  )
       153        O      tau( 153) = (   0.6205382   0.6372338   1.4467102  )
       154        O      tau( 154) = (   0.8948089   0.4700688   1.4374848  )
       155        O      tau( 155) = (   0.6554469   0.0221206   1.7549295  )
       156        O      tau( 156) = (   0.8783489   0.9609671   1.7489419  )
       157        O      tau( 157) = (   0.8834747   0.6919478   1.9099437  )
       158        H      tau( 158) = (   0.7931829   0.7497743   1.9280084  )

     -------------------------------------------------
     Parameters for Dispersion (Grimme-D2) Correction:
     -------------------------------------------------
       atom      VdW radius       C_6     

        Ni         2.952        374.666
        Mn         2.952        374.666
        P          3.222        271.980
        O          2.536         24.284
        H          1.892          4.857

     number of k points=     1  Gaussian smearing, width (Ry)=  0.0100
                       cart. coord. in units 2pi/alat
        k(    1) = (   0.0000000   0.0000000   0.0000000), wk =   1.0000000

     Dense  grid:  1938023 G-vectors     FFT dimensions: ( 125, 144, 450)

     Smooth grid:   490328 G-vectors     FFT dimensions: (  80,  90, 288)

     Estimated max dynamical RAM per process >     326.29 MB

     Estimated total dynamical RAM >      20.39 GB

     Check: negative core charge=   -0.000001
     Generating pointlists ...
     new r_m :   0.0887 (alat units)  1.5433 (a.u.) for type    1
     new r_m :   0.0790 (alat units)  1.3753 (a.u.) for type    2
     new r_m :   0.0679 (alat units)  1.1825 (a.u.) for type    3
     new r_m :   0.0449 (alat units)  0.7807 (a.u.) for type    4
     new r_m :   0.0449 (alat units)  0.7807 (a.u.) for type    5

     Initial potential from superposition of free atoms

     starting charge    1092.8893, renormalised to    1093.0000

     negative rho (up, down):  1.403E-03 4.532E-04
 
     Adding external electric field

     Computed dipole along edir(3) : 
        Dipole                1.6282 Ry au,          4.1384 Debye
        Dipole field          0.0010 Ry au, 
 
        Potential amp.       -0.1099 Ry
        Total length         55.1515 bohr
 
 
     Adding external electric field

     Computed dipole along edir(3) : 
        Dipole                1.6282 Ry au,          4.1384 Debye
        Dipole field          0.0010 Ry au, 
 
        Potential amp.       -0.1099 Ry
        Total length         55.1515 bohr
 
     Starting wfcs are  815 randomized atomic wfcs

     total cpu time spent up to now is       11.9 secs

     Self-consistent Calculation

     iteration #  1     ecut=    50.00 Ry     beta= 0.10
     Davidson diagonalization with overlap
     ethr =  1.00E-02,  avg # of iterations =  6.0

     negative rho (up, down):  3.765E-01 4.219E-07
 
     Adding external electric field

     Computed dipole along edir(3) : 
        Dipole               -3.5628 Ry au,         -9.0557 Debye
        Dipole field         -0.0022 Ry au, 
 
        Potential amp.        0.2405 Ry
        Total length         55.1515 bohr
 
 
     Adding external electric field

     Computed dipole along edir(3) : 
        Dipole               -3.5628 Ry au,         -9.0557 Debye
        Dipole field         -0.0022 Ry au, 
 
        Potential amp.        0.2405 Ry
        Total length         55.1515 bohr
 

     total cpu time spent up to now is       45.4 secs

     total energy              =   -7517.48196362 Ry
     estimated scf accuracy    <     737.44490211 Ry

     total magnetization       =   219.00 Bohr mag/cell
     absolute magnetization    =   307.59 Bohr mag/cell

     iteration #  2     ecut=    50.00 Ry     beta= 0.10
     Davidson diagonalization with overlap
     ethr =  1.00E-02,  avg # of iterations =  2.0

     negative rho (up, down):  3.567E-01 1.952E-07
 
     Adding external electric field

     Computed dipole along edir(3) : 
        Dipole               -2.3764 Ry au,         -6.0402 Debye
        Dipole field         -0.0015 Ry au, 
 
        Potential amp.        0.1604 Ry
        Total length         55.1515 bohr
 
 
     Adding external electric field

     Computed dipole along edir(3) : 
        Dipole               -2.3764 Ry au,         -6.0402 Debye
        Dipole field         -0.0015 Ry au, 
 
        Potential amp.        0.1604 Ry
        Total length         55.1515 bohr
 

     total cpu time spent up to now is       65.7 secs

     total energy              =   -7600.70079197 Ry
     estimated scf accuracy    <     207.74889920 Ry

     total magnetization       =   158.25 Bohr mag/cell
     absolute magnetization    =   206.62 Bohr mag/cell

     iteration #  3     ecut=    50.00 Ry     beta= 0.10
     Davidson diagonalization with overlap
     ethr =  1.00E-02,  avg # of iterations =  1.5

     negative rho (up, down):  3.162E-01 1.743E-07
 
     Adding external electric field

     Computed dipole along edir(3) : 
        Dipole               -2.0438 Ry au,         -5.1949 Debye
        Dipole field         -0.0013 Ry au, 
 
        Potential amp.        0.1380 Ry
        Total length         55.1515 bohr
 
 
     Adding external electric field

     Computed dipole along edir(3) : 
        Dipole               -2.0438 Ry au,         -5.1949 Debye
        Dipole field         -0.0013 Ry au, 
 
        Potential amp.        0.1380 Ry
        Total length         55.1515 bohr
 

     total cpu time spent up to now is       81.1 secs

     total energy              =   -7631.19049548 Ry
     estimated scf accuracy    <     100.82508248 Ry

     total magnetization       =   134.96 Bohr mag/cell
     absolute magnetization    =   185.83 Bohr mag/cell

     iteration #  4     ecut=    50.00 Ry     beta= 0.10
     Davidson diagonalization with overlap
     ethr =  9.22E-03,  avg # of iterations =  1.0

     negative rho (up, down):  2.431E-01 6.443E-08
 
     Adding external electric field

     Computed dipole along edir(3) : 
        Dipole               -1.9688 Ry au,         -5.0042 Debye
        Dipole field         -0.0012 Ry au, 
 
        Potential amp.        0.1329 Ry
        Total length         55.1515 bohr
 
 
     Adding external electric field

     Computed dipole along edir(3) : 
        Dipole               -1.9688 Ry au,         -5.0042 Debye
        Dipole field         -0.0012 Ry au, 
 
        Potential amp.        0.1329 Ry
        Total length         55.1515 bohr
 

     total cpu time spent up to now is       95.3 secs

     total energy              =   -7664.67426320 Ry
     estimated scf accuracy    <      81.87432115 Ry

     total magnetization       =   119.16 Bohr mag/cell
     absolute magnetization    =   171.54 Bohr mag/cell

     iteration #  5     ecut=    50.00 Ry     beta= 0.10
     Davidson diagonalization with overlap
     ethr =  7.49E-03,  avg # of iterations =  1.0

     negative rho (up, down):  2.050E-02 3.253E-07
 
     Adding external electric field

     Computed dipole along edir(3) : 
        Dipole               -1.5730 Ry au,         -3.9981 Debye
        Dipole field         -0.0010 Ry au, 
 
        Potential amp.        0.1062 Ry
        Total length         55.1515 bohr
 
 
     Adding external electric field

     Computed dipole along edir(3) : 
        Dipole               -1.5730 Ry au,         -3.9981 Debye
        Dipole field         -0.0010 Ry au, 
 
        Potential amp.        0.1062 Ry
        Total length         55.1515 bohr
 

     total cpu time spent up to now is      109.2 secs

     total energy              =   -7724.91554272 Ry
     estimated scf accuracy    <      64.76743090 Ry

     total magnetization       =    97.10 Bohr mag/cell
     absolute magnetization    =   152.68 Bohr mag/cell

     iteration #  6     ecut=    50.00 Ry     beta= 0.10
     Davidson diagonalization with overlap
     ethr =  5.93E-03,  avg # of iterations =  1.0

     negative rho (up, down):  5.935E-04 1.131E-03
 
     Adding external electric field

     Computed dipole along edir(3) : 
        Dipole               -1.2659 Ry au,         -3.2176 Debye
        Dipole field         -0.0008 Ry au, 
 
        Potential amp.        0.0855 Ry
        Total length         55.1515 bohr
 
 
     Adding external electric field

     Computed dipole along edir(3) : 
        Dipole               -1.2659 Ry au,         -3.2176 Debye
        Dipole field         -0.0008 Ry au, 
 
        Potential amp.        0.0855 Ry
        Total length         55.1515 bohr
 

     total cpu time spent up to now is      123.7 secs

     total energy              =   -7735.79730088 Ry
     estimated scf accuracy    <      12.26258997 Ry

     total magnetization       =    90.98 Bohr mag/cell
     absolute magnetization    =   123.78 Bohr mag/cell

     iteration #  7     ecut=    50.00 Ry     beta= 0.10
     Davidson diagonalization with overlap
     ethr =  1.12E-03,  avg # of iterations =  8.5

     negative rho (up, down):  5.620E-04 1.038E-03
 
     Adding external electric field

     Computed dipole along edir(3) : 
        Dipole               -1.2384 Ry au,         -3.1476 Debye
        Dipole field         -0.0008 Ry au, 
 
        Potential amp.        0.0836 Ry
        Total length         55.1515 bohr
 
 
     Adding external electric field

     Computed dipole along edir(3) : 
        Dipole               -1.2384 Ry au,         -3.1476 Debye
        Dipole field         -0.0008 Ry au, 
 
        Potential amp.        0.0836 Ry
        Total length         55.1515 bohr
 

     total cpu time spent up to now is      154.3 secs

     total energy              =   -7738.49386210 Ry
     estimated scf accuracy    <      37.96317029 Ry

     total magnetization       =    65.41 Bohr mag/cell
     absolute magnetization    =    83.08 Bohr mag/cell

     iteration #  8     ecut=    50.00 Ry     beta= 0.10
     Davidson diagonalization with overlap
     ethr =  1.12E-03,  avg # of iterations =  1.0

     negative rho (up, down):  4.597E-04 7.624E-04
 
     Adding external electric field

     Computed dipole along edir(3) : 
        Dipole               -1.1585 Ry au,         -2.9446 Debye
        Dipole field         -0.0007 Ry au, 
 
        Potential amp.        0.0782 Ry
        Total length         55.1515 bohr
 
 
     Adding external electric field

     Computed dipole along edir(3) : 
        Dipole               -1.1585 Ry au,         -2.9446 Debye
        Dipole field         -0.0007 Ry au, 
 
        Potential amp.        0.0782 Ry
        Total length         55.1515 bohr
 

     total cpu time spent up to now is      168.3 secs

     total energy              =   -7738.34507288 Ry
     estimated scf accuracy    <      34.38485052 Ry

     total magnetization       =    66.41 Bohr mag/cell
     absolute magnetization    =    83.65 Bohr mag/cell

     iteration #  9     ecut=    50.00 Ry     beta= 0.10
     Davidson diagonalization with overlap
     ethr =  1.12E-03,  avg # of iterations =  1.0

     negative rho (up, down):  4.316E-04 7.284E-04
 
     Adding external electric field

     Computed dipole along edir(3) : 
        Dipole               -1.1331 Ry au,         -2.8800 Debye
        Dipole field         -0.0007 Ry au, 
 
        Potential amp.        0.0765 Ry
        Total length         55.1515 bohr
 
 
     Adding external electric field

     Computed dipole along edir(3) : 
        Dipole               -1.1331 Ry au,         -2.8800 Debye
        Dipole field         -0.0007 Ry au, 
 
        Potential amp.        0.0765 Ry
        Total length         55.1515 bohr
 

     total cpu time spent up to now is      183.3 secs

     total energy              =   -7738.34330283 Ry
     estimated scf accuracy    <      25.27340047 Ry

     total magnetization       =    68.51 Bohr mag/cell
     absolute magnetization    =    84.78 Bohr mag/cell

     iteration # 10     ecut=    50.00 Ry     beta= 0.10
     Davidson diagonalization with overlap
     ethr =  1.12E-03,  avg # of iterations =  1.0

     negative rho (up, down):  4.603E-04 1.243E-03
 
     Adding external electric field

     Computed dipole along edir(3) : 
        Dipole               -0.9814 Ry au,         -2.4945 Debye
        Dipole field         -0.0006 Ry au, 
 
        Potential amp.        0.0663 Ry
        Total length         55.1515 bohr
 
 
     Adding external electric field

     Computed dipole along edir(3) : 
        Dipole               -0.9814 Ry au,         -2.4945 Debye
        Dipole field         -0.0006 Ry au, 
 
        Potential amp.        0.0663 Ry
        Total length         55.1515 bohr
 

     total cpu time spent up to now is      197.0 secs

     total energy              =   -7738.16455407 Ry
     estimated scf accuracy    <      23.98395561 Ry

     total magnetization       =    68.73 Bohr mag/cell
     absolute magnetization    =    84.62 Bohr mag/cell

     iteration # 11     ecut=    50.00 Ry     beta= 0.10
     Davidson diagonalization with overlap
     ethr =  1.12E-03,  avg # of iterations =  1.0

     negative rho (up, down):  3.780E-04 1.238E-03
 
     Adding external electric field

     Computed dipole along edir(3) : 
        Dipole               -0.9602 Ry au,         -2.4406 Debye
        Dipole field         -0.0006 Ry au, 
 
        Potential amp.        0.0648 Ry
        Total length         55.1515 bohr
 
 
     Adding external electric field

     Computed dipole along edir(3) : 
        Dipole               -0.9602 Ry au,         -2.4406 Debye
        Dipole field         -0.0006 Ry au, 
 
        Potential amp.        0.0648 Ry
        Total length         55.1515 bohr
 

     total cpu time spent up to now is      211.4 secs

     total energy              =   -7738.14984047 Ry
     estimated scf accuracy    <      19.46043877 Ry

     total magnetization       =    69.64 Bohr mag/cell
     absolute magnetization    =    84.40 Bohr mag/cell

     iteration # 12     ecut=    50.00 Ry     beta= 0.10
     Davidson diagonalization with overlap
     ethr =  1.12E-03,  avg # of iterations =  1.0

     negative rho (up, down):  1.680E-03 3.756E-03
 
     Adding external electric field

     Computed dipole along edir(3) : 
        Dipole               -0.8446 Ry au,         -2.1467 Debye
        Dipole field         -0.0005 Ry au, 
 
        Potential amp.        0.0570 Ry
        Total length         55.1515 bohr
 
 
     Adding external electric field

     Computed dipole along edir(3) : 
        Dipole               -0.8446 Ry au,         -2.1467 Debye
        Dipole field         -0.0005 Ry au, 
 
        Potential amp.        0.0570 Ry
        Total length         55.1515 bohr
 

     total cpu time spent up to now is      224.7 secs

     total energy              =   -7737.81598263 Ry
     estimated scf accuracy    <      18.08526189 Ry

     total magnetization       =    69.65 Bohr mag/cell
     absolute magnetization    =    83.98 Bohr mag/cell

     iteration # 13     ecut=    50.00 Ry     beta= 0.10
     Davidson diagonalization with overlap
     ethr =  1.12E-03,  avg # of iterations =  1.0

     negative rho (up, down):  1.081E-02 1.479E-02
 
     Adding external electric field

     Computed dipole along edir(3) : 
        Dipole               -0.3945 Ry au,         -1.0026 Debye
        Dipole field         -0.0002 Ry au, 
 
        Potential amp.        0.0266 Ry
        Total length         55.1515 bohr
 
 
     Adding external electric field

     Computed dipole along edir(3) : 
        Dipole               -0.3945 Ry au,         -1.0026 Debye
        Dipole field         -0.0002 Ry au, 
 
        Potential amp.        0.0266 Ry
        Total length         55.1515 bohr
 

     total cpu time spent up to now is      237.9 secs

     total energy              =   -7737.91366659 Ry
     estimated scf accuracy    <       6.69584581 Ry

     total magnetization       =    81.44 Bohr mag/cell
     absolute magnetization    =    92.22 Bohr mag/cell

     iteration # 14     ecut=    50.00 Ry     beta= 0.10
     Davidson diagonalization with overlap
     ethr =  6.13E-04,  avg # of iterations =  2.0

     negative rho (up, down):  6.538E-03 1.033E-02
 
     Adding external electric field

     Computed dipole along edir(3) : 
        Dipole               -0.4341 Ry au,         -1.1033 Debye
        Dipole field         -0.0003 Ry au, 
 
        Potential amp.        0.0293 Ry
        Total length         55.1515 bohr
 
 
     Adding external electric field

     Computed dipole along edir(3) : 
        Dipole               -0.4341 Ry au,         -1.1033 Debye
        Dipole field         -0.0003 Ry au, 
 
        Potential amp.        0.0293 Ry
        Total length         55.1515 bohr
 

     total cpu time spent up to now is      253.5 secs

     total energy              =   -7738.15727964 Ry
     estimated scf accuracy    <       1.37572572 Ry

     total magnetization       =    88.94 Bohr mag/cell
     absolute magnetization    =    95.73 Bohr mag/cell

     iteration # 15     ecut=    50.00 Ry     beta= 0.10
     Davidson diagonalization with overlap
     ethr =  1.26E-04,  avg # of iterations =  2.0

     negative rho (up, down):  2.816E-06 6.742E-05
 
     Adding external electric field

     Computed dipole along edir(3) : 
        Dipole               -0.6840 Ry au,         -1.7385 Debye
        Dipole field         -0.0004 Ry au, 
 
        Potential amp.        0.0462 Ry
        Total length         55.1515 bohr
 
 
     Adding external electric field

     Computed dipole along edir(3) : 
        Dipole               -0.6840 Ry au,         -1.7385 Debye
        Dipole field         -0.0004 Ry au, 
 
        Potential amp.        0.0462 Ry
        Total length         55.1515 bohr
 

     total cpu time spent up to now is      269.0 secs

     total energy              =   -7738.00695799 Ry
     estimated scf accuracy    <       1.15844737 Ry

     total magnetization       =    88.88 Bohr mag/cell
     absolute magnetization    =    95.61 Bohr mag/cell

     iteration # 16     ecut=    50.00 Ry     beta= 0.10
     Davidson diagonalization with overlap
     ethr =  1.06E-04,  avg # of iterations =  2.0

     negative rho (up, down):  5.227E-06 5.206E-05
 
     Adding external electric field

     Computed dipole along edir(3) : 
        Dipole               -0.7189 Ry au,         -1.8272 Debye
        Dipole field         -0.0004 Ry au, 
 
        Potential amp.        0.0485 Ry
        Total length         55.1515 bohr
 
 
     Adding external electric field

     Computed dipole along edir(3) : 
        Dipole               -0.7189 Ry au,         -1.8272 Debye
        Dipole field         -0.0004 Ry au, 
 
        Potential amp.        0.0485 Ry
        Total length         55.1515 bohr
 

     total cpu time spent up to now is      284.1 secs

     total energy              =   -7738.17225245 Ry
     estimated scf accuracy    <       3.32418735 Ry

     total magnetization       =    79.25 Bohr mag/cell
     absolute magnetization    =    86.44 Bohr mag/cell

     iteration # 17     ecut=    50.00 Ry     beta= 0.10
     Davidson diagonalization with overlap
     ethr =  1.06E-04,  avg # of iterations =  1.5

     negative rho (up, down):  1.362E-05 7.188E-05
 
     Adding external electric field

     Computed dipole along edir(3) : 
        Dipole               -0.6137 Ry au,         -1.5600 Debye
        Dipole field         -0.0004 Ry au, 
 
        Potential amp.        0.0414 Ry
        Total length         55.1515 bohr
 
 
     Adding external electric field

     Computed dipole along edir(3) : 
        Dipole               -0.6137 Ry au,         -1.5600 Debye
        Dipole field         -0.0004 Ry au, 
 
        Potential amp.        0.0414 Ry
        Total length         55.1515 bohr
 

     total cpu time spent up to now is      298.1 secs

     total energy              =   -7738.12727915 Ry
     estimated scf accuracy    <       3.40513211 Ry

     total magnetization       =    78.84 Bohr mag/cell
     absolute magnetization    =    85.90 Bohr mag/cell

     iteration # 18     ecut=    50.00 Ry     beta= 0.10
     Davidson diagonalization with overlap
     ethr =  1.06E-04,  avg # of iterations =  1.5

     negative rho (up, down):  8.680E-06 5.704E-05
 
     Adding external electric field

     Computed dipole along edir(3) : 
        Dipole               -0.5412 Ry au,         -1.3756 Debye
        Dipole field         -0.0003 Ry au, 
 
        Potential amp.        0.0365 Ry
        Total length         55.1515 bohr
 
 
     Adding external electric field

     Computed dipole along edir(3) : 
        Dipole               -0.5412 Ry au,         -1.3756 Debye
        Dipole field         -0.0003 Ry au, 
 
        Potential amp.        0.0365 Ry
        Total length         55.1515 bohr
 

     total cpu time spent up to now is      312.4 secs

     total energy              =   -7738.29454070 Ry
     estimated scf accuracy    <       0.31053398 Ry

     total magnetization       =    87.40 Bohr mag/cell
     absolute magnetization    =    91.97 Bohr mag/cell

     iteration # 19     ecut=    50.00 Ry     beta= 0.10
     Davidson diagonalization with overlap
     ethr =  2.84E-05,  avg # of iterations = 11.0

     negative rho (up, down):  1.224E-04 2.244E-04
 
     Adding external electric field

     Computed dipole along edir(3) : 
        Dipole               -0.5411 Ry au,         -1.3753 Debye
        Dipole field         -0.0003 Ry au, 
 
        Potential amp.        0.0365 Ry
        Total length         55.1515 bohr
 
 
     Adding external electric field

     Computed dipole along edir(3) : 
        Dipole               -0.5411 Ry au,         -1.3753 Debye
        Dipole field         -0.0003 Ry au, 
 
        Potential amp.        0.0365 Ry
        Total length         55.1515 bohr
 

     total cpu time spent up to now is      338.9 secs

     total energy              =   -7738.33639175 Ry
     estimated scf accuracy    <       0.33694001 Ry

     total magnetization       =    88.48 Bohr mag/cell
     absolute magnetization    =    91.65 Bohr mag/cell

     iteration # 20     ecut=    50.00 Ry     beta= 0.10
     Davidson diagonalization with overlap
     ethr =  2.84E-05,  avg # of iterations =  1.5

     negative rho (up, down):  4.982E-05 7.414E-05
 
     Adding external electric field

     Computed dipole along edir(3) : 
        Dipole               -0.5096 Ry au,         -1.2952 Debye
        Dipole field         -0.0003 Ry au, 
 
        Potential amp.        0.0344 Ry
        Total length         55.1515 bohr
 
 
     Adding external electric field

     Computed dipole along edir(3) : 
        Dipole               -0.5096 Ry au,         -1.2952 Debye
        Dipole field         -0.0003 Ry au, 
 
        Potential amp.        0.0344 Ry
        Total length         55.1515 bohr
 

     total cpu time spent up to now is      352.9 secs

     total energy              =   -7738.35097545 Ry
     estimated scf accuracy    <       0.18550007 Ry

     total magnetization       =    88.13 Bohr mag/cell
     absolute magnetization    =    90.39 Bohr mag/cell

     iteration # 21     ecut=    50.00 Ry     beta= 0.10
     Davidson diagonalization with overlap
     ethr =  1.70E-05,  avg # of iterations = 12.0

     negative rho (up, down):  1.378E-04 1.168E-04
 
     Adding external electric field

     Computed dipole along edir(3) : 
        Dipole               -0.4734 Ry au,         -1.2034 Debye
        Dipole field         -0.0003 Ry au, 
 
        Potential amp.        0.0320 Ry
        Total length         55.1515 bohr
 
 
     Adding external electric field

     Computed dipole along edir(3) : 
        Dipole               -0.4734 Ry au,         -1.2034 Debye
        Dipole field         -0.0003 Ry au, 
 
        Potential amp.        0.0320 Ry
        Total length         55.1515 bohr
 

     total cpu time spent up to now is      379.7 secs

     total energy              =   -7738.35155954 Ry
     estimated scf accuracy    <       0.10821868 Ry

     total magnetization       =    88.02 Bohr mag/cell
     absolute magnetization    =    90.01 Bohr mag/cell

     iteration # 22     ecut=    50.00 Ry     beta= 0.10
     Davidson diagonalization with overlap
     c_bands:  1 eigenvalues not converged
     ethr =  9.90E-06,  avg # of iterations = 10.5

     negative rho (up, down):  1.785E-04 1.477E-04
 
     Adding external electric field

     Computed dipole along edir(3) : 
        Dipole               -0.4676 Ry au,         -1.1885 Debye
        Dipole field         -0.0003 Ry au, 
 
        Potential amp.        0.0316 Ry
        Total length         55.1515 bohr
 
 
     Adding external electric field

     Computed dipole along edir(3) : 
        Dipole               -0.4676 Ry au,         -1.1885 Debye
        Dipole field         -0.0003 Ry au, 
 
        Potential amp.        0.0316 Ry
        Total length         55.1515 bohr
 

     total cpu time spent up to now is      400.6 secs

     total energy              =   -7738.35335370 Ry
     estimated scf accuracy    <       0.05633838 Ry

     total magnetization       =    87.55 Bohr mag/cell
     absolute magnetization    =    89.39 Bohr mag/cell

     iteration # 23     ecut=    50.00 Ry     beta= 0.10
     Davidson diagonalization with overlap
     ethr =  5.15E-06,  avg # of iterations =  2.0

     negative rho (up, down):  1.067E-04 8.209E-05
 
     Adding external electric field

     Computed dipole along edir(3) : 
        Dipole               -0.4310 Ry au,         -1.0956 Debye
        Dipole field         -0.0003 Ry au, 
 
        Potential amp.        0.0291 Ry
        Total length         55.1515 bohr
 
 
     Adding external electric field

     Computed dipole along edir(3) : 
        Dipole               -0.4310 Ry au,         -1.0956 Debye
        Dipole field         -0.0003 Ry au, 
 
        Potential amp.        0.0291 Ry
        Total length         55.1515 bohr
 

     total cpu time spent up to now is      415.7 secs

     total energy              =   -7738.35193026 Ry
     estimated scf accuracy    <       0.05685242 Ry

     total magnetization       =    87.42 Bohr mag/cell
     absolute magnetization    =    89.25 Bohr mag/cell

     iteration # 24     ecut=    50.00 Ry     beta= 0.10
     Davidson diagonalization with overlap
     ethr =  5.15E-06,  avg # of iterations =  1.5

     negative rho (up, down):  2.942E-06 1.750E-06
 
     Adding external electric field

     Computed dipole along edir(3) : 
        Dipole               -0.3463 Ry au,         -0.8801 Debye
        Dipole field         -0.0002 Ry au, 
 
        Potential amp.        0.0234 Ry
        Total length         55.1515 bohr
 
 
     Adding external electric field

     Computed dipole along edir(3) : 
        Dipole               -0.3463 Ry au,         -0.8801 Debye
        Dipole field         -0.0002 Ry au, 
 
        Potential amp.        0.0234 Ry
        Total length         55.1515 bohr
 

     total cpu time spent up to now is      430.3 secs

     total energy              =   -7738.35162924 Ry
     estimated scf accuracy    <       0.06395988 Ry

     total magnetization       =    86.88 Bohr mag/cell
     absolute magnetization    =    88.74 Bohr mag/cell

     iteration # 25     ecut=    50.00 Ry     beta= 0.10
     Davidson diagonalization with overlap
     c_bands:  1 eigenvalues not converged
     ethr =  5.15E-06,  avg # of iterations = 11.0

     negative rho (up, down):  7.455E-06 5.081E-06
 
     Adding external electric field

     Computed dipole along edir(3) : 
        Dipole               -0.3425 Ry au,         -0.8705 Debye
        Dipole field         -0.0002 Ry au, 
 
        Potential amp.        0.0231 Ry
        Total length         55.1515 bohr
 
 
     Adding external electric field

     Computed dipole along edir(3) : 
        Dipole               -0.3425 Ry au,         -0.8705 Debye
        Dipole field         -0.0002 Ry au, 
 
        Potential amp.        0.0231 Ry
        Total length         55.1515 bohr
 

     total cpu time spent up to now is      450.6 secs

     total energy              =   -7738.35345072 Ry
     estimated scf accuracy    <       0.05043099 Ry

     total magnetization       =    87.02 Bohr mag/cell
     absolute magnetization    =    88.89 Bohr mag/cell

     iteration # 26     ecut=    50.00 Ry     beta= 0.10
     Davidson diagonalization with overlap
     ethr =  4.61E-06,  avg # of iterations =  9.0

     negative rho (up, down):  3.427E-06 2.805E-06
 
     Adding external electric field

     Computed dipole along edir(3) : 
        Dipole               -0.2546 Ry au,         -0.6471 Debye
        Dipole field         -0.0002 Ry au, 
 
        Potential amp.        0.0172 Ry
        Total length         55.1515 bohr
 
 
     Adding external electric field

     Computed dipole along edir(3) : 
        Dipole               -0.2546 Ry au,         -0.6471 Debye
        Dipole field         -0.0002 Ry au, 
 
        Potential amp.        0.0172 Ry
        Total length         55.1515 bohr
 

     total cpu time spent up to now is      469.8 secs

     total energy              =   -7738.35416913 Ry
     estimated scf accuracy    <       0.06788044 Ry

     total magnetization       =    86.92 Bohr mag/cell
     absolute magnetization    =    88.68 Bohr mag/cell

     iteration # 27     ecut=    50.00 Ry     beta= 0.10
     Davidson diagonalization with overlap
     ethr =  4.61E-06,  avg # of iterations =  2.0

     negative rho (up, down):  7.033E-07 2.716E-07
 
     Adding external electric field

     Computed dipole along edir(3) : 
        Dipole               -0.3558 Ry au,         -0.9044 Debye
        Dipole field         -0.0002 Ry au, 
 
        Potential amp.        0.0240 Ry
        Total length         55.1515 bohr
 
 
     Adding external electric field

     Computed dipole along edir(3) : 
        Dipole               -0.3558 Ry au,         -0.9044 Debye
        Dipole field         -0.0002 Ry au, 
 
        Potential amp.        0.0240 Ry
        Total length         55.1515 bohr
 

     total cpu time spent up to now is      484.9 secs

     total energy              =   -7738.35205546 Ry
     estimated scf accuracy    <       0.08668784 Ry

     total magnetization       =    86.64 Bohr mag/cell
     absolute magnetization    =    88.37 Bohr mag/cell

     iteration # 28     ecut=    50.00 Ry     beta= 0.10
     Davidson diagonalization with overlap
     ethr =  4.61E-06,  avg # of iterations =  1.5

     negative rho (up, down):  7.304E-06 5.285E-06
 
     Adding external electric field

     Computed dipole along edir(3) : 
        Dipole               -0.3223 Ry au,         -0.8193 Debye
        Dipole field         -0.0002 Ry au, 
 
        Potential amp.        0.0218 Ry
        Total length         55.1515 bohr
 
 
     Adding external electric field

     Computed dipole along edir(3) : 
        Dipole               -0.3223 Ry au,         -0.8193 Debye
        Dipole field         -0.0002 Ry au, 
 
        Potential amp.        0.0218 Ry
        Total length         55.1515 bohr
 

     total cpu time spent up to now is      499.3 secs

     total energy              =   -7738.35178702 Ry
     estimated scf accuracy    <       0.04773262 Ry

     total magnetization       =    87.24 Bohr mag/cell
     absolute magnetization    =    89.00 Bohr mag/cell

     iteration # 29     ecut=    50.00 Ry     beta= 0.10
     Davidson diagonalization with overlap
     ethr =  4.37E-06,  avg # of iterations =  2.0

     negative rho (up, down):  1.824E-05 1.342E-05
 
     Adding external electric field

     Computed dipole along edir(3) : 
        Dipole               -0.3218 Ry au,         -0.8180 Debye
        Dipole field         -0.0002 Ry au, 
 
        Potential amp.        0.0217 Ry
        Total length         55.1515 bohr
 
 
     Adding external electric field

     Computed dipole along edir(3) : 
        Dipole               -0.3218 Ry au,         -0.8180 Debye
        Dipole field         -0.0002 Ry au, 
 
        Potential amp.        0.0217 Ry
        Total length         55.1515 bohr
 

     total cpu time spent up to now is      515.1 secs

     total energy              =   -7738.35090294 Ry
     estimated scf accuracy    <       0.04552769 Ry

     total magnetization       =    87.12 Bohr mag/cell
     absolute magnetization    =    89.00 Bohr mag/cell

     iteration # 30     ecut=    50.00 Ry     beta= 0.10
     Davidson diagonalization with overlap
     ethr =  4.17E-06,  avg # of iterations =  1.5

     negative rho (up, down):  2.525E-06 2.165E-06
 
     Adding external electric field

     Computed dipole along edir(3) : 
        Dipole               -0.2329 Ry au,         -0.5921 Debye
        Dipole field         -0.0001 Ry au, 
 
        Potential amp.        0.0157 Ry
        Total length         55.1515 bohr
 
 
     Adding external electric field

     Computed dipole along edir(3) : 
        Dipole               -0.2329 Ry au,         -0.5921 Debye
        Dipole field         -0.0001 Ry au, 
 
        Potential amp.        0.0157 Ry
        Total length         55.1515 bohr
 

     total cpu time spent up to now is      529.0 secs

     total energy              =   -7738.35314233 Ry
     estimated scf accuracy    <       0.05304785 Ry

     total magnetization       =    87.13 Bohr mag/cell
     absolute magnetization    =    89.07 Bohr mag/cell

     iteration # 31     ecut=    50.00 Ry     beta= 0.10
     Davidson diagonalization with overlap
     c_bands:  1 eigenvalues not converged
     ethr =  4.17E-06,  avg # of iterations = 11.0

     negative rho (up, down):  1.745E-06 1.718E-06
 
     Adding external electric field

     Computed dipole along edir(3) : 
        Dipole               -0.2503 Ry au,         -0.6362 Debye
        Dipole field         -0.0002 Ry au, 
 
        Potential amp.        0.0169 Ry
        Total length         55.1515 bohr
 
 
     Adding external electric field

     Computed dipole along edir(3) : 
        Dipole               -0.2503 Ry au,         -0.6362 Debye
        Dipole field         -0.0002 Ry au, 
 
        Potential amp.        0.0169 Ry
        Total length         55.1515 bohr
 

     total cpu time spent up to now is      550.2 secs

     total energy              =   -7738.35443019 Ry
     estimated scf accuracy    <       0.05189146 Ry

     total magnetization       =    86.88 Bohr mag/cell
     absolute magnetization    =    88.54 Bohr mag/cell

     iteration # 32     ecut=    50.00 Ry     beta= 0.10
     Davidson diagonalization with overlap
     c_bands:  1 eigenvalues not converged
     ethr =  4.17E-06,  avg # of iterations = 10.5

     negative rho (up, down):  1.084E-06 1.085E-06
 
     Adding external electric field

     Computed dipole along edir(3) : 
        Dipole               -0.2493 Ry au,         -0.6337 Debye
        Dipole field         -0.0002 Ry au, 
 
        Potential amp.        0.0168 Ry
        Total length         55.1515 bohr
 
 
     Adding external electric field

     Computed dipole along edir(3) : 
        Dipole               -0.2493 Ry au,         -0.6337 Debye
        Dipole field         -0.0002 Ry au, 
 
        Potential amp.        0.0168 Ry
        Total length         55.1515 bohr
 

     total cpu time spent up to now is      569.9 secs

     total energy              =   -7738.35465935 Ry
     estimated scf accuracy    <       0.04427561 Ry

     total magnetization       =    87.06 Bohr mag/cell
     absolute magnetization    =    88.68 Bohr mag/cell

     iteration # 33     ecut=    50.00 Ry     beta= 0.10
     Davidson diagonalization with overlap
     ethr =  4.05E-06,  avg # of iterations =  7.0

     negative rho (up, down):  1.727E-06 1.616E-06
 
     Adding external electric field

     Computed dipole along edir(3) : 
        Dipole               -0.2734 Ry au,         -0.6950 Debye
        Dipole field         -0.0002 Ry au, 
 
        Potential amp.        0.0185 Ry
        Total length         55.1515 bohr
 
 
     Adding external electric field

     Computed dipole along edir(3) : 
        Dipole               -0.2734 Ry au,         -0.6950 Debye
        Dipole field         -0.0002 Ry au, 
 
        Potential amp.        0.0185 Ry
        Total length         55.1515 bohr
 

     total cpu time spent up to now is      587.4 secs

     total energy              =   -7738.35479306 Ry
     estimated scf accuracy    <       0.04486940 Ry

     total magnetization       =    87.10 Bohr mag/cell
     absolute magnetization    =    88.71 Bohr mag/cell

     iteration # 34     ecut=    50.00 Ry     beta= 0.10
     Davidson diagonalization with overlap
     ethr =  4.05E-06,  avg # of iterations =  1.5

     negative rho (up, down):  2.916E-06 2.538E-06
 
     Adding external electric field

     Computed dipole along edir(3) : 
        Dipole               -0.2706 Ry au,         -0.6879 Debye
        Dipole field         -0.0002 Ry au, 
 
        Potential amp.        0.0183 Ry
        Total length         55.1515 bohr
 
 
     Adding external electric field

     Computed dipole along edir(3) : 
        Dipole               -0.2706 Ry au,         -0.6879 Debye
        Dipole field         -0.0002 Ry au, 
 
        Potential amp.        0.0183 Ry
        Total length         55.1515 bohr
 

     total cpu time spent up to now is      601.2 secs

     total energy              =   -7738.35478190 Ry
     estimated scf accuracy    <       0.04134261 Ry

     total magnetization       =    87.14 Bohr mag/cell
     absolute magnetization    =    88.69 Bohr mag/cell

     iteration # 35     ecut=    50.00 Ry     beta= 0.10
     Davidson diagonalization with overlap
     ethr =  3.78E-06,  avg # of iterations =  1.5

     negative rho (up, down):  8.291E-07 8.682E-07
 
     Adding external electric field

     Computed dipole along edir(3) : 
        Dipole               -0.2655 Ry au,         -0.6748 Debye
        Dipole field         -0.0002 Ry au, 
 
        Potential amp.        0.0179 Ry
        Total length         55.1515 bohr
 
 
     Adding external electric field

     Computed dipole along edir(3) : 
        Dipole               -0.2655 Ry au,         -0.6748 Debye
        Dipole field         -0.0002 Ry au, 
 
        Potential amp.        0.0179 Ry
        Total length         55.1515 bohr
 

     total cpu time spent up to now is      615.7 secs

     total energy              =   -7738.35462982 Ry
     estimated scf accuracy    <       0.04229766 Ry

     total magnetization       =    87.15 Bohr mag/cell
     absolute magnetization    =    88.67 Bohr mag/cell

     iteration # 36     ecut=    50.00 Ry     beta= 0.10
     Davidson diagonalization with overlap
     ethr =  3.78E-06,  avg # of iterations =  1.5

     negative rho (up, down):  2.812E-06 6.171E-06
 
     Adding external electric field

     Computed dipole along edir(3) : 
        Dipole               -0.2387 Ry au,         -0.6068 Debye
        Dipole field         -0.0001 Ry au, 
 
        Potential amp.        0.0161 Ry
        Total length         55.1515 bohr
 
 
     Adding external electric field

     Computed dipole along edir(3) : 
        Dipole               -0.2387 Ry au,         -0.6068 Debye
        Dipole field         -0.0001 Ry au, 
 
        Potential amp.        0.0161 Ry
        Total length         55.1515 bohr
 

     total cpu time spent up to now is      630.0 secs

     total energy              =   -7738.35437768 Ry
     estimated scf accuracy    <       0.04090347 Ry

     total magnetization       =    87.11 Bohr mag/cell
     absolute magnetization    =    88.68 Bohr mag/cell

     iteration # 37     ecut=    50.00 Ry     beta= 0.10
     Davidson diagonalization with overlap
     ethr =  3.74E-06,  avg # of iterations =  1.5

     negative rho (up, down):  9.035E-07 1.661E-06
 
     Adding external electric field

     Computed dipole along edir(3) : 
        Dipole               -0.2705 Ry au,         -0.6875 Debye
        Dipole field         -0.0002 Ry au, 
 
        Potential amp.        0.0183 Ry
        Total length         55.1515 bohr
 
 
     Adding external electric field

     Computed dipole along edir(3) : 
        Dipole               -0.2705 Ry au,         -0.6875 Debye
        Dipole field         -0.0002 Ry au, 
 
        Potential amp.        0.0183 Ry
        Total length         55.1515 bohr
 

     total cpu time spent up to now is      644.1 secs

     total energy              =   -7738.35486777 Ry
     estimated scf accuracy    <       0.03906836 Ry

     total magnetization       =    87.12 Bohr mag/cell
     absolute magnetization    =    88.66 Bohr mag/cell

     iteration # 38     ecut=    50.00 Ry     beta= 0.10
     Davidson diagonalization with overlap
     ethr =  3.57E-06,  avg # of iterations =  1.0

     negative rho (up, down):  7.641E-05 1.718E-04
 
     Adding external electric field

     Computed dipole along edir(3) : 
        Dipole               -0.1341 Ry au,         -0.3408 Debye
        Dipole field         -0.0001 Ry au, 
 
        Potential amp.        0.0091 Ry
        Total length         55.1515 bohr
 
 
     Adding external electric field

     Computed dipole along edir(3) : 
        Dipole               -0.1341 Ry au,         -0.3408 Debye
        Dipole field         -0.0001 Ry au, 
 
        Potential amp.        0.0091 Ry
        Total length         55.1515 bohr
 

     total cpu time spent up to now is      657.5 secs

     total energy              =   -7738.35203408 Ry
     estimated scf accuracy    <       0.04160161 Ry

     total magnetization       =    87.13 Bohr mag/cell
     absolute magnetization    =    88.66 Bohr mag/cell

     iteration # 39     ecut=    50.00 Ry     beta= 0.10
     Davidson diagonalization with overlap
     ethr =  3.57E-06,  avg # of iterations =  2.0

     negative rho (up, down):  4.964E-05 1.090E-04
 
     Adding external electric field

     Computed dipole along edir(3) : 
        Dipole               -0.1474 Ry au,         -0.3747 Debye
        Dipole field         -0.0001 Ry au, 
 
        Potential amp.        0.0100 Ry
        Total length         55.1515 bohr
 
 
     Adding external electric field

     Computed dipole along edir(3) : 
        Dipole               -0.1474 Ry au,         -0.3747 Debye
        Dipole field         -0.0001 Ry au, 
 
        Potential amp.        0.0100 Ry
        Total length         55.1515 bohr
 

     total cpu time spent up to now is      673.0 secs

     total energy              =   -7738.35266560 Ry
     estimated scf accuracy    <       0.03627496 Ry

     total magnetization       =    87.05 Bohr mag/cell
     absolute magnetization    =    88.61 Bohr mag/cell

     iteration # 40     ecut=    50.00 Ry     beta= 0.10
     Davidson diagonalization with overlap
     ethr =  3.32E-06,  avg # of iterations =  1.5

     negative rho (up, down):  1.448E-04 2.480E-04
 
     Adding external electric field

     Computed dipole along edir(3) : 
        Dipole               -0.1345 Ry au,         -0.3418 Debye
        Dipole field         -0.0001 Ry au, 
 
        Potential amp.        0.0091 Ry
        Total length         55.1515 bohr
 
 
     Adding external electric field

     Computed dipole along edir(3) : 
        Dipole               -0.1345 Ry au,         -0.3418 Debye
        Dipole field         -0.0001 Ry au, 
 
        Potential amp.        0.0091 Ry
        Total length         55.1515 bohr
 

     total cpu time spent up to now is      687.0 secs

     total energy              =   -7738.35293738 Ry
     estimated scf accuracy    <       0.03605979 Ry

     total magnetization       =    87.08 Bohr mag/cell
     absolute magnetization    =    88.67 Bohr mag/cell

     iteration # 41     ecut=    50.00 Ry     beta= 0.10
     Davidson diagonalization with overlap
     ethr =  3.30E-06,  avg # of iterations =  2.0

     negative rho (up, down):  1.999E-04 3.128E-04
 
     Adding external electric field

     Computed dipole along edir(3) : 
        Dipole               -0.1310 Ry au,         -0.3329 Debye
        Dipole field         -0.0001 Ry au, 
 
        Potential amp.        0.0088 Ry
        Total length         55.1515 bohr
 
 
     Adding external electric field

     Computed dipole along edir(3) : 
        Dipole               -0.1310 Ry au,         -0.3329 Debye
        Dipole field         -0.0001 Ry au, 
 
        Potential amp.        0.0088 Ry
        Total length         55.1515 bohr
 

     total cpu time spent up to now is      704.9 secs

     total energy              =   -7738.35308292 Ry
     estimated scf accuracy    <       0.03603834 Ry

     total magnetization       =    87.07 Bohr mag/cell
     absolute magnetization    =    88.65 Bohr mag/cell

     iteration # 42     ecut=    50.00 Ry     beta= 0.10
     Davidson diagonalization with overlap
     ethr =  3.30E-06,  avg # of iterations =  1.0

     negative rho (up, down):  4.261E-04 4.938E-04
 
     Adding external electric field

     Computed dipole along edir(3) : 
        Dipole               -0.0619 Ry au,         -0.1572 Debye
        Dipole field         -0.0000 Ry au, 
 
        Potential amp.        0.0042 Ry
        Total length         55.1515 bohr
 
 
     Adding external electric field

     Computed dipole along edir(3) : 
        Dipole               -0.0619 Ry au,         -0.1572 Debye
        Dipole field         -0.0000 Ry au, 
 
        Potential amp.        0.0042 Ry
        Total length         55.1515 bohr
 

     total cpu time spent up to now is      718.6 secs

     total energy              =   -7738.35249803 Ry
     estimated scf accuracy    <       0.03567576 Ry

     total magnetization       =    87.07 Bohr mag/cell
     absolute magnetization    =    88.64 Bohr mag/cell

     iteration # 43     ecut=    50.00 Ry     beta= 0.10
     Davidson diagonalization with overlap
     ethr =  3.26E-06,  avg # of iterations =  2.0

     negative rho (up, down):  1.039E-03 1.095E-03
 
     Adding external electric field

     Computed dipole along edir(3) : 
        Dipole               -0.0436 Ry au,         -0.1108 Debye
        Dipole field         -0.0000 Ry au, 
 
        Potential amp.        0.0029 Ry
        Total length         55.1515 bohr
 
 
     Adding external electric field

     Computed dipole along edir(3) : 
        Dipole               -0.0436 Ry au,         -0.1108 Debye
        Dipole field         -0.0000 Ry au, 
 
        Potential amp.        0.0029 Ry
        Total length         55.1515 bohr
 

     total cpu time spent up to now is      733.9 secs

     total energy              =   -7738.35252346 Ry
     estimated scf accuracy    <       0.03078213 Ry

     total magnetization       =    87.05 Bohr mag/cell
     absolute magnetization    =    88.58 Bohr mag/cell

     iteration # 44     ecut=    50.00 Ry     beta= 0.10
     Davidson diagonalization with overlap
     ethr =  2.82E-06,  avg # of iterations =  1.5

     negative rho (up, down):  6.623E-04 6.457E-04
 
     Adding external electric field

     Computed dipole along edir(3) : 
        Dipole               -0.0555 Ry au,         -0.1410 Debye
        Dipole field         -0.0000 Ry au, 
 
        Potential amp.        0.0037 Ry
        Total length         55.1515 bohr
 
 
     Adding external electric field

     Computed dipole along edir(3) : 
        Dipole               -0.0555 Ry au,         -0.1410 Debye
        Dipole field         -0.0000 Ry au, 
 
        Potential amp.        0.0037 Ry
        Total length         55.1515 bohr
 

     total cpu time spent up to now is      748.1 secs

     total energy              =   -7738.35271291 Ry
     estimated scf accuracy    <       0.02958877 Ry

     total magnetization       =    87.01 Bohr mag/cell
     absolute magnetization    =    88.55 Bohr mag/cell

     iteration # 45     ecut=    50.00 Ry     beta= 0.10
     Davidson diagonalization with overlap
     ethr =  2.71E-06,  avg # of iterations =  2.0

     negative rho (up, down):  5.859E-04 6.179E-04
 
     Adding external electric field

     Computed dipole along edir(3) : 
        Dipole               -0.0534 Ry au,         -0.1359 Debye
        Dipole field         -0.0000 Ry au, 
 
        Potential amp.        0.0036 Ry
        Total length         55.1515 bohr
 
 
     Adding external electric field

     Computed dipole along edir(3) : 
        Dipole               -0.0534 Ry au,         -0.1359 Debye
        Dipole field         -0.0000 Ry au, 
 
        Potential amp.        0.0036 Ry
        Total length         55.1515 bohr
 

     total cpu time spent up to now is      762.9 secs

     total energy              =   -7738.35253617 Ry
     estimated scf accuracy    <       0.03057052 Ry

     total magnetization       =    87.06 Bohr mag/cell
     absolute magnetization    =    88.55 Bohr mag/cell

     iteration # 46     ecut=    50.00 Ry     beta= 0.10
     Davidson diagonalization with overlap
     ethr =  2.71E-06,  avg # of iterations =  1.5

     negative rho (up, down):  9.925E-04 1.065E-03
 
     Adding external electric field

     Computed dipole along edir(3) : 
        Dipole               -0.0383 Ry au,         -0.0974 Debye
        Dipole field         -0.0000 Ry au, 
 
        Potential amp.        0.0026 Ry
        Total length         55.1515 bohr
 
 
     Adding external electric field

     Computed dipole along edir(3) : 
        Dipole               -0.0383 Ry au,         -0.0974 Debye
        Dipole field         -0.0000 Ry au, 
 
        Potential amp.        0.0026 Ry
        Total length         55.1515 bohr
 

     total cpu time spent up to now is      777.2 secs

     total energy              =   -7738.35233106 Ry
     estimated scf accuracy    <       0.03322298 Ry

     total magnetization       =    87.02 Bohr mag/cell
     absolute magnetization    =    88.57 Bohr mag/cell

     iteration # 47     ecut=    50.00 Ry     beta= 0.10
     Davidson diagonalization with overlap
     ethr =  2.71E-06,  avg # of iterations =  2.0

     negative rho (up, down):  9.546E-04 1.061E-03
 
     Adding external electric field

     Computed dipole along edir(3) : 
        Dipole               -0.0354 Ry au,         -0.0900 Debye
        Dipole field         -0.0000 Ry au, 
 
        Potential amp.        0.0024 Ry
        Total length         55.1515 bohr
 
 
     Adding external electric field

     Computed dipole along edir(3) : 
        Dipole               -0.0354 Ry au,         -0.0900 Debye
        Dipole field         -0.0000 Ry au, 
 
        Potential amp.        0.0024 Ry
        Total length         55.1515 bohr
 

     total cpu time spent up to now is      793.2 secs

     total energy              =   -7738.35222224 Ry
     estimated scf accuracy    <       0.02825408 Ry

     total magnetization       =    87.04 Bohr mag/cell
     absolute magnetization    =    88.59 Bohr mag/cell

     iteration # 48     ecut=    50.00 Ry     beta= 0.10
     Davidson diagonalization with overlap
     ethr =  2.59E-06,  avg # of iterations =  1.5

     negative rho (up, down):  1.126E-03 1.207E-03
 
     Adding external electric field

     Computed dipole along edir(3) : 
        Dipole               -0.0252 Ry au,         -0.0640 Debye
        Dipole field         -0.0000 Ry au, 
 
        Potential amp.        0.0017 Ry
        Total length         55.1515 bohr
 
 
     Adding external electric field

     Computed dipole along edir(3) : 
        Dipole               -0.0252 Ry au,         -0.0640 Debye
        Dipole field         -0.0000 Ry au, 
 
        Potential amp.        0.0017 Ry
        Total length         55.1515 bohr
 

     total cpu time spent up to now is      807.2 secs

     total energy              =   -7738.35206924 Ry
     estimated scf accuracy    <       0.02648937 Ry

     total magnetization       =    87.03 Bohr mag/cell
     absolute magnetization    =    88.61 Bohr mag/cell

     iteration # 49     ecut=    50.00 Ry     beta= 0.10
     Davidson diagonalization with overlap
     ethr =  2.42E-06,  avg # of iterations =  2.0

     negative rho (up, down):  2.911E-03 3.262E-03
 
     Adding external electric field

     Computed dipole along edir(3) : 
        Dipole                0.0661 Ry au,          0.1679 Debye
        Dipole field          0.0000 Ry au, 
 
        Potential amp.       -0.0045 Ry
        Total length         55.1515 bohr
 
 
     Adding external electric field

     Computed dipole along edir(3) : 
        Dipole                0.0661 Ry au,          0.1679 Debye
        Dipole field          0.0000 Ry au, 
 
        Potential amp.       -0.0045 Ry
        Total length         55.1515 bohr
 

     total cpu time spent up to now is      822.1 secs

     total energy              =   -7738.35137862 Ry
     estimated scf accuracy    <       0.02647718 Ry

     total magnetization       =    87.05 Bohr mag/cell
     absolute magnetization    =    88.67 Bohr mag/cell

     iteration # 50     ecut=    50.00 Ry     beta= 0.10
     Davidson diagonalization with overlap
     ethr =  2.42E-06,  avg # of iterations =  2.0

     negative rho (up, down):  1.229E-03 1.435E-03
 
     Adding external electric field

     Computed dipole along edir(3) : 
        Dipole               -0.0229 Ry au,         -0.0581 Debye
        Dipole field         -0.0000 Ry au, 
 
        Potential amp.        0.0015 Ry
        Total length         55.1515 bohr
 
 
     Adding external electric field

     Computed dipole along edir(3) : 
        Dipole               -0.0229 Ry au,         -0.0581 Debye
        Dipole field         -0.0000 Ry au, 
 
        Potential amp.        0.0015 Ry
        Total length         55.1515 bohr
 

     total cpu time spent up to now is      838.1 secs

     total energy              =   -7738.35138372 Ry
     estimated scf accuracy    <       0.02705403 Ry

     total magnetization       =    86.99 Bohr mag/cell
     absolute magnetization    =    88.52 Bohr mag/cell

     iteration # 51     ecut=    50.00 Ry     beta= 0.10
     Davidson diagonalization with overlap
     c_bands:  4 eigenvalues not converged
     ethr =  2.42E-06,  avg # of iterations = 10.5

     negative rho (up, down):  1.613E-03 1.786E-03
 
     Adding external electric field

     Computed dipole along edir(3) : 
        Dipole               -0.0391 Ry au,         -0.0994 Debye
        Dipole field         -0.0000 Ry au, 
 
        Potential amp.        0.0026 Ry
        Total length         55.1515 bohr
 
 
     Adding external electric field

     Computed dipole along edir(3) : 
        Dipole               -0.0391 Ry au,         -0.0994 Debye
        Dipole field         -0.0000 Ry au, 
 
        Potential amp.        0.0026 Ry
        Total length         55.1515 bohr
 

     total cpu time spent up to now is      858.1 secs

     total energy              =   -7738.35221117 Ry
     estimated scf accuracy    <       0.02546734 Ry

     total magnetization       =    87.04 Bohr mag/cell
     absolute magnetization    =    88.65 Bohr mag/cell

     iteration # 52     ecut=    50.00 Ry     beta= 0.10
     Davidson diagonalization with overlap
     c_bands:  1 eigenvalues not converged
     ethr =  2.33E-06,  avg # of iterations = 10.5

     negative rho (up, down):  1.787E-03 2.012E-03
 
     Adding external electric field

     Computed dipole along edir(3) : 
        Dipole                0.0269 Ry au,          0.0684 Debye
        Dipole field          0.0000 Ry au, 
 
        Potential amp.       -0.0018 Ry
        Total length         55.1515 bohr
 
 
     Adding external electric field

     Computed dipole along edir(3) : 
        Dipole                0.0269 Ry au,          0.0684 Debye
        Dipole field          0.0000 Ry au, 
 
        Potential amp.       -0.0018 Ry
        Total length         55.1515 bohr
 

     total cpu time spent up to now is      877.5 secs

     total energy              =   -7738.35170100 Ry
     estimated scf accuracy    <       0.02605117 Ry

     total magnetization       =    87.02 Bohr mag/cell
     absolute magnetization    =    88.61 Bohr mag/cell

     iteration # 53     ecut=    50.00 Ry     beta= 0.10
     Davidson diagonalization with overlap
     ethr =  2.33E-06,  avg # of iterations =  2.5

     negative rho (up, down):  1.013E-03 1.113E-03
 
     Adding external electric field

     Computed dipole along edir(3) : 
        Dipole               -0.0007 Ry au,         -0.0018 Debye
        Dipole field         -0.0000 Ry au, 
 
        Potential amp.        0.0000 Ry
        Total length         55.1515 bohr
 
 
     Adding external electric field

     Computed dipole along edir(3) : 
        Dipole               -0.0007 Ry au,         -0.0018 Debye
        Dipole field         -0.0000 Ry au, 
 
        Potential amp.        0.0000 Ry
        Total length         55.1515 bohr
 

     total cpu time spent up to now is      893.2 secs

     total energy              =   -7738.35200381 Ry
     estimated scf accuracy    <       0.02510845 Ry

     total magnetization       =    87.02 Bohr mag/cell
     absolute magnetization    =    88.61 Bohr mag/cell

     iteration # 54     ecut=    50.00 Ry     beta= 0.10
     Davidson diagonalization with overlap
     ethr =  2.30E-06,  avg # of iterations =  1.5

     negative rho (up, down):  9.058E-04 1.004E-03
 
     Adding external electric field

     Computed dipole along edir(3) : 
        Dipole               -0.0036 Ry au,         -0.0091 Debye
        Dipole field         -0.0000 Ry au, 
 
        Potential amp.        0.0002 Ry
        Total length         55.1515 bohr
 
 
     Adding external electric field

     Computed dipole along edir(3) : 
        Dipole               -0.0036 Ry au,         -0.0091 Debye
        Dipole field         -0.0000 Ry au, 
 
        Potential amp.        0.0002 Ry
        Total length         55.1515 bohr
 

     total cpu time spent up to now is      907.5 secs

     total energy              =   -7738.35200007 Ry
     estimated scf accuracy    <       0.02461125 Ry

     total magnetization       =    87.07 Bohr mag/cell
     absolute magnetization    =    88.65 Bohr mag/cell

     iteration # 55     ecut=    50.00 Ry     beta= 0.10
     Davidson diagonalization with overlap
     ethr =  2.25E-06,  avg # of iterations =  1.5

     negative rho (up, down):  5.918E-04 6.787E-04
 
     Adding external electric field

     Computed dipole along edir(3) : 
        Dipole               -0.0086 Ry au,         -0.0218 Debye
        Dipole field         -0.0000 Ry au, 
 
        Potential amp.        0.0006 Ry
        Total length         55.1515 bohr
 
 
     Adding external electric field

     Computed dipole along edir(3) : 
        Dipole               -0.0086 Ry au,         -0.0218 Debye
        Dipole field         -0.0000 Ry au, 
 
        Potential amp.        0.0006 Ry
        Total length         55.1515 bohr
 

     total cpu time spent up to now is      922.4 secs

     total energy              =   -7738.35170943 Ry
     estimated scf accuracy    <       0.02463484 Ry

     total magnetization       =    87.07 Bohr mag/cell
     absolute magnetization    =    88.66 Bohr mag/cell

     iteration # 56     ecut=    50.00 Ry     beta= 0.10
     Davidson diagonalization with overlap
     ethr =  2.25E-06,  avg # of iterations =  1.5

     negative rho (up, down):  1.791E-04 2.240E-04
 
     Adding external electric field

     Computed dipole along edir(3) : 
        Dipole                0.0153 Ry au,          0.0390 Debye
        Dipole field          0.0000 Ry au, 
 
        Potential amp.       -0.0010 Ry
        Total length         55.1515 bohr
 
 
     Adding external electric field

     Computed dipole along edir(3) : 
        Dipole                0.0153 Ry au,          0.0390 Debye
        Dipole field          0.0000 Ry au, 
 
        Potential amp.       -0.0010 Ry
        Total length         55.1515 bohr
 

     total cpu time spent up to now is      936.4 secs

     total energy              =   -7738.35111253 Ry
     estimated scf accuracy    <       0.02368310 Ry

     total magnetization       =    87.07 Bohr mag/cell
     absolute magnetization    =    88.70 Bohr mag/cell

     iteration # 57     ecut=    50.00 Ry     beta= 0.10
     Davidson diagonalization with overlap
     ethr =  2.17E-06,  avg # of iterations =  2.0

     negative rho (up, down):  4.087E-04 4.281E-04
 
     Adding external electric field

     Computed dipole along edir(3) : 
        Dipole                0.1144 Ry au,          0.2908 Debye
        Dipole field          0.0001 Ry au, 
 
        Potential amp.       -0.0077 Ry
        Total length         55.1515 bohr
 
 
     Adding external electric field

     Computed dipole along edir(3) : 
        Dipole                0.1144 Ry au,          0.2908 Debye
        Dipole field          0.0001 Ry au, 
 
        Potential amp.       -0.0077 Ry
        Total length         55.1515 bohr
 

     total cpu time spent up to now is      950.8 secs

     total energy              =   -7738.35052928 Ry
     estimated scf accuracy    <       0.01968892 Ry

     total magnetization       =    87.07 Bohr mag/cell
     absolute magnetization    =    88.74 Bohr mag/cell

     iteration # 58     ecut=    50.00 Ry     beta= 0.10
     Davidson diagonalization with overlap
     ethr =  1.80E-06,  avg # of iterations =  2.0

     negative rho (up, down):  4.430E-04 4.918E-04
 
     Adding external electric field

[...]
    -5.9676  -5.9444  -5.9219  -5.9175  -5.9021  -5.8786  -5.8748  -5.8440
    -5.8156  -5.8122  -5.7955  -5.7702  -5.7460  -5.7387  -5.7006  -5.6951
    -5.6873  -5.6540  -5.6119  -5.5887  -5.5791  -5.5446  -5.5272  -5.5073
    -5.4981  -5.4899  -5.4706  -5.4607  -5.4231  -5.4142  -5.3924  -5.3693
    -5.3005  -5.2385  -5.2299  -5.2059  -5.1943  -5.1823  -5.1512  -5.1049
    -5.0405  -5.0299  -5.0028  -4.9650  -4.9532  -4.9378  -4.9200  -4.8668
    -4.8221  -4.7703  -4.7642  -4.7549  -4.7441  -4.7044  -4.6724  -4.6633
    -4.5777  -4.5422  -4.4973  -4.4887  -4.4314  -4.4237  -4.3969  -4.3759
    -4.3665  -4.3398  -4.2236  -4.2141  -4.1881  -4.1639  -4.1364  -4.1085
    -4.0972  -4.0897  -4.0699  -3.9976  -3.9723  -3.9500  -3.9300  -3.9148
    -3.8670  -3.8300  -3.8242  -3.8001  -3.7941  -3.7663  -3.7344  -3.6966
    -3.6755  -3.6424  -3.6213  -3.6134  -3.6102  -3.5888  -3.5884  -3.5695
    -3.5378  -3.5192  -3.5084  -3.4862  -3.4818  -3.4643  -3.4526  -3.4219
    -3.4028  -3.3947  -3.3798  -3.3629  -3.3390  -3.3042  -3.2876  -3.2630
    -3.2366  -3.2353  -3.2160  -3.2056  -3.1933  -3.1465  -3.1259  -3.0995
    -3.0520  -3.0482  -3.0398  -3.0314  -3.0298  -3.0226  -3.0148  -2.9735
    -2.9434  -2.9372  -2.9282  -2.8791  -2.8686  -2.8648  -2.8105  -2.7939
    -2.7687  -2.7666  -2.7574  -2.7545  -2.7338  -2.7291  -2.7088  -2.7030
    -2.6876  -2.6649  -2.6570  -2.6282  -2.6242  -2.6102  -2.6042  -2.5956
    -2.5926  -2.5741  -2.5574  -2.5391  -2.5247  -2.5193  -2.4785  -2.4716
    -2.4502  -2.4409  -2.4194  -2.3923  -2.3590  -2.3522  -2.3318  -2.2991
    -2.2783  -2.2684  -2.2483  -2.2188  -2.2024  -2.1795  -2.1635  -2.1344
    -2.1263  -2.1187  -2.1109  -2.1018  -2.0745  -2.0633  -2.0219  -1.9932
    -1.9755  -1.9616  -1.9488  -1.9305  -1.9150  -1.9085  -1.8917  -1.8621
    -1.8523  -1.8359  -1.8156  -1.8078  -1.8014  -1.7860  -1.7711  -1.7638
    -1.7455  -1.7182  -1.7005  -1.6403  -1.6366  -1.6287  -1.5785  -1.5661
    -1.5609  -1.5314  -1.5094  -1.4991  -1.4890  -1.4805  -1.4479  -1.4331
    -1.4186  -1.4071  -1.3969  -1.3792  -1.3529  -1.3344  -1.3222  -1.3136
    -1.2712  -1.2599  -1.2408  -1.2094  -1.1871  -1.1415  -1.1185  -1.0771
    -1.0101  -0.9054  -0.8861  -0.8689  -0.8480  -0.7225  -0.7144  -0.5274
    -0.4794  -0.3155  -0.2690  -0.1369   0.1824   0.2132   0.2304   0.2471
     0.2531   0.2690   0.2958   0.3079   0.3299   0.3331   0.3530   0.3643
     0.3701   0.3759   0.3924   0.4062   0.4156   0.4169   0.4195   0.4253
     0.4297   0.4334   0.4492   0.4564   0.4590   0.4645   0.4772   0.4921
     0.4953   0.5033   0.5075   0.5154   0.5242   0.5351   0.5352   0.5423
     0.5627   0.5687   0.5774   0.5780   0.5848   0.5976   0.6005   0.6146
     0.6243   0.6258   0.6426   0.6448   0.6488   0.6527   0.6764   0.6801
     0.6838   0.6921   0.6978   0.7075   0.7135   0.7338   0.7382   0.7505
     0.7584   0.7618   0.7637   0.7743   0.7954   0.7981   0.8064   0.8117
     0.8205   0.8222   0.8308   0.8411   0.8528   0.8606   0.8708   0.8710
     0.8810   0.8928   0.9280   0.9387   0.9535   0.9558   0.9595   0.9852
     1.0007   1.0139   1.0990   1.1014   1.2001   1.2222   1.7487   1.7537
     1.7606   1.7737   1.7804   1.7888   1.8068   1.8213   1.8271   1.9060
     1.9216   1.9374   1.9672   1.9844   2.0252   2.0322   2.0469   2.1032
     2.1227   2.1356   2.1480   2.1497   2.1903   2.1958   2.2208   2.2318
     2.2462   2.2589   2.2865   2.2940   2.3046   2.3427   2.3565   2.3634
     2.3754   2.3904   2.3981   2.4171   2.4328   2.4496   2.4576   2.4779
     2.4880   2.5077   2.5102   2.5286   2.5372   2.5576   2.5885   2.6127
     2.6229   2.6368   2.6398   2.6965   2.7774   2.7954   2.8434   2.8630
     2.8916   2.9102   3.3094   3.5122   3.6360   3.6974   3.7687   3.8606
     3.9060   3.9288   3.9318   3.9576   4.0007   4.0700   4.0781   4.0903
     4.1128   4.1435   4.1515   4.1689   4.1855   4.4110   4.4927   4.6400
     4.8337   4.8819   4.9140   4.9380   4.9697   5.0331   5.0496   5.1062
     5.1279   5.1662   5.3950   6.2688   6.3606   6.4974   6.6026   6.6845
     6.7535   6.8340   6.8574   6.9082   6.9625   7.0463   7.0910   7.1831
     7.2453   7.3249   7.3544   7.3998   7.4720   7.5208   7.6177   7.6645
     7.6947   7.7037   7.7437   7.7772   7.8531   7.8628   7.9000   7.9485
     7.9860   8.0094   8.0581   8.0806   8.1176   8.1748   8.2052   8.2197
     8.2231   8.2767   8.3148   8.3352   8.3892   8.4128   8.4243   8.4412
     8.4534   8.4769   8.5082   8.5198   8.5448   8.5677   8.6083   8.6302
     8.6593   8.6923   8.6986   8.7296   8.7469   8.7852   8.8250   8.8674

     the Fermi energy is     1.6625 ev

!    total energy              =   -7738.34975239 Ry
     estimated scf accuracy    <       0.00000060 Ry
     smearing contrib. (-TS)   =      -0.02171834 Ry
     internal energy E=F+TS    =   -7738.32803405 Ry

     The total energy is F=E-TS. E is the sum of the following terms:
     one-electron contribution =  -95225.50062974 Ry
     hartree contribution      =   48228.77711807 Ry
     xc contribution           =   -2218.73123299 Ry
     ewald contribution        =   41478.93653031 Ry
     Dispersion Correction     =      -1.80992684 Ry
     electric field correction =       0.00010715 Ry

     total magnetization       =    86.98 Bohr mag/cell
     absolute magnetization    =    88.48 Bohr mag/cell

     convergence has been achieved in  93 iterations

     negative rho (up, down):  1.049E-03 5.970E-04

     Forces acting on atoms (cartesian axes, Ry/au):

     atom    1 type  1   force =     0.02520327   -0.03100932    0.01846640
     atom    2 type  2   force =    -0.01378894   -0.00169159   -0.00969462
     atom    3 type  1   force =    -0.02321270   -0.01846641    0.01992341
     atom    4 type  1   force =     0.00573678    0.00427683   -0.00612991
     atom    5 type  1   force =    -0.00191594    0.00123083   -0.00514710
     atom    6 type  1   force =     0.00210448    0.00766560   -0.00882250
     atom    7 type  3   force =    -0.00770347    0.00119441   -0.01047832
     atom    8 type  3   force =    -0.03501614    0.05415584   -0.08330437
     atom    9 type  3   force =     0.03414407    0.03817132   -0.06432168
     atom   10 type  3   force =    -0.00304260   -0.00245513   -0.01168878
     atom   11 type  4   force =     0.00666500    0.00550765    0.01390764
     atom   12 type  4   force =    -0.00027485   -0.00291542    0.01486812
     atom   13 type  4   force =     0.00197432    0.00175330    0.01744548
     atom   14 type  4   force =    -0.00049147   -0.00131192    0.01272075
     atom   15 type  4   force =    -0.00067575    0.00455775   -0.00193811
     atom   16 type  4   force =    -0.00046230    0.00269781    0.04014343
     atom   17 type  4   force =     0.00174360    0.00816420    0.03763797
     atom   18 type  4   force =     0.00796431   -0.00447101   -0.00045483
     atom   19 type  4   force =     0.00045259    0.01187118    0.00430316
     atom   20 type  4   force =    -0.00960233   -0.02687046   -0.00370285
     atom   21 type  4   force =    -0.01112267   -0.00043711    0.00069047
     atom   22 type  4   force =    -0.03218362    0.00310912    0.00784790
     atom   23 type  4   force =     0.03215381    0.00058082    0.01408738
     atom   24 type  4   force =     0.00698529   -0.03703640    0.00377196
     atom   25 type  4   force =    -0.00316033    0.00176147    0.00399137
     atom   26 type  4   force =     0.01785920   -0.00686271    0.00082208
     atom   27 type  1   force =    -0.00527204   -0.00879762    0.00294408
     atom   28 type  2   force =    -0.01350535    0.00009841    0.00466502
     atom   29 type  1   force =     0.00299926   -0.00506666   -0.00121703
     atom   30 type  1   force =     0.00258629    0.00388992   -0.00129826
     atom   31 type  1   force =     0.00139615   -0.00460803    0.00027830
     atom   32 type  1   force =    -0.00098013    0.00124810   -0.00149107
     atom   33 type  3   force =    -0.00689305   -0.00334544   -0.00085725
     atom   34 type  3   force =    -0.00810605    0.00270845   -0.00024375
     atom   35 type  3   force =     0.00442213   -0.00069722    0.00263952
     atom   36 type  3   force =     0.00061586    0.00040483   -0.00507570
     atom   37 type  4   force =     0.00881021    0.00554102    0.00731062
     atom   38 type  4   force =     0.00384799   -0.00094709   -0.01942911
     atom   39 type  4   force =    -0.00152688    0.00363513   -0.00979461
     atom   40 type  4   force =    -0.00135476   -0.00263024    0.00962319
     atom   41 type  4   force =    -0.00294852    0.00420192   -0.00725322
     atom   42 type  4   force =    -0.00422491   -0.00455822    0.01791411
     atom   43 type  4   force =     0.00767540    0.00336768    0.00782881
     atom   44 type  4   force =     0.01027315   -0.00551872   -0.00606987
     atom   45 type  4   force =     0.00305013    0.00354248   -0.00019566
     atom   46 type  4   force =     0.00239067   -0.00002387   -0.00554286
     atom   47 type  4   force =    -0.01263821   -0.00078661   -0.00334895
     atom   48 type  4   force =    -0.01460659    0.00128034    0.00343401
     atom   49 type  4   force =     0.01345480    0.00250730    0.00436355
     atom   50 type  4   force =    -0.00267368   -0.00494012   -0.00042916
     atom   51 type  4   force =    -0.00555129    0.00198768    0.00000679
     atom   52 type  4   force =     0.01558166   -0.00357092   -0.00453249
     atom   53 type  1   force =     0.00030646    0.00002939    0.00028391
     atom   54 type  2   force =    -0.00095983   -0.00013174   -0.00000947
     atom   55 type  1   force =    -0.00021996   -0.00010763   -0.00008199
     atom   56 type  1   force =    -0.00010029    0.00001507   -0.00062514
     atom   57 type  1   force =     0.00015566   -0.00037029    0.00045733
     atom   58 type  1   force =    -0.00003245    0.00014822    0.00036537
     atom   59 type  3   force =    -0.00000143   -0.00013699    0.00012521
     atom   60 type  3   force =     0.00019967   -0.00019545    0.00012496
     atom   61 type  3   force =     0.00000712    0.00011716    0.00008718
     atom   62 type  3   force =     0.00017409   -0.00022814    0.00014789
     atom   63 type  4   force =     0.00006870    0.00032427   -0.00006169
     atom   64 type  4   force =     0.00012502    0.00003190   -0.00017261
     atom   65 type  4   force =     0.00000380   -0.00016996    0.00026347
     atom   66 type  4   force =     0.00010425   -0.00005228   -0.00005272
     atom   67 type  4   force =     0.00052363    0.00022106   -0.00001314
     atom   68 type  4   force =     0.00000720    0.00014082    0.00052416
     atom   69 type  4   force =    -0.00010017   -0.00056234    0.00011936
     atom   70 type  4   force =     0.00010283   -0.00008368    0.00008975
     atom   71 type  4   force =     0.00027565   -0.00044581   -0.00013270
     atom   72 type  4   force =     0.00030505   -0.00017639    0.00012083
     atom   73 type  4   force =     0.00033577   -0.00064748   -0.00017577
     atom   74 type  4   force =     0.00037123   -0.00016883   -0.00008455
     atom   75 type  4   force =    -0.00004301   -0.00015276   -0.00034632
     atom   76 type  4   force =     0.00051084   -0.00010827   -0.00026483
     atom   77 type  4   force =    -0.00037688   -0.00022923    0.00015292
     atom   78 type  4   force =    -0.00007640    0.00002247   -0.00017582
     atom   79 type  1   force =     0.02517433   -0.03100191    0.01845748
     atom   80 type  2   force =    -0.01366779   -0.00163518   -0.00973696
     atom   81 type  1   force =    -0.02320528   -0.01847066    0.01992549
     atom   82 type  1   force =     0.00572318    0.00427596   -0.00614318
     atom   83 type  1   force =    -0.00191477    0.00124206   -0.00515845
     atom   84 type  1   force =     0.00207278    0.00765738   -0.00881496
     atom   85 type  3   force =    -0.00768821    0.00122832   -0.01053541
     atom   86 type  3   force =    -0.03501551    0.05415587   -0.08331377
     atom   87 type  3   force =     0.03415075    0.03817223   -0.06432386
     atom   88 type  3   force =    -0.00305692   -0.00245405   -0.01169425
     atom   89 type  4   force =     0.00679938    0.00552473    0.01391926
     atom   90 type  4   force =    -0.00018927   -0.00282351    0.01486801
     atom   91 type  4   force =     0.00206417    0.00174692    0.01741927
     atom   92 type  4   force =    -0.00032921   -0.00130049    0.01272782
     atom   93 type  4   force =    -0.00067286    0.00476071   -0.00179641
     atom   94 type  4   force =    -0.00052257    0.00265228    0.03993855
     atom   95 type  4   force =     0.00187328    0.00816560    0.03763829
     atom   96 type  4   force =     0.00776417   -0.00448499   -0.00046241
     atom   97 type  4   force =     0.00054739    0.01194857    0.00419423
     atom   98 type  4   force =    -0.00949886   -0.02670286   -0.00367133
     atom   99 type  4   force =    -0.01114774   -0.00040036    0.00088935
     atom  100 type  4   force =    -0.03221394    0.00300336    0.00772375
     atom  101 type  4   force =     0.03217612    0.00058520    0.01409406
     atom  102 type  4   force =     0.00680489   -0.03704061    0.00377615
     atom  103 type  4   force =    -0.00306986    0.00169922    0.00397334
     atom  104 type  4   force =     0.01795980   -0.00685702    0.00083080
     atom  105 type  1   force =    -0.00512556   -0.00889052    0.00297254
     atom  106 type  2   force =    -0.01320029   -0.00034005    0.00461016
     atom  107 type  1   force =     0.00296285   -0.00505682   -0.00124663
     atom  108 type  1   force =     0.00256209    0.00465782   -0.00189801
     atom  109 type  1   force =     0.00153838   -0.00467563    0.00038736
     atom  110 type  1   force =    -0.00068674    0.00123916   -0.00153973
     atom  111 type  3   force =    -0.00665166   -0.00309288   -0.00166003
     atom  112 type  3   force =    -0.00786015    0.00256897   -0.00006772
     atom  113 type  3   force =     0.00443195   -0.00060980    0.00263459
     atom  114 type  3   force =     0.00060676   -0.00037025   -0.00557407
     atom  115 type  4   force =     0.00855657    0.00520721    0.00720713
     atom  116 type  4   force =     0.00382608   -0.00092348   -0.01942824
     atom  117 type  4   force =    -0.00142287    0.00363629   -0.00983374
     atom  118 type  4   force =    -0.00149928   -0.00267387    0.00974132
     atom  119 type  4   force =    -0.00208030    0.00521653   -0.00762909
     atom  120 type  4   force =    -0.00435137   -0.00448539    0.01797808
     atom  121 type  4   force =     0.00769656    0.00333562    0.00787543
     atom  122 type  4   force =     0.01014698   -0.00561330   -0.00672260
     atom  123 type  4   force =     0.00255051    0.00383077    0.00063445
     atom  124 type  4   force =     0.00221843   -0.00012004   -0.00557266
     atom  125 type  4   force =    -0.01254443   -0.00073328   -0.00341780
     atom  126 type  4   force =    -0.01466332    0.00126342    0.00345712
     atom  127 type  4   force =     0.01359348    0.00245120    0.00456389
     atom  128 type  4   force =    -0.00284715   -0.00492752   -0.00046288
     atom  129 type  4   force =    -0.00529346    0.00188946    0.00027015
     atom  130 type  4   force =     0.01544950   -0.00351374   -0.00462794
     atom  131 type  1   force =     0.00030203    0.00054106    0.00067843
     atom  132 type  2   force =    -0.00075834   -0.00014535    0.00050302
     atom  133 type  1   force =    -0.00010620    0.00022341   -0.00004420
     atom  134 type  1   force =    -0.00013813    0.00008116    0.00020224
     atom  135 type  1   force =     0.00025326   -0.00015798    0.00033669
     atom  136 type  1   force =    -0.00050916   -0.00003793    0.00012594
     atom  137 type  3   force =     0.00013338    0.00016874   -0.00057481
     atom  138 type  3   force =     0.00007009   -0.00011544   -0.00014642
     atom  139 type  3   force =     0.00021377   -0.00015375    0.00012241
     atom  140 type  3   force =     0.00021418   -0.00022018    0.00007914
     atom  141 type  4   force =    -0.00021322   -0.00012748    0.00009565
     atom  142 type  4   force =    -0.00001198   -0.00025365   -0.00022677
     atom  143 type  4   force =     0.00045468   -0.00016261   -0.00007815
     atom  144 type  4   force =    -0.00020198    0.00026699   -0.00008683
     atom  145 type  4   force =     0.00068220   -0.00010894    0.00060773
     atom  146 type  4   force =     0.00014417    0.00018959    0.00036067
     atom  147 type  4   force =     0.00033312   -0.00013678   -0.00051972
     atom  148 type  4   force =     0.00029108    0.00043165    0.00033094
     atom  149 type  4   force =     0.00004723   -0.00036724    0.00037368
     atom  150 type  4   force =    -0.00010604    0.00038100    0.00006856
     atom  151 type  4   force =     0.00028585   -0.00043550   -0.00010974
     atom  152 type  4   force =     0.00034033   -0.00041388   -0.00018690
     atom  153 type  4   force =     0.00011128    0.00028283    0.00037132
     atom  154 type  4   force =     0.00002552   -0.00031854    0.00024192
     atom  155 type  4   force =    -0.00006365   -0.00070843    0.00051054
     atom  156 type  4   force =    -0.00012881   -0.00075669   -0.00055679
     atom  157 type  4   force =    -0.01127332    0.00592939    0.00249468
     atom  158 type  5   force =     0.01195519   -0.00596837   -0.00218813

     Total force =     0.263426     Total SCF correction =     0.003018
 
     init_run     :      8.77s CPU      9.57s WALL (       1 calls)
     electrons    :   1462.88s CPU   1537.40s WALL (       1 calls)
     forces       :      5.22s CPU      5.88s WALL (       1 calls)
     force_london :      0.13s CPU      0.13s WALL (       1 calls)

     Called by init_run:
     wfcinit      :      5.41s CPU      5.66s WALL (       1 calls)
     potinit      :      0.54s CPU      0.74s WALL (       1 calls)
     hinit0       :      1.51s CPU      1.62s WALL (       1 calls)

     Called by electrons:
     c_bands      :   1156.85s CPU   1196.08s WALL (      93 calls)
     sum_band     :    193.96s CPU    212.71s WALL (      93 calls)
     v_of_rho     :     25.20s CPU     26.44s WALL (      94 calls)
     newd         :     55.35s CPU     70.48s WALL (      94 calls)
     mix_rho      :     30.00s CPU     30.34s WALL (      93 calls)
     energy_londo :      0.11s CPU      0.11s WALL (       1 calls)

     Called by c_bands:
     init_us_2    :      3.32s CPU      3.43s WALL (     376 calls)
     init_us_2:cp :      3.32s CPU      3.43s WALL (     376 calls)
     regterg      :   1131.22s CPU   1170.08s WALL (     188 calls)

     Called by *egterg:
     rdiaghg      :    334.33s CPU    353.84s WALL (     817 calls)
     h_psi        :    444.45s CPU    452.58s WALL (     819 calls)
     s_psi        :     81.98s CPU     82.07s WALL (     819 calls)
     g_psi        :      0.61s CPU      0.62s WALL (     629 calls)

     Called by h_psi:
     h_psi:calbec :    107.83s CPU    114.62s WALL (     819 calls)
     vloc_psi     :    253.73s CPU    254.91s WALL (     819 calls)
     add_vuspsi   :     81.89s CPU     82.04s WALL (     819 calls)

     General routines
     calbec       :    159.66s CPU    169.83s WALL (    1013 calls)
     fft          :     23.80s CPU     25.80s WALL (    1705 calls)
     ffts         :     18.37s CPU     18.42s WALL (   11597 calls)
     fftw         :    286.17s CPU    287.46s WALL (  315460 calls)
     interpolate  :      1.90s CPU      2.02s WALL (     188 calls)
 
     Parallel routines
 
     PWSCF        :  24m39.01s CPU  25m55.30s WALL

 
   This run was terminated on:   0:51:33  18Nov2025            

=------------------------------------------------------------------------------=
   JOB DONE.
=------------------------------------------------------------------------------=
