
     Program PWSCF v.7.2 starts on 19Nov2025 at 19:37:50 

     This program is part of the open-source Quantum ESPRESSO suite
     for quantum simulation of materials; please cite
         "P. Giannozzi et al., J. Phys.:Condens. Matter 21 395502 (2009);
         "P. Giannozzi et al., J. Phys.:Condens. Matter 29 465901 (2017);
         "P. Giannozzi et al., J. Chem. Phys. 152 154105 (2020);
          URL http://www.quantum-espresso.org", 
     in publications or presentations arising from this work. More details at
     http://www.quantum-espresso.org/quote

     Parallel version (MPI), running on    64 processors

     MPI processes distributed on     4 nodes
     365363 MiB available memory on the printing compute node when the environment starts
 
     Reading input from PWINPUT_atm157_xm

     Current dimensions of program PWSCF are:
     Max number of different atomic species (ntypx) = 10
     Max number of k-points (npk) =  40000
     Max angular momentum in pseudopotentials (lmaxx) =  4
     Presently no symmetry can be used with electric field

     file Ni.pbe-n-rrkjus_psl.1.0.0.UPF: wavefunction(s)  3D renormalized
     file Mn.pbe-spn-rrkjus_psl.0.3.1.UPF: wavefunction(s)  3D renormalized
     file O.pbe-rrkjus.UPF: wavefunction(s)  2S renormalized
     file H.pbe-rrkjus.UPF: wavefunction(s)  1S renormalized

     gamma-point specific algorithms are used
 
     R & G space division:  proc/nbgrp/npool/nimage =      64
     Subspace diagonalization in iterative solution of the eigenvalue problem:
     one sub-group per band group will be used
     custom distributed-memory algorithm (size of sub-group:  6*  6 procs)

 
     Parallelization info
     --------------------
     sticks:   dense  smooth     PW     G-vecs:    dense   smooth      PW
     Min         208      82     20                59912    15118    1876
     Max         210      84     22                59974    15196    1926
     Sum       13399    5355   1345              3836275   970529  121367
 
     Using Slab Decomposition
 


     bravais-lattice index     =            0
     lattice parameter (alat)  =      17.7004  a.u.
     unit-cell volume          =   20319.7251 (a.u.)^3
     number of atoms/cell      =          158
     number of atomic types    =            5
     number of electrons       =      1078.00
     number of Kohn-Sham states=          647
     kinetic-energy cutoff     =      50.0000  Ry
     charge density cutoff     =     500.0000  Ry
     scf convergence threshold =      1.0E-06
     mixing beta               =       0.1000
     number of iterations used =            8  local-TF  mixing
     Exchange-correlation=  SLA  PW   PBE  PBE
                           (   1   4   3   4   0   0   0)

     celldm(1)=  17.700384  celldm(2)=   0.000000  celldm(3)=   0.000000
     celldm(4)=   0.000000  celldm(5)=   0.000000  celldm(6)=   0.000000

     crystal axes: (cart. coord. in units of alat)
               a(1) = (   1.000000   0.000000   0.000000 )  
               a(2) = (   0.000000   1.075730   0.000000 )  
               a(3) = (   0.000000   0.000000   3.406172 )  

     reciprocal axes: (cart. coord. in units 2 pi/alat)
               b(1) = (  1.000000  0.000000  0.000000 )  
               b(2) = (  0.000000  0.929602  0.000000 )  
               b(3) = (  0.000000  0.000000  0.293585 )  


     PseudoPot. # 1 for Ni read from file:
     ~/PSEUDO/Ni.pbe-n-rrkjus_psl.1.0.0.UPF
     MD5 check sum: Not computed, couldn't open file
     Pseudo is Ultrasoft + core correction, Zval = 10.0
     Generated using "atomic" code by A. Dal Corso  v.5.1.2
     Using radial grid of 1195 points,  6 beta functions with: 
                l(1) =   0
                l(2) =   0
                l(3) =   1
                l(4) =   1
                l(5) =   2
                l(6) =   2
     Q(r) pseudized with 0 coefficients 


     PseudoPot. # 2 for Mn read from file:
     ~/PSEUDO/Mn.pbe-spn-rrkjus_psl.0.3.1.UPF
     MD5 check sum: Not computed, couldn't open file
     Pseudo is Ultrasoft + core correction, Zval = 15.0
     Generated using &quot;atomic&quot; code by A. Dal Corso  v.6.2.2
     Using radial grid of 1187 points,  6 beta functions with: 
                l(1) =   0
                l(2) =   0
                l(3) =   1
                l(4) =   1
                l(5) =   2
                l(6) =   2
     Q(r) pseudized with 0 coefficients 


     PseudoPot. # 3 for P  read from file:
     ~/PSEUDO/P.pbe-n-rrkjus_psl.1.0.0.UPF
     MD5 check sum: Not computed, couldn't open file
     Pseudo is Ultrasoft + core correction, Zval =  5.0
     Generated using "atomic" code by A. Dal Corso  v.5.1
     Using radial grid of 1147 points,  6 beta functions with: 
                l(1) =   0
                l(2) =   0
                l(3) =   1
                l(4) =   1
                l(5) =   2
                l(6) =   2
     Q(r) pseudized with 0 coefficients 


     PseudoPot. # 4 for O  read from file:
     ~/PSEUDO/O.pbe-rrkjus.UPF
     MD5 check sum: Not computed, couldn't open file
     Pseudo is Ultrasoft, Zval =  6.0
     Generated by new atomic code, or converted to UPF format
     Using radial grid of 1269 points,  4 beta functions with: 
                l(1) =   0
                l(2) =   0
                l(3) =   1
                l(4) =   1
     Q(r) pseudized with 0 coefficients 


     PseudoPot. # 5 for H  read from file:
     ~/PSEUDO/H.pbe-rrkjus.UPF
     MD5 check sum: Not computed, couldn't open file
     Pseudo is Ultrasoft, Zval =  1.0
     Generated by new atomic code, or converted to UPF format
     Using radial grid of 1061 points,  2 beta functions with: 
                l(1) =   0
                l(2) =   0
     Q(r) pseudized with 0 coefficients 


     atomic species   valence    mass     pseudopotential
     Ni               10.00    58.69300     Ni( 1.00)
     Mn               15.00    54.93800     Mn( 1.00)
     P                 5.00    30.97300     P ( 1.00)
     O                 6.00    15.99900     O ( 1.00)
     H                 1.00     1.00790     H ( 1.00)

     Starting magnetic structure 
     atomic species   magnetization
     Ni              1.000
     Mn              1.000
     P               1.000
     O               1.000
     H               0.000

     No symmetry found



   Cartesian axes

     site n.     atom                  positions (alat units)
         1        Mn     tau(   1) = (   0.2404744   0.8371250   0.1168501  )
         2        Ni     tau(   2) = (   0.4968126   0.7726670   0.4415546  )
         3        Ni     tau(   3) = (   0.0066150   0.2936743   0.1241053  )
         4        Ni     tau(   4) = (   0.2585722   0.2355858   0.4448848  )
         5        Ni     tau(   5) = (   0.9987350   1.0696411   0.2854926  )
         6        Ni     tau(   6) = (   0.2517397   0.5330511   0.2829322  )
         7        Ni     tau(   7) = (   0.7451645   0.8337543   0.1221751  )
         8        Ni     tau(   8) = (   0.9939181   0.7738804   0.4407595  )
         9        Ni     tau(   9) = (   0.5111533   0.2924088   0.1251865  )
        10        Ni     tau(  10) = (   0.7606326   0.2319267   0.4451372  )
        11        Ni     tau(  11) = (   0.5024065   1.0688133   0.2870502  )
        12        Ni     tau(  12) = (   0.7529977   0.5317900   0.2845227  )
        13        P      tau(  13) = (   0.2092944   0.9731097   0.4345035  )
        14        P      tau(  14) = (   0.4655727   0.6359535   0.1274635  )
        15        P      tau(  15) = (   0.2910699   0.1027363   0.1296098  )
        16        P      tau(  16) = (   0.0396216   0.4288395   0.4398838  )
        17        O      tau(  17) = (   0.1294378   0.9013260   0.3010618  )
        18        O      tau(  18) = (   0.3874505   0.7054774   0.2637003  )
        19        O      tau(  19) = (   0.3702540   0.1714799   0.2660028  )
        20        O      tau(  20) = (   0.1184398   0.3582958   0.3038353  )
        21        O      tau(  21) = (   0.1451572   0.8850881   0.5587578  )
        22        O      tau(  22) = (   0.4048762   0.7245585   0.0017492  )
        23        O      tau(  23) = (   0.3523506   0.1900579   0.0035744  )
        24        O      tau(  24) = (   0.1017610   0.3410484   0.5656572  )
        25        O      tau(  25) = (   0.0975396   0.5849288   0.4357922  )
        26        O      tau(  26) = (   0.3483552   1.0314945   0.1270322  )
        27        O      tau(  27) = (   0.3784305   0.4225118   0.4308928  )
        28        O      tau(  28) = (   0.1268237   0.1067944   0.1392744  )
        29        O      tau(  29) = (   0.1212267   0.6424170   0.1362896  )
        30        O      tau(  30) = (   0.4053315   0.4809387   0.1300622  )
        31        O      tau(  31) = (   0.1536621   0.0446918   0.4373386  )
        32        O      tau(  32) = (   0.3732349   0.9631717   0.4256642  )
        33        P      tau(  33) = (   0.7119823   0.9695974   0.4373010  )
        34        P      tau(  34) = (   0.9615208   0.6363392   0.1262932  )
        35        P      tau(  35) = (   0.7927710   0.0970060   0.1292164  )
        36        P      tau(  36) = (   0.5426404   0.4269675   0.4410738  )
        37        O      tau(  37) = (   0.6326879   0.8991182   0.3013240  )
        38        O      tau(  38) = (   0.8842163   0.7083206   0.2625155  )
        39        O      tau(  39) = (   0.8716178   0.1677751   0.2653504  )
        40        O      tau(  40) = (   0.6212010   0.3558666   0.3051085  )
        41        O      tau(  41) = (   0.6507714   0.8812342   0.5631722  )
        42        O      tau(  42) = (   0.9014054   0.7264458   0.0010676  )
        43        O      tau(  43) = (   0.8548963   0.1847909   0.0035471  )
        44        O      tau(  44) = (   0.6044469   0.3378706   0.5660366  )
        45        O      tau(  45) = (   0.6024424   0.5823140   0.4379016  )
        46        O      tau(  46) = (   0.8498940   1.0254482   0.1275156  )
        47        O      tau(  47) = (   0.8798395   0.4205825   0.4305771  )
        48        O      tau(  48) = (   0.6286921   0.1034636   0.1397346  )
        49        O      tau(  49) = (   0.6294973   0.6427753   0.1372553  )
        50        O      tau(  50) = (   0.9024339   0.4810312   0.1296418  )
        51        O      tau(  51) = (   0.6547812   0.0410987   0.4396636  )
        52        O      tau(  52) = (   0.8760507   0.9632605   0.4264507  )
        53        Mn     tau(  53) = (   0.2404744   0.8246335   0.7367378  )
        54        Ni     tau(  54) = (   0.4968126   0.7601755   1.0614423  )
        55        Ni     tau(  55) = (   0.0066150   0.2811828   0.7439929  )
        56        Ni     tau(  56) = (   0.2585722   0.2230943   1.0647725  )
        57        Ni     tau(  57) = (   0.9987350   1.0571496   0.9053803  )
        58        Ni     tau(  58) = (   0.2517397   0.5205596   0.9028199  )
        59        Ni     tau(  59) = (   0.7451645   0.8212628   0.7420628  )
        60        Ni     tau(  60) = (   0.9939181   0.7613889   1.0606471  )
        61        Ni     tau(  61) = (   0.5111533   0.2799173   0.7450742  )
        62        Ni     tau(  62) = (   0.7606326   0.2194352   1.0650249  )
        63        Ni     tau(  63) = (   0.5024065   1.0563218   0.9069379  )
        64        Ni     tau(  64) = (   0.7529977   0.5192985   0.9044104  )
        65        P      tau(  65) = (   0.2092944   0.9606182   1.0543912  )
        66        P      tau(  66) = (   0.4655727   0.6234620   0.7473512  )
        67        P      tau(  67) = (   0.2910699   0.0902448   0.7494974  )
        68        P      tau(  68) = (   0.0396216   0.4163480   1.0597715  )
        69        O      tau(  69) = (   0.1294378   0.8888345   0.9209495  )
        70        O      tau(  70) = (   0.3874505   0.6929859   0.8835880  )
        71        O      tau(  71) = (   0.3702540   0.1589885   0.8858904  )
        72        O      tau(  72) = (   0.1184398   0.3458043   0.9237230  )
        73        O      tau(  73) = (   0.1451572   0.8725966   1.1786454  )
        74        O      tau(  74) = (   0.4048762   0.7120670   0.6216369  )
        75        O      tau(  75) = (   0.3523506   0.1775664   0.6234620  )
        76        O      tau(  76) = (   0.1017610   0.3285569   1.1855448  )
        77        O      tau(  77) = (   0.0975396   0.5724373   1.0556799  )
        78        O      tau(  78) = (   0.3483552   1.0190030   0.7469198  )
        79        O      tau(  79) = (   0.3784305   0.4100203   1.0507804  )
        80        O      tau(  80) = (   0.1268237   0.0943029   0.7591620  )
        81        O      tau(  81) = (   0.1212267   0.6299255   0.7561772  )
        82        O      tau(  82) = (   0.4053315   0.4684472   0.7499499  )
        83        O      tau(  83) = (   0.1536621   0.0322003   1.0572263  )
        84        O      tau(  84) = (   0.3732349   0.9506802   1.0455518  )
        85        P      tau(  85) = (   0.7119823   0.9571059   1.0571887  )
        86        P      tau(  86) = (   0.9615208   0.6238477   0.7461808  )
        87        P      tau(  87) = (   0.7927710   0.0845145   0.7491041  )
        88        P      tau(  88) = (   0.5426404   0.4144760   1.0609615  )
        89        O      tau(  89) = (   0.6326879   0.8866267   0.9212117  )
        90        O      tau(  90) = (   0.8842163   0.6958291   0.8824032  )
        91        O      tau(  91) = (   0.8716178   0.1552836   0.8852381  )
        92        O      tau(  92) = (   0.6212010   0.3433751   0.9249961  )
        93        O      tau(  93) = (   0.6507714   0.8687427   1.1830599  )
        94        O      tau(  94) = (   0.9014054   0.7139543   0.6209553  )
        95        O      tau(  95) = (   0.8548963   0.1722994   0.6234348  )
        96        O      tau(  96) = (   0.6044469   0.3253792   1.1859242  )
        97        O      tau(  97) = (   0.6024424   0.5698225   1.0577892  )
        98        O      tau(  98) = (   0.8498940   1.0129567   0.7474033  )
        99        O      tau(  99) = (   0.8798395   0.4080910   1.0504647  )
       100        O      tau( 100) = (   0.6286921   0.0909721   0.7596222  )
       101        O      tau( 101) = (   0.6294973   0.6302838   0.7571429  )
       102        O      tau( 102) = (   0.9024339   0.4685397   0.7495295  )
       103        O      tau( 103) = (   0.6547812   0.0286072   1.0595512  )
       104        O      tau( 104) = (   0.8760507   0.9507690   1.0463383  )
       105        Mn     tau( 105) = (   0.2350290   0.8103679   1.3650506  )
       106        Ni     tau( 106) = (   0.5049839   0.7430999   1.6752764  )
       107        Ni     tau( 107) = (   0.0085805   0.2677647   1.3705110  )
       108        Ni     tau( 108) = (   0.2524821   0.2108176   1.6762258  )
       109        Ni     tau( 109) = (   1.0031726   1.0464924   1.5386166  )
       110        Ni     tau( 110) = (   0.2502641   0.5060972   1.5295441  )
       111        Ni     tau( 111) = (   0.7425850   0.8051724   1.3682278  )
       112        Ni     tau( 112) = (   1.0032085   0.7480271   1.6782163  )
       113        Ni     tau( 113) = (   0.5109976   0.2668978   1.3695351  )
       114        Ni     tau( 114) = (   0.7617415   0.2002392   1.7047113  )
       115        Ni     tau( 115) = (   0.5060216   1.0426794   1.5329327  )
       116        Ni     tau( 116) = (   0.7493328   0.5030112   1.5332002  )
       117        P      tau( 117) = (   0.2170385   0.9354274   1.6987551  )
       118        P      tau( 118) = (   0.4625170   0.6079979   1.3696033  )
       119        P      tau( 119) = (   0.2922201   0.0744200   1.3728508  )
       120        P      tau( 120) = (   0.0400598   0.4013821   1.6923063  )
       121        O      tau( 121) = (   0.1369468   0.8734395   1.5544031  )
       122        O      tau( 122) = (   0.3851774   0.6777302   1.5062583  )
       123        O      tau( 123) = (   0.3716472   0.1429275   1.5084559  )
       124        O      tau( 124) = (   0.1157488   0.3366312   1.5473574  )
       125        O      tau( 125) = (   0.1542130   0.8393226   1.8134166  )
       126        O      tau( 126) = (   0.4021706   0.6983945   1.2446547  )
       127        O      tau( 127) = (   0.3533289   0.1594101   1.2454731  )
       128        O      tau( 128) = (   0.1044058   0.3070241   1.8090384  )
       129        O      tau( 129) = (   0.0976985   0.5582927   1.6881977  )
       130        O      tau( 130) = (   0.3494544   0.9934681   1.3765809  )
       131        O      tau( 131) = (   0.3735391   0.3921348   1.6747224  )
       132        O      tau( 132) = (   0.1284883   0.0801717   1.3861992  )
       133        O      tau( 133) = (   0.1217502   0.6189932   1.3813335  )
       134        O      tau( 134) = (   0.4008873   0.4536035   1.3710220  )
       135        O      tau( 135) = (   0.1634732   0.0183502   1.6943209  )
       136        O      tau( 136) = (   0.3813891   0.9276213   1.6801305  )
       137        P      tau( 137) = (   0.7150844   0.9302027   1.6925865  )
       138        P      tau( 138) = (   0.9571586   0.6099361   1.3701799  )
       139        P      tau( 139) = (   0.7928795   0.0723778   1.3749960  )
       140        P      tau( 140) = (   0.5392015   0.3933707   1.6872906  )
       141        O      tau( 141) = (   0.6358909   0.8683612   1.5460897  )
       142        O      tau( 142) = (   0.8820169   0.6809509   1.5070208  )
       143        O      tau( 143) = (   0.8692965   0.1456252   1.5103227  )
       144        O      tau( 144) = (   0.6167143   0.3328777   1.5445489  )
       145        O      tau( 145) = (   0.6564412   0.8305094   1.8065650  )
       146        O      tau( 146) = (   0.8979416   0.6984778   1.2436101  )
       147        O      tau( 147) = (   0.8543451   0.1588252   1.2476080  )
       148        O      tau( 148) = (   0.5965398   0.2964012   1.8048314  )
       149        O      tau( 149) = (   0.5954090   0.5513693   1.6890606  )
       150        O      tau( 150) = (   0.8526781   0.9929277   1.3790312  )
       151        O      tau( 151) = (   0.8754039   0.3968396   1.6819451  )
       152        O      tau( 152) = (   0.6285753   0.0773142   1.3832806  )
       153        O      tau( 153) = (   0.6263328   0.6141238   1.3811389  )
       154        O      tau( 154) = (   0.9000707   0.4545516   1.3742938  )
       155        O      tau( 155) = (   0.6544929   0.0100088   1.6874901  )
       156        O      tau( 156) = (   0.8797765   0.9265630   1.6764488  )
       157        O      tau( 157) = (   0.8753615   0.1176518   1.8379936  )
       158        H      tau( 158) = (   0.9617023   0.1762767   1.8603235  )

     -------------------------------------------------
     Parameters for Dispersion (Grimme-D2) Correction:
     -------------------------------------------------
       atom      VdW radius       C_6     

        Ni         2.952        374.666
        Mn         2.952        374.666
        P          3.222        271.980
        O          2.536         24.284
        H          1.892          4.857

     number of k points=     1  Gaussian smearing, width (Ry)=  0.0100
                       cart. coord. in units 2pi/alat
        k(    1) = (   0.0000000   0.0000000   0.0000000), wk =   1.0000000

     Dense  grid:  1918138 G-vectors     FFT dimensions: ( 125, 135, 432)

     Smooth grid:   485265 G-vectors     FFT dimensions: (  80,  90, 288)

     Estimated max dynamical RAM per process >     320.12 MB

     Estimated total dynamical RAM >      20.01 GB
     Generating pointlists ...
     new r_m :   0.0799 (alat units)  1.4138 (a.u.) for type    1
     new r_m :   0.0869 (alat units)  1.5388 (a.u.) for type    2
     new r_m :   0.0650 (alat units)  1.1499 (a.u.) for type    3
     new r_m :   0.0440 (alat units)  0.7792 (a.u.) for type    4
     new r_m :   0.0440 (alat units)  0.7792 (a.u.) for type    5

     Initial potential from superposition of free atoms

     starting charge    1077.8900, renormalised to    1078.0000

     negative rho (up, down):  1.237E-03 4.528E-04
 
     Adding external electric field

     Computed dipole along edir(3) : 
        Dipole                1.6169 Ry au,          4.1098 Debye
        Dipole field          0.0010 Ry au, 
 
        Potential amp.       -0.1085 Ry
        Total length         54.2615 bohr
 
 
     Adding external electric field

     Computed dipole along edir(3) : 
        Dipole                1.6169 Ry au,          4.1098 Debye
        Dipole field          0.0010 Ry au, 
 
        Potential amp.       -0.1085 Ry
        Total length         54.2615 bohr
 
     Starting wfcs are  812 randomized atomic wfcs

     total cpu time spent up to now is       14.3 secs

     Self-consistent Calculation

     iteration #  1     ecut=    50.00 Ry     beta= 0.10
     Davidson diagonalization with overlap
     ethr =  1.00E-02,  avg # of iterations =  6.0

     negative rho (up, down):  3.403E-01 4.952E-06
 
     Adding external electric field

     Computed dipole along edir(3) : 
        Dipole               -3.3983 Ry au,         -8.6377 Debye
        Dipole field         -0.0021 Ry au, 
 
        Potential amp.        0.2281 Ry
        Total length         54.2615 bohr
 
 
     Adding external electric field

     Computed dipole along edir(3) : 
        Dipole               -3.3983 Ry au,         -8.6377 Debye
        Dipole field         -0.0021 Ry au, 
 
        Potential amp.        0.2281 Ry
        Total length         54.2615 bohr
 

     total cpu time spent up to now is       50.6 secs

     total energy              =   -7180.19595235 Ry
     estimated scf accuracy    <     757.52146263 Ry

     total magnetization       =   216.00 Bohr mag/cell
     absolute magnetization    =   296.66 Bohr mag/cell

     iteration #  2     ecut=    50.00 Ry     beta= 0.10
     Davidson diagonalization with overlap
     ethr =  1.00E-02,  avg # of iterations =  2.0

     negative rho (up, down):  3.161E-01 3.342E-06
 
     Adding external electric field

     Computed dipole along edir(3) : 
        Dipole               -2.3960 Ry au,         -6.0900 Debye
        Dipole field         -0.0015 Ry au, 
 
        Potential amp.        0.1608 Ry
        Total length         54.2615 bohr
 
 
     Adding external electric field

     Computed dipole along edir(3) : 
        Dipole               -2.3960 Ry au,         -6.0900 Debye
        Dipole field         -0.0015 Ry au, 
 
        Potential amp.        0.1608 Ry
        Total length         54.2615 bohr
 

     total cpu time spent up to now is       72.2 secs

     total energy              =   -7263.77509530 Ry
     estimated scf accuracy    <     175.14668444 Ry

     total magnetization       =   146.67 Bohr mag/cell
     absolute magnetization    =   197.80 Bohr mag/cell

     iteration #  3     ecut=    50.00 Ry     beta= 0.10
     Davidson diagonalization with overlap
     ethr =  1.00E-02,  avg # of iterations =  1.5

     negative rho (up, down):  2.758E-01 2.813E-06
 
     Adding external electric field

     Computed dipole along edir(3) : 
        Dipole               -1.9905 Ry au,         -5.0594 Debye
        Dipole field         -0.0012 Ry au, 
 
        Potential amp.        0.1336 Ry
        Total length         54.2615 bohr
 
 
     Adding external electric field

     Computed dipole along edir(3) : 
        Dipole               -1.9905 Ry au,         -5.0594 Debye
        Dipole field         -0.0012 Ry au, 
 
        Potential amp.        0.1336 Ry
        Total length         54.2615 bohr
 

     total cpu time spent up to now is       89.6 secs

     total energy              =   -7295.88169122 Ry
     estimated scf accuracy    <      97.77301658 Ry

     total magnetization       =   123.23 Bohr mag/cell
     absolute magnetization    =   177.49 Bohr mag/cell

     iteration #  4     ecut=    50.00 Ry     beta= 0.10
     Davidson diagonalization with overlap
     ethr =  9.07E-03,  avg # of iterations =  1.5

     negative rho (up, down):  2.022E-01 9.837E-07
 
     Adding external electric field

     Computed dipole along edir(3) : 
        Dipole               -1.9597 Ry au,         -4.9811 Debye
        Dipole field         -0.0012 Ry au, 
 
        Potential amp.        0.1315 Ry
        Total length         54.2615 bohr
 
 
     Adding external electric field

     Computed dipole along edir(3) : 
        Dipole               -1.9597 Ry au,         -4.9811 Debye
        Dipole field         -0.0012 Ry au, 
 
        Potential amp.        0.1315 Ry
        Total length         54.2615 bohr
 

     total cpu time spent up to now is      107.1 secs

     total energy              =   -7330.44027508 Ry
     estimated scf accuracy    <      77.01058900 Ry

     total magnetization       =   107.51 Bohr mag/cell
     absolute magnetization    =   162.77 Bohr mag/cell

     iteration #  5     ecut=    50.00 Ry     beta= 0.10
     Davidson diagonalization with overlap
     ethr =  7.14E-03,  avg # of iterations =  1.0

     negative rho (up, down):  4.198E-03 2.380E-07
 
     Adding external electric field

     Computed dipole along edir(3) : 
        Dipole               -1.4012 Ry au,         -3.5614 Debye
        Dipole field         -0.0009 Ry au, 
 
        Potential amp.        0.0940 Ry
        Total length         54.2615 bohr
 
 
     Adding external electric field

     Computed dipole along edir(3) : 
        Dipole               -1.4012 Ry au,         -3.5614 Debye
        Dipole field         -0.0009 Ry au, 
 
        Potential amp.        0.0940 Ry
        Total length         54.2615 bohr
 

     total cpu time spent up to now is      123.4 secs

     total energy              =   -7388.38991199 Ry
     estimated scf accuracy    <      58.73502831 Ry

     total magnetization       =    88.00 Bohr mag/cell
     absolute magnetization    =   144.36 Bohr mag/cell

     iteration #  6     ecut=    50.00 Ry     beta= 0.10
     Davidson diagonalization with overlap
     ethr =  5.45E-03,  avg # of iterations =  1.5

     negative rho (up, down):  1.449E-04 2.317E-04
 
     Adding external electric field

     Computed dipole along edir(3) : 
        Dipole               -1.0400 Ry au,         -2.6434 Debye
        Dipole field         -0.0006 Ry au, 
 
        Potential amp.        0.0698 Ry
        Total length         54.2615 bohr
 
 
     Adding external electric field

     Computed dipole along edir(3) : 
        Dipole               -1.0400 Ry au,         -2.6434 Debye
        Dipole field         -0.0006 Ry au, 
 
        Potential amp.        0.0698 Ry
        Total length         54.2615 bohr
 

     total cpu time spent up to now is      141.5 secs

     total energy              =   -7395.86579492 Ry
     estimated scf accuracy    <       8.97521374 Ry

     total magnetization       =    79.66 Bohr mag/cell
     absolute magnetization    =   111.07 Bohr mag/cell

     iteration #  7     ecut=    50.00 Ry     beta= 0.10
     Davidson diagonalization with overlap
     ethr =  8.33E-04,  avg # of iterations =  5.0

     negative rho (up, down):  1.504E-04 2.193E-04
 
     Adding external electric field

     Computed dipole along edir(3) : 
        Dipole               -1.0387 Ry au,         -2.6402 Debye
        Dipole field         -0.0006 Ry au, 
 
        Potential amp.        0.0697 Ry
        Total length         54.2615 bohr
 
 
     Adding external electric field

     Computed dipole along edir(3) : 
        Dipole               -1.0387 Ry au,         -2.6402 Debye
        Dipole field         -0.0006 Ry au, 
 
        Potential amp.        0.0697 Ry
        Total length         54.2615 bohr
 

     total cpu time spent up to now is      168.1 secs

     total energy              =   -7397.58228987 Ry
     estimated scf accuracy    <       9.69211031 Ry

     total magnetization       =    71.94 Bohr mag/cell
     absolute magnetization    =    89.28 Bohr mag/cell

     iteration #  8     ecut=    50.00 Ry     beta= 0.10
     Davidson diagonalization with overlap
     ethr =  8.33E-04,  avg # of iterations =  1.0

     negative rho (up, down):  1.209E-04 2.590E-04
 
     Adding external electric field

     Computed dipole along edir(3) : 
        Dipole               -0.9837 Ry au,         -2.5003 Debye
        Dipole field         -0.0006 Ry au, 
 
        Potential amp.        0.0660 Ry
        Total length         54.2615 bohr
 
 
     Adding external electric field

     Computed dipole along edir(3) : 
        Dipole               -0.9837 Ry au,         -2.5003 Debye
        Dipole field         -0.0006 Ry au, 
 
        Potential amp.        0.0660 Ry
        Total length         54.2615 bohr
 

     total cpu time spent up to now is      183.9 secs

     total energy              =   -7397.35376790 Ry
     estimated scf accuracy    <      10.54686010 Ry

     total magnetization       =    71.69 Bohr mag/cell
     absolute magnetization    =    88.96 Bohr mag/cell

     iteration #  9     ecut=    50.00 Ry     beta= 0.10
     Davidson diagonalization with overlap
     ethr =  8.33E-04,  avg # of iterations =  1.5

     negative rho (up, down):  7.662E-05 2.556E-04
 
     Adding external electric field

     Computed dipole along edir(3) : 
        Dipole               -1.0997 Ry au,         -2.7952 Debye
        Dipole field         -0.0007 Ry au, 
 
        Potential amp.        0.0738 Ry
        Total length         54.2615 bohr
 
 
     Adding external electric field

     Computed dipole along edir(3) : 
        Dipole               -1.0997 Ry au,         -2.7952 Debye
        Dipole field         -0.0007 Ry au, 
 
        Potential amp.        0.0738 Ry
        Total length         54.2615 bohr
 

     total cpu time spent up to now is      201.1 secs

     total energy              =   -7397.50545883 Ry
     estimated scf accuracy    <       5.33605297 Ry

     total magnetization       =    75.12 Bohr mag/cell
     absolute magnetization    =    89.74 Bohr mag/cell

     iteration # 10     ecut=    50.00 Ry     beta= 0.10
     Davidson diagonalization with overlap
     ethr =  4.95E-04,  avg # of iterations =  2.0

     negative rho (up, down):  4.597E-05 2.027E-04
 
     Adding external electric field

     Computed dipole along edir(3) : 
        Dipole               -1.1643 Ry au,         -2.9593 Debye
        Dipole field         -0.0007 Ry au, 
 
        Potential amp.        0.0781 Ry
        Total length         54.2615 bohr
 
 
     Adding external electric field

     Computed dipole along edir(3) : 
        Dipole               -1.1643 Ry au,         -2.9593 Debye
        Dipole field         -0.0007 Ry au, 
 
        Potential amp.        0.0781 Ry
        Total length         54.2615 bohr
 

     total cpu time spent up to now is      218.9 secs

     total energy              =   -7397.59396567 Ry
     estimated scf accuracy    <       1.76847883 Ry

     total magnetization       =    78.20 Bohr mag/cell
     absolute magnetization    =    90.83 Bohr mag/cell

     iteration # 11     ecut=    50.00 Ry     beta= 0.10
     Davidson diagonalization with overlap
     ethr =  1.64E-04,  avg # of iterations = 22.0

     negative rho (up, down):  3.661E-05 2.420E-04
 
     Adding external electric field

     Computed dipole along edir(3) : 
        Dipole               -1.2242 Ry au,         -3.1117 Debye
        Dipole field         -0.0008 Ry au, 
 
        Potential amp.        0.0822 Ry
        Total length         54.2615 bohr
 
 
     Adding external electric field

     Computed dipole along edir(3) : 
        Dipole               -1.2242 Ry au,         -3.1117 Debye
        Dipole field         -0.0008 Ry au, 
 
        Potential amp.        0.0822 Ry
        Total length         54.2615 bohr
 

     total cpu time spent up to now is      265.1 secs

     total energy              =   -7397.75559232 Ry
     estimated scf accuracy    <       0.97388930 Ry

     total magnetization       =    78.70 Bohr mag/cell
     absolute magnetization    =    89.77 Bohr mag/cell

     iteration # 12     ecut=    50.00 Ry     beta= 0.10
     Davidson diagonalization with overlap
     ethr =  9.03E-05,  avg # of iterations =  5.5

     negative rho (up, down):  1.785E-05 1.367E-04
 
     Adding external electric field

     Computed dipole along edir(3) : 
        Dipole               -1.1598 Ry au,         -2.9479 Debye
        Dipole field         -0.0007 Ry au, 
 
        Potential amp.        0.0778 Ry
        Total length         54.2615 bohr
 
 
     Adding external electric field

     Computed dipole along edir(3) : 
        Dipole               -1.1598 Ry au,         -2.9479 Debye
        Dipole field         -0.0007 Ry au, 
 
        Potential amp.        0.0778 Ry
        Total length         54.2615 bohr
 

     total cpu time spent up to now is      285.4 secs

     total energy              =   -7397.82397427 Ry
     estimated scf accuracy    <       0.69432395 Ry

     total magnetization       =    81.71 Bohr mag/cell
     absolute magnetization    =    89.45 Bohr mag/cell

     iteration # 13     ecut=    50.00 Ry     beta= 0.10
     Davidson diagonalization with overlap
     ethr =  6.44E-05,  avg # of iterations =  2.0

     negative rho (up, down):  4.019E-07 9.976E-06
 
     Adding external electric field

     Computed dipole along edir(3) : 
        Dipole               -0.7109 Ry au,         -1.8069 Debye
        Dipole field         -0.0004 Ry au, 
 
        Potential amp.        0.0477 Ry
        Total length         54.2615 bohr
 
 
     Adding external electric field

     Computed dipole along edir(3) : 
        Dipole               -0.7109 Ry au,         -1.8069 Debye
        Dipole field         -0.0004 Ry au, 
 
        Potential amp.        0.0477 Ry
        Total length         54.2615 bohr
 

     total cpu time spent up to now is      302.9 secs

     total energy              =   -7397.93499411 Ry
     estimated scf accuracy    <       0.57833724 Ry

     total magnetization       =    81.46 Bohr mag/cell
     absolute magnetization    =    89.04 Bohr mag/cell

     iteration # 14     ecut=    50.00 Ry     beta= 0.10
     Davidson diagonalization with overlap
     ethr =  5.36E-05,  avg # of iterations = 13.0

     negative rho (up, down):  3.542E-08 1.821E-05
 
     Adding external electric field

     Computed dipole along edir(3) : 
        Dipole               -0.8934 Ry au,         -2.2707 Debye
        Dipole field         -0.0006 Ry au, 
 
        Potential amp.        0.0600 Ry
        Total length         54.2615 bohr
 
 
     Adding external electric field

     Computed dipole along edir(3) : 
        Dipole               -0.8934 Ry au,         -2.2707 Debye
        Dipole field         -0.0006 Ry au, 
 
        Potential amp.        0.0600 Ry
        Total length         54.2615 bohr
 

     total cpu time spent up to now is      337.3 secs

     total energy              =   -7397.99949735 Ry
     estimated scf accuracy    <       3.93640797 Ry

     total magnetization       =    77.45 Bohr mag/cell
     absolute magnetization    =    81.83 Bohr mag/cell

     iteration # 15     ecut=    50.00 Ry     beta= 0.10
     Davidson diagonalization with overlap
     ethr =  5.36E-05,  avg # of iterations =  1.5

     negative rho (up, down):  5.514E-06 5.762E-05
 
     Adding external electric field

     Computed dipole along edir(3) : 
        Dipole               -0.9575 Ry au,         -2.4338 Debye
        Dipole field         -0.0006 Ry au, 
 
        Potential amp.        0.0643 Ry
        Total length         54.2615 bohr
 
 
     Adding external electric field

     Computed dipole along edir(3) : 
        Dipole               -0.9575 Ry au,         -2.4338 Debye
        Dipole field         -0.0006 Ry au, 
 
        Potential amp.        0.0643 Ry
        Total length         54.2615 bohr
 

     total cpu time spent up to now is      353.6 secs

     total energy              =   -7398.03465818 Ry
     estimated scf accuracy    <       0.92260892 Ry

     total magnetization       =    80.16 Bohr mag/cell
     absolute magnetization    =    83.62 Bohr mag/cell

     iteration # 16     ecut=    50.00 Ry     beta= 0.10
     Davidson diagonalization with overlap
     ethr =  5.36E-05,  avg # of iterations =  1.5

     negative rho (up, down):  6.289E-05 3.819E-05
 
     Adding external electric field

     Computed dipole along edir(3) : 
        Dipole               -0.9635 Ry au,         -2.4490 Debye
        Dipole field         -0.0006 Ry au, 
 
        Potential amp.        0.0647 Ry
        Total length         54.2615 bohr
 
 
     Adding external electric field

     Computed dipole along edir(3) : 
        Dipole               -0.9635 Ry au,         -2.4490 Debye
        Dipole field         -0.0006 Ry au, 
 
        Potential amp.        0.0647 Ry
        Total length         54.2615 bohr
 

     total cpu time spent up to now is      370.1 secs

     total energy              =   -7398.03305850 Ry
     estimated scf accuracy    <       0.28061033 Ry

     total magnetization       =    80.94 Bohr mag/cell
     absolute magnetization    =    83.48 Bohr mag/cell

     iteration # 17     ecut=    50.00 Ry     beta= 0.10
     Davidson diagonalization with overlap
     c_bands:  4 eigenvalues not converged
     ethr =  2.60E-05,  avg # of iterations = 10.5

     negative rho (up, down):  7.372E-05 3.107E-05
 
     Adding external electric field

     Computed dipole along edir(3) : 
        Dipole               -0.9710 Ry au,         -2.4680 Debye
        Dipole field         -0.0006 Ry au, 
 
        Potential amp.        0.0652 Ry
        Total length         54.2615 bohr
 
 
     Adding external electric field

     Computed dipole along edir(3) : 
        Dipole               -0.9710 Ry au,         -2.4680 Debye
        Dipole field         -0.0006 Ry au, 
 
        Potential amp.        0.0652 Ry
        Total length         54.2615 bohr
 

     total cpu time spent up to now is      392.7 secs

     total energy              =   -7398.04038530 Ry
     estimated scf accuracy    <       0.12043234 Ry

     total magnetization       =    80.49 Bohr mag/cell
     absolute magnetization    =    82.55 Bohr mag/cell

     iteration # 18     ecut=    50.00 Ry     beta= 0.10
     Davidson diagonalization with overlap
     c_bands:  1 eigenvalues not converged
     ethr =  1.12E-05,  avg # of iterations = 11.0

     negative rho (up, down):  5.131E-05 8.713E-06
 
     Adding external electric field

     Computed dipole along edir(3) : 
        Dipole               -0.9259 Ry au,         -2.3534 Debye
        Dipole field         -0.0006 Ry au, 
 
        Potential amp.        0.0621 Ry
        Total length         54.2615 bohr
 
 
     Adding external electric field

     Computed dipole along edir(3) : 
        Dipole               -0.9259 Ry au,         -2.3534 Debye
        Dipole field         -0.0006 Ry au, 
 
        Potential amp.        0.0621 Ry
        Total length         54.2615 bohr
 

     total cpu time spent up to now is      415.8 secs

     total energy              =   -7398.03890834 Ry
     estimated scf accuracy    <       0.10375133 Ry

     total magnetization       =    80.42 Bohr mag/cell
     absolute magnetization    =    82.43 Bohr mag/cell

     iteration # 19     ecut=    50.00 Ry     beta= 0.10
     Davidson diagonalization with overlap
     ethr =  9.62E-06,  avg # of iterations = 13.0

     negative rho (up, down):  7.510E-05 1.840E-06
 
     Adding external electric field

     Computed dipole along edir(3) : 
        Dipole               -0.9244 Ry au,         -2.3496 Debye
        Dipole field         -0.0006 Ry au, 
 
        Potential amp.        0.0620 Ry
        Total length         54.2615 bohr
 
 
     Adding external electric field

     Computed dipole along edir(3) : 
        Dipole               -0.9244 Ry au,         -2.3496 Debye
        Dipole field         -0.0006 Ry au, 
 
        Potential amp.        0.0620 Ry
        Total length         54.2615 bohr
 

     total cpu time spent up to now is      449.5 secs

     total energy              =   -7398.03641400 Ry
     estimated scf accuracy    <       0.13703516 Ry

     total magnetization       =    80.77 Bohr mag/cell
     absolute magnetization    =    82.68 Bohr mag/cell

     iteration # 20     ecut=    50.00 Ry     beta= 0.10
     Davidson diagonalization with overlap
     ethr =  9.62E-06,  avg # of iterations =  2.0

     negative rho (up, down):  3.842E-05 1.389E-06
 
     Adding external electric field

     Computed dipole along edir(3) : 
        Dipole               -0.8602 Ry au,         -2.1865 Debye
        Dipole field         -0.0005 Ry au, 
 
        Potential amp.        0.0577 Ry
        Total length         54.2615 bohr
 
 
     Adding external electric field

     Computed dipole along edir(3) : 
        Dipole               -0.8602 Ry au,         -2.1865 Debye
        Dipole field         -0.0005 Ry au, 
 
        Potential amp.        0.0577 Ry
        Total length         54.2615 bohr
 

     total cpu time spent up to now is      466.8 secs

     total energy              =   -7398.03453302 Ry
     estimated scf accuracy    <       0.08139032 Ry

     total magnetization       =    81.03 Bohr mag/cell
     absolute magnetization    =    82.71 Bohr mag/cell

     iteration # 21     ecut=    50.00 Ry     beta= 0.10
     Davidson diagonalization with overlap
     ethr =  7.55E-06,  avg # of iterations =  2.0

     negative rho (up, down):  1.608E-05 5.995E-06
 
     Adding external electric field

     Computed dipole along edir(3) : 
        Dipole               -0.8270 Ry au,         -2.1021 Debye
        Dipole field         -0.0005 Ry au, 
 
        Potential amp.        0.0555 Ry
        Total length         54.2615 bohr
 
 
     Adding external electric field

     Computed dipole along edir(3) : 
        Dipole               -0.8270 Ry au,         -2.1021 Debye
        Dipole field         -0.0005 Ry au, 
 
        Potential amp.        0.0555 Ry
        Total length         54.2615 bohr
 

     total cpu time spent up to now is      484.5 secs

     total energy              =   -7398.03991649 Ry
     estimated scf accuracy    <       0.07069950 Ry

     total magnetization       =    80.79 Bohr mag/cell
     absolute magnetization    =    82.33 Bohr mag/cell

     iteration # 22     ecut=    50.00 Ry     beta= 0.10
     Davidson diagonalization with overlap
     ethr =  6.56E-06,  avg # of iterations =  2.0

     negative rho (up, down):  1.265E-05 1.003E-05
 
     Adding external electric field

     Computed dipole along edir(3) : 
        Dipole               -0.8004 Ry au,         -2.0343 Debye
        Dipole field         -0.0005 Ry au, 
 
        Potential amp.        0.0537 Ry
        Total length         54.2615 bohr
 
 
     Adding external electric field

     Computed dipole along edir(3) : 
        Dipole               -0.8004 Ry au,         -2.0343 Debye
        Dipole field         -0.0005 Ry au, 
 
        Potential amp.        0.0537 Ry
        Total length         54.2615 bohr
 

     total cpu time spent up to now is      502.0 secs

     total energy              =   -7398.04060237 Ry
     estimated scf accuracy    <       0.08684608 Ry

     total magnetization       =    80.74 Bohr mag/cell
     absolute magnetization    =    82.19 Bohr mag/cell

     iteration # 23     ecut=    50.00 Ry     beta= 0.10
     Davidson diagonalization with overlap
     ethr =  6.56E-06,  avg # of iterations =  2.0

     negative rho (up, down):  1.092E-05 7.992E-06
 
     Adding external electric field

     Computed dipole along edir(3) : 
        Dipole               -0.8277 Ry au,         -2.1037 Debye
        Dipole field         -0.0005 Ry au, 
 
        Potential amp.        0.0555 Ry
        Total length         54.2615 bohr
 
 
     Adding external electric field

     Computed dipole along edir(3) : 
        Dipole               -0.8277 Ry au,         -2.1037 Debye
        Dipole field         -0.0005 Ry au, 
 
        Potential amp.        0.0555 Ry
        Total length         54.2615 bohr
 

     total cpu time spent up to now is      518.8 secs

     total energy              =   -7398.04155441 Ry
     estimated scf accuracy    <       0.08500883 Ry

     total magnetization       =    80.63 Bohr mag/cell
     absolute magnetization    =    82.12 Bohr mag/cell

     iteration # 24     ecut=    50.00 Ry     beta= 0.10
     Davidson diagonalization with overlap
     ethr =  6.56E-06,  avg # of iterations =  2.0

     negative rho (up, down):  3.052E-05 1.262E-05
 
     Adding external electric field

     Computed dipole along edir(3) : 
        Dipole               -0.7735 Ry au,         -1.9659 Debye
        Dipole field         -0.0005 Ry au, 
 
        Potential amp.        0.0519 Ry
        Total length         54.2615 bohr
 
 
     Adding external electric field

     Computed dipole along edir(3) : 
        Dipole               -0.7735 Ry au,         -1.9659 Debye
        Dipole field         -0.0005 Ry au, 
 
        Potential amp.        0.0519 Ry
        Total length         54.2615 bohr
 

     total cpu time spent up to now is      536.0 secs

     total energy              =   -7398.03985620 Ry
     estimated scf accuracy    <       0.09533950 Ry

     total magnetization       =    80.74 Bohr mag/cell
     absolute magnetization    =    82.20 Bohr mag/cell

     iteration # 25     ecut=    50.00 Ry     beta= 0.10
     Davidson diagonalization with overlap
     ethr =  6.56E-06,  avg # of iterations =  2.0

     negative rho (up, down):  3.945E-05 1.185E-05
 
     Adding external electric field

     Computed dipole along edir(3) : 
        Dipole               -0.7700 Ry au,         -1.9571 Debye
        Dipole field         -0.0005 Ry au, 
 
        Potential amp.        0.0517 Ry
        Total length         54.2615 bohr
 
 
     Adding external electric field

     Computed dipole along edir(3) : 
        Dipole               -0.7700 Ry au,         -1.9571 Debye
        Dipole field         -0.0005 Ry au, 
 
        Potential amp.        0.0517 Ry
        Total length         54.2615 bohr
 

     total cpu time spent up to now is      552.2 secs

     total energy              =   -7398.03885435 Ry
     estimated scf accuracy    <       0.08472210 Ry

     total magnetization       =    80.79 Bohr mag/cell
     absolute magnetization    =    82.22 Bohr mag/cell

     iteration # 26     ecut=    50.00 Ry     beta= 0.10
     Davidson diagonalization with overlap
     ethr =  6.56E-06,  avg # of iterations =  1.0

     negative rho (up, down):  2.282E-03 1.691E-03
 
     Adding external electric field

     Computed dipole along edir(3) : 
        Dipole               -0.6327 Ry au,         -1.6082 Debye
        Dipole field         -0.0004 Ry au, 
 
        Potential amp.        0.0425 Ry
        Total length         54.2615 bohr
 
 
     Adding external electric field

     Computed dipole along edir(3) : 
        Dipole               -0.6327 Ry au,         -1.6082 Debye
        Dipole field         -0.0004 Ry au, 
 
        Potential amp.        0.0425 Ry
        Total length         54.2615 bohr
 

     total cpu time spent up to now is      566.5 secs

     total energy              =   -7398.03320272 Ry
     estimated scf accuracy    <       0.06082672 Ry

     total magnetization       =    80.70 Bohr mag/cell
     absolute magnetization    =    82.15 Bohr mag/cell

     iteration # 27     ecut=    50.00 Ry     beta= 0.10
     Davidson diagonalization with overlap
     ethr =  5.64E-06,  avg # of iterations =  3.0

     negative rho (up, down):  2.422E-04 1.169E-04
 
     Adding external electric field

     Computed dipole along edir(3) : 
        Dipole               -0.6629 Ry au,         -1.6849 Debye
        Dipole field         -0.0004 Ry au, 
 
        Potential amp.        0.0445 Ry
        Total length         54.2615 bohr
 
 
     Adding external electric field

     Computed dipole along edir(3) : 
        Dipole               -0.6629 Ry au,         -1.6849 Debye
        Dipole field         -0.0004 Ry au, 
 
        Potential amp.        0.0445 Ry
        Total length         54.2615 bohr
 

     total cpu time spent up to now is      583.1 secs

     total energy              =   -7398.03693398 Ry
     estimated scf accuracy    <       0.01591308 Ry

     total magnetization       =    80.46 Bohr mag/cell
     absolute magnetization    =    82.07 Bohr mag/cell

     iteration # 28     ecut=    50.00 Ry     beta= 0.10
     Davidson diagonalization with overlap
     c_bands:  1 eigenvalues not converged
     c_bands:  1 eigenvalues not converged
     ethr =  1.48E-06,  avg # of iterations = 20.0

     negative rho (up, down):  1.384E-03 1.172E-03
 
     Adding external electric field

     Computed dipole along edir(3) : 
        Dipole               -0.5859 Ry au,         -1.4891 Debye
        Dipole field         -0.0004 Ry au, 
 
        Potential amp.        0.0393 Ry
        Total length         54.2615 bohr
 
 
     Adding external electric field

     Computed dipole along edir(3) : 
        Dipole               -0.5859 Ry au,         -1.4891 Debye
        Dipole field         -0.0004 Ry au, 
 
        Potential amp.        0.0393 Ry
        Total length         54.2615 bohr
 

     total cpu time spent up to now is      612.0 secs

     total energy              =   -7398.03594269 Ry
     estimated scf accuracy    <       0.03872058 Ry

     total magnetization       =    80.55 Bohr mag/cell
     absolute magnetization    =    82.13 Bohr mag/cell

     iteration # 29     ecut=    50.00 Ry     beta= 0.10
     Davidson diagonalization with overlap
     c_bands:  2 eigenvalues not converged
     ethr =  1.48E-06,  avg # of iterations = 11.5

     negative rho (up, down):  5.991E-04 4.099E-04
 
     Adding external electric field

     Computed dipole along edir(3) : 
        Dipole               -0.6137 Ry au,         -1.5598 Debye
        Dipole field         -0.0004 Ry au, 
 
        Potential amp.        0.0412 Ry
        Total length         54.2615 bohr
 
 
     Adding external electric field

     Computed dipole along edir(3) : 
        Dipole               -0.6137 Ry au,         -1.5598 Debye
        Dipole field         -0.0004 Ry au, 
 
        Potential amp.        0.0412 Ry
        Total length         54.2615 bohr
 

     total cpu time spent up to now is      637.1 secs

     total energy              =   -7398.03695772 Ry
     estimated scf accuracy    <       0.03202070 Ry

     total magnetization       =    80.54 Bohr mag/cell
     absolute magnetization    =    82.26 Bohr mag/cell

     iteration # 30     ecut=    50.00 Ry     beta= 0.10
     Davidson diagonalization with overlap
     ethr =  1.48E-06,  avg # of iterations =  1.0

     negative rho (up, down):  5.495E-04 4.288E-04
 
     Adding external electric field

     Computed dipole along edir(3) : 
        Dipole               -0.5939 Ry au,         -1.5095 Debye
        Dipole field         -0.0004 Ry au, 
 
        Potential amp.        0.0399 Ry
        Total length         54.2615 bohr
 
 
     Adding external electric field

     Computed dipole along edir(3) : 
        Dipole               -0.5939 Ry au,         -1.5095 Debye
        Dipole field         -0.0004 Ry au, 
 
        Potential amp.        0.0399 Ry
        Total length         54.2615 bohr
 

     total cpu time spent up to now is      651.3 secs

     total energy              =   -7398.03718693 Ry
     estimated scf accuracy    <       0.04036720 Ry

     total magnetization       =    80.55 Bohr mag/cell
     absolute magnetization    =    82.23 Bohr mag/cell

     iteration # 31     ecut=    50.00 Ry     beta= 0.10
     Davidson diagonalization with overlap
     ethr =  1.48E-06,  avg # of iterations =  1.5

     negative rho (up, down):  1.398E-03 1.148E-03
 
     Adding external electric field

     Computed dipole along edir(3) : 
        Dipole               -0.5517 Ry au,         -1.4023 Debye
        Dipole field         -0.0003 Ry au, 
 
        Potential amp.        0.0370 Ry
        Total length         54.2615 bohr
 
 
     Adding external electric field

     Computed dipole along edir(3) : 
        Dipole               -0.5517 Ry au,         -1.4023 Debye
        Dipole field         -0.0003 Ry au, 
 
        Potential amp.        0.0370 Ry
        Total length         54.2615 bohr
 

     total cpu time spent up to now is      666.7 secs

     total energy              =   -7398.03641269 Ry
     estimated scf accuracy    <       0.04428613 Ry

     total magnetization       =    80.57 Bohr mag/cell
     absolute magnetization    =    82.25 Bohr mag/cell

     iteration # 32     ecut=    50.00 Ry     beta= 0.10
     Davidson diagonalization with overlap
     ethr =  1.48E-06,  avg # of iterations =  2.0

     negative rho (up, down):  4.731E-03 4.686E-03
 
     Adding external electric field

     Computed dipole along edir(3) : 
        Dipole               -0.4270 Ry au,         -1.0854 Debye
        Dipole field         -0.0003 Ry au, 
 
        Potential amp.        0.0287 Ry
        Total length         54.2615 bohr
 
 
     Adding external electric field

     Computed dipole along edir(3) : 
        Dipole               -0.4270 Ry au,         -1.0854 Debye
        Dipole field         -0.0003 Ry au, 
 
        Potential amp.        0.0287 Ry
        Total length         54.2615 bohr
 

     total cpu time spent up to now is      684.4 secs

     total energy              =   -7398.03578128 Ry
     estimated scf accuracy    <       0.02585687 Ry

     total magnetization       =    80.52 Bohr mag/cell
     absolute magnetization    =    82.20 Bohr mag/cell

     iteration # 33     ecut=    50.00 Ry     beta= 0.10
     Davidson diagonalization with overlap
     ethr =  1.48E-06,  avg # of iterations =  2.0

     negative rho (up, down):  8.021E-03 7.559E-03
 
     Adding external electric field

     Computed dipole along edir(3) : 
        Dipole               -0.3799 Ry au,         -0.9657 Debye
        Dipole field         -0.0002 Ry au, 
 
        Potential amp.        0.0255 Ry
        Total length         54.2615 bohr
 
 
     Adding external electric field

     Computed dipole along edir(3) : 
        Dipole               -0.3799 Ry au,         -0.9657 Debye
        Dipole field         -0.0002 Ry au, 
 
        Potential amp.        0.0255 Ry
        Total length         54.2615 bohr
 

     total cpu time spent up to now is      702.0 secs

     total energy              =   -7398.03530308 Ry
     estimated scf accuracy    <       0.03162523 Ry

     total magnetization       =    80.60 Bohr mag/cell
     absolute magnetization    =    82.29 Bohr mag/cell

     iteration # 34     ecut=    50.00 Ry     beta= 0.10
     Davidson diagonalization with overlap
     c_bands:  2 eigenvalues not converged
     ethr =  1.48E-06,  avg # of iterations = 11.0

     negative rho (up, down):  7.002E-03 6.650E-03
 
     Adding external electric field

     Computed dipole along edir(3) : 
        Dipole               -0.3963 Ry au,         -1.0073 Debye
        Dipole field         -0.0002 Ry au, 
 
        Potential amp.        0.0266 Ry
        Total length         54.2615 bohr
 
 
     Adding external electric field

     Computed dipole along edir(3) : 
        Dipole               -0.3963 Ry au,         -1.0073 Debye
        Dipole field         -0.0002 Ry au, 
 
        Potential amp.        0.0266 Ry
        Total length         54.2615 bohr
 

     total cpu time spent up to now is      725.7 secs

     total energy              =   -7398.03545670 Ry
     estimated scf accuracy    <       0.01489411 Ry

     total magnetization       =    80.55 Bohr mag/cell
     absolute magnetization    =    82.23 Bohr mag/cell

     iteration # 35     ecut=    50.00 Ry     beta= 0.10
     Davidson diagonalization with overlap
     ethr =  1.38E-06,  avg # of iterations =  1.5

     negative rho (up, down):  6.921E-03 6.747E-03
 
     Adding external electric field

     Computed dipole along edir(3) : 
        Dipole               -0.3845 Ry au,         -0.9774 Debye
        Dipole field         -0.0002 Ry au, 
 
        Potential amp.        0.0258 Ry
        Total length         54.2615 bohr
 
 
     Adding external electric field

     Computed dipole along edir(3) : 
        Dipole               -0.3845 Ry au,         -0.9774 Debye
        Dipole field         -0.0002 Ry au, 
 
        Potential amp.        0.0258 Ry
        Total length         54.2615 bohr
 

     total cpu time spent up to now is      741.5 secs

     total energy              =   -7398.03557464 Ry
     estimated scf accuracy    <       0.00958777 Ry

     total magnetization       =    80.48 Bohr mag/cell
     absolute magnetization    =    82.19 Bohr mag/cell

     iteration # 36     ecut=    50.00 Ry     beta= 0.10
     Davidson diagonalization with overlap
     ethr =  8.89E-07,  avg # of iterations =  1.5

     negative rho (up, down):  7.071E-03 6.891E-03
 
     Adding external electric field

     Computed dipole along edir(3) : 
        Dipole               -0.3749 Ry au,         -0.9529 Debye
        Dipole field         -0.0002 Ry au, 
 
        Potential amp.        0.0252 Ry
        Total length         54.2615 bohr
 
 
     Adding external electric field

     Computed dipole along edir(3) : 
        Dipole               -0.3749 Ry au,         -0.9529 Debye
        Dipole field         -0.0002 Ry au, 
 
        Potential amp.        0.0252 Ry
        Total length         54.2615 bohr
 

     total cpu time spent up to now is      757.8 secs

     total energy              =   -7398.03555096 Ry
     estimated scf accuracy    <       0.01004737 Ry

     total magnetization       =    80.45 Bohr mag/cell
     absolute magnetization    =    82.18 Bohr mag/cell

     iteration # 37     ecut=    50.00 Ry     beta= 0.10
     Davidson diagonalization with overlap
     ethr =  8.89E-07,  avg # of iterations =  1.0

     negative rho (up, down):  7.366E-03 7.072E-03
 
     Adding external electric field

     Computed dipole along edir(3) : 
        Dipole               -0.3415 Ry au,         -0.8681 Debye
        Dipole field         -0.0002 Ry au, 
 
        Potential amp.        0.0229 Ry
        Total length         54.2615 bohr
 
 
     Adding external electric field

     Computed dipole along edir(3) : 
        Dipole               -0.3415 Ry au,         -0.8681 Debye
        Dipole field         -0.0002 Ry au, 
 
        Potential amp.        0.0229 Ry
        Total length         54.2615 bohr
 

     total cpu time spent up to now is      772.9 secs

     total energy              =   -7398.03526381 Ry
     estimated scf accuracy    <       0.01008449 Ry

     total magnetization       =    80.45 Bohr mag/cell
     absolute magnetization    =    82.18 Bohr mag/cell

     iteration # 38     ecut=    50.00 Ry     beta= 0.10
     Davidson diagonalization with overlap
     ethr =  8.89E-07,  avg # of iterations =  2.0

     negative rho (up, down):  8.406E-03 8.342E-03
 
     Adding external electric field

     Computed dipole along edir(3) : 
        Dipole               -0.2667 Ry au,         -0.6778 Debye
        Dipole field         -0.0002 Ry au, 
 
        Potential amp.        0.0179 Ry
        Total length         54.2615 bohr
 
 
     Adding external electric field

     Computed dipole along edir(3) : 
        Dipole               -0.2667 Ry au,         -0.6778 Debye
        Dipole field         -0.0002 Ry au, 
 
        Potential amp.        0.0179 Ry
        Total length         54.2615 bohr
 

     total cpu time spent up to now is      790.4 secs

     total energy              =   -7398.03520492 Ry
     estimated scf accuracy    <       0.00891265 Ry

     total magnetization       =    80.47 Bohr mag/cell
     absolute magnetization    =    82.24 Bohr mag/cell

     iteration # 39     ecut=    50.00 Ry     beta= 0.10
     Davidson diagonalization with overlap
     ethr =  8.27E-07,  avg # of iterations =  2.0

     negative rho (up, down):  6.818E-03 6.828E-03
 
     Adding external electric field

     Computed dipole along edir(3) : 
        Dipole               -0.2651 Ry au,         -0.6738 Debye
        Dipole field         -0.0002 Ry au, 
 
        Potential amp.        0.0178 Ry
        Total length         54.2615 bohr
 
 
     Adding external electric field

     Computed dipole along edir(3) : 
        Dipole               -0.2651 Ry au,         -0.6738 Debye
        Dipole field         -0.0002 Ry au, 
 
        Potential amp.        0.0178 Ry
        Total length         54.2615 bohr
 

     total cpu time spent up to now is      807.5 secs

     total energy              =   -7398.03554540 Ry
     estimated scf accuracy    <       0.00695485 Ry

     total magnetization       =    80.41 Bohr mag/cell
     absolute magnetization    =    82.20 Bohr mag/cell

     iteration # 40     ecut=    50.00 Ry     beta= 0.10
     Davidson diagonalization with overlap
     ethr =  6.45E-07,  avg # of iterations =  2.0

     negative rho (up, down):  4.378E-03 4.540E-03
 
     Adding external electric field

     Computed dipole along edir(3) : 
        Dipole               -0.2446 Ry au,         -0.6217 Debye
        Dipole field         -0.0002 Ry au, 
 
        Potential amp.        0.0164 Ry
        Total length         54.2615 bohr
 
 
     Adding external electric field

     Computed dipole along edir(3) : 
        Dipole               -0.2446 Ry au,         -0.6217 Debye
        Dipole field         -0.0002 Ry au, 
 
        Potential amp.        0.0164 Ry
        Total length         54.2615 bohr
 

     total cpu time spent up to now is      824.4 secs

     total energy              =   -7398.03597055 Ry
     estimated scf accuracy    <       0.00662989 Ry

     total magnetization       =    80.47 Bohr mag/cell
     absolute magnetization    =    82.22 Bohr mag/cell

     iteration # 41     ecut=    50.00 Ry     beta= 0.10
     Davidson diagonalization with overlap
     ethr =  6.15E-07,  avg # of iterations =  2.0

     negative rho (up, down):  2.600E-03 2.750E-03
 
     Adding external electric field

     Computed dipole along edir(3) : 
        Dipole               -0.2092 Ry au,         -0.5317 Debye
        Dipole field         -0.0001 Ry au, 
 
        Potential amp.        0.0140 Ry
        Total length         54.2615 bohr
 
 
     Adding external electric field

     Computed dipole along edir(3) : 
        Dipole               -0.2092 Ry au,         -0.5317 Debye
        Dipole field         -0.0001 Ry au, 
 
        Potential amp.        0.0140 Ry
        Total length         54.2615 bohr
 

     total cpu time spent up to now is      841.9 secs

     total energy              =   -7398.03594404 Ry
     estimated scf accuracy    <       0.00454778 Ry

     total magnetization       =    80.47 Bohr mag/cell
     absolute magnetization    =    82.09 Bohr mag/cell

     iteration # 42     ecut=    50.00 Ry     beta= 0.10
     Davidson diagonalization with overlap
     ethr =  4.22E-07,  avg # of iterations =  2.0

     negative rho (up, down):  1.303E-03 1.371E-03
 
     Adding external electric field

     Computed dipole along edir(3) : 
        Dipole               -0.2160 Ry au,         -0.5489 Debye
        Dipole field         -0.0001 Ry au, 
 
        Potential amp.        0.0145 Ry
        Total length         54.2615 bohr
 
 
     Adding external electric field

     Computed dipole along edir(3) : 
        Dipole               -0.2160 Ry au,         -0.5489 Debye
        Dipole field         -0.0001 Ry au, 
 
        Potential amp.        0.0145 Ry
        Total length         54.2615 bohr
 

     total cpu time spent up to now is      858.8 secs

     total energy              =   -7398.03586717 Ry
     estimated scf accuracy    <       0.00478634 Ry

     total magnetization       =    80.48 Bohr mag/cell
     absolute magnetization    =    82.02 Bohr mag/cell

     iteration # 43     ecut=    50.00 Ry     beta= 0.10
     Davidson diagonalization with overlap
     ethr =  4.22E-07,  avg # of iterations =  2.0

     negative rho (up, down):  4.970E-04 4.416E-04
 
     Adding external electric field

     Computed dipole along edir(3) : 
        Dipole               -0.2274 Ry au,         -0.5780 Debye
        Dipole field         -0.0001 Ry au, 
 
        Potential amp.        0.0153 Ry
        Total length         54.2615 bohr
 
 
     Adding external electric field

     Computed dipole along edir(3) : 
        Dipole               -0.2274 Ry au,         -0.5780 Debye
        Dipole field         -0.0001 Ry au, 
 
        Potential amp.        0.0153 Ry
        Total length         54.2615 bohr
 

     total cpu time spent up to now is      875.7 secs

     total energy              =   -7398.03569293 Ry
     estimated scf accuracy    <       0.00259053 Ry

     total magnetization       =    80.46 Bohr mag/cell
     absolute magnetization    =    81.97 Bohr mag/cell

     iteration # 44     ecut=    50.00 Ry     beta= 0.10
     Davidson diagonalization with overlap
     ethr =  2.40E-07,  avg # of iterations =  4.5

     negative rho (up, down):  7.425E-04 6.404E-04
 
     Adding external electric field

     Computed dipole along edir(3) : 
        Dipole               -0.2122 Ry au,         -0.5393 Debye
        Dipole field         -0.0001 Ry au, 
 
        Potential amp.        0.0142 Ry
        Total length         54.2615 bohr
 
 
     Adding external electric field

     Computed dipole along edir(3) : 
        Dipole               -0.2122 Ry au,         -0.5393 Debye
        Dipole field         -0.0001 Ry au, 
 
        Potential amp.        0.0142 Ry
        Total length         54.2615 bohr
 

     total cpu time spent up to now is      894.8 secs

     total energy              =   -7398.03565128 Ry
     estimated scf accuracy    <       0.00203431 Ry

     total magnetization       =    80.47 Bohr mag/cell
     absolute magnetization    =    81.96 Bohr mag/cell

     iteration # 45     ecut=    50.00 Ry     beta= 0.10
     Davidson diagonalization with overlap
     ethr =  1.89E-07,  avg # of iterations =  2.0

     negative rho (up, down):  1.086E-03 9.574E-04
 
     Adding external electric field

     Computed dipole along edir(3) : 
        Dipole               -0.1899 Ry au,         -0.4828 Debye
        Dipole field         -0.0001 Ry au, 
 
        Potential amp.        0.0127 Ry
        Total length         54.2615 bohr
 
 
     Adding external electric field

     Computed dipole along edir(3) : 
        Dipole               -0.1899 Ry au,         -0.4828 Debye
        Dipole field         -0.0001 Ry au, 
 
        Potential amp.        0.0127 Ry
        Total length         54.2615 bohr
 

     total cpu time spent up to now is      911.8 secs

     total energy              =   -7398.03571414 Ry
     estimated scf accuracy    <       0.00195582 Ry

     total magnetization       =    80.47 Bohr mag/cell
     absolute magnetization    =    81.94 Bohr mag/cell

     iteration # 46     ecut=    50.00 Ry     beta= 0.10
     Davidson diagonalization with overlap
     ethr =  1.81E-07,  avg # of iterations =  2.0

     negative rho (up, down):  1.777E-03 1.668E-03
 
     Adding external electric field

     Computed dipole along edir(3) : 
        Dipole               -0.1469 Ry au,         -0.3735 Debye
        Dipole field         -0.0001 Ry au, 
 
        Potential amp.        0.0099 Ry
        Total length         54.2615 bohr
 
 
     Adding external electric field

     Computed dipole along edir(3) : 
        Dipole               -0.1469 Ry au,         -0.3735 Debye
        Dipole field         -0.0001 Ry au, 
 
        Potential amp.        0.0099 Ry
        Total length         54.2615 bohr
 

     total cpu time spent up to now is      928.7 secs

     total energy              =   -7398.03585824 Ry
     estimated scf accuracy    <       0.00159362 Ry

     total magnetization       =    80.46 Bohr mag/cell
     absolute magnetization    =    81.93 Bohr mag/cell

     iteration # 47     ecut=    50.00 Ry     beta= 0.10
     Davidson diagonalization with overlap
     c_bands:  5 eigenvalues not converged
     ethr =  1.48E-07,  avg # of iterations = 12.0

     negative rho (up, down):  1.942E-03 1.948E-03
 
     Adding external electric field

     Computed dipole along edir(3) : 
        Dipole               -0.1479 Ry au,         -0.3759 Debye
        Dipole field         -0.0001 Ry au, 
 
        Potential amp.        0.0099 Ry
        Total length         54.2615 bohr
 
 
     Adding external electric field

     Computed dipole along edir(3) : 
        Dipole               -0.1479 Ry au,         -0.3759 Debye
        Dipole field         -0.0001 Ry au, 
 
        Potential amp.        0.0099 Ry
        Total length         54.2615 bohr
 

     total cpu time spent up to now is      953.2 secs

     total energy              =   -7398.03590856 Ry
     estimated scf accuracy    <       0.00066374 Ry

     total magnetization       =    80.45 Bohr mag/cell
     absolute magnetization    =    81.94 Bohr mag/cell

     iteration # 48     ecut=    50.00 Ry     beta= 0.10
     Davidson diagonalization with overlap
     c_bands:  3 eigenvalues not converged
     ethr =  6.16E-08,  avg # of iterations = 11.0

     negative rho (up, down):  9.910E-04 8.664E-04
 
     Adding external electric field

     Computed dipole along edir(3) : 
        Dipole               -0.1614 Ry au,         -0.4102 Debye
        Dipole field         -0.0001 Ry au, 
 
        Potential amp.        0.0108 Ry
        Total length         54.2615 bohr
 
 
     Adding external electric field

     Computed dipole along edir(3) : 
        Dipole               -0.1614 Ry au,         -0.4102 Debye
        Dipole field         -0.0001 Ry au, 
 
        Potential amp.        0.0108 Ry
        Total length         54.2615 bohr
 

     total cpu time spent up to now is      976.8 secs

     total energy              =   -7398.03596960 Ry
     estimated scf accuracy    <       0.00028779 Ry

     total magnetization       =    80.45 Bohr mag/cell
     absolute magnetization    =    81.96 Bohr mag/cell

     iteration # 49     ecut=    50.00 Ry     beta= 0.10
     Davidson diagonalization with overlap
     ethr =  2.67E-08,  avg # of iterations =  2.0

     negative rho (up, down):  6.080E-04 4.403E-04
 
     Adding external electric field

     Computed dipole along edir(3) : 
        Dipole               -0.1654 Ry au,         -0.4205 Debye
        Dipole field         -0.0001 Ry au, 
 
        Potential amp.        0.0111 Ry
        Total length         54.2615 bohr
 
 
     Adding external electric field

     Computed dipole along edir(3) : 
        Dipole               -0.1654 Ry au,         -0.4205 Debye
        Dipole field         -0.0001 Ry au, 
 
        Potential amp.        0.0111 Ry
        Total length         54.2615 bohr
 

     total cpu time spent up to now is      993.3 secs

     total energy              =   -7398.03601609 Ry
     estimated scf accuracy    <       0.00018407 Ry

     total magnetization       =    80.45 Bohr mag/cell
     absolute magnetization    =    81.98 Bohr mag/cell

     iteration # 50     ecut=    50.00 Ry     beta= 0.10
     Davidson diagonalization with overlap
     ethr =  1.71E-08,  avg # of iterations =  2.0

     negative rho (up, down):  5.972E-04 3.899E-04
 
     Adding external electric field

     Computed dipole along edir(3) : 
        Dipole               -0.1639 Ry au,         -0.4165 Debye
        Dipole field         -0.0001 Ry au, 
 
        Potential amp.        0.0110 Ry
        Total length         54.2615 bohr
 
 
     Adding external electric field

     Computed dipole along edir(3) : 
        Dipole               -0.1639 Ry au,         -0.4165 Debye
        Dipole field         -0.0001 Ry au, 
 
        Potential amp.        0.0110 Ry
        Total length         54.2615 bohr
 

     total cpu time spent up to now is     1010.2 secs

     total energy              =   -7398.03603825 Ry
     estimated scf accuracy    <       0.00009734 Ry

     total magnetization       =    80.45 Bohr mag/cell
     absolute magnetization    =    81.99 Bohr mag/cell

     iteration # 51     ecut=    50.00 Ry     beta= 0.10
     Davidson diagonalization with overlap
     ethr =  9.03E-09,  avg # of iterations =  2.0

     negative rho (up, down):  5.465E-04 2.976E-04
 
     Adding external electric field

     Computed dipole along edir(3) : 
        Dipole               -0.1632 Ry au,         -0.4148 Debye
        Dipole field         -0.0001 Ry au, 
 
        Potential amp.        0.0110 Ry
        Total length         54.2615 bohr
 
 
     Adding external electric field

     Computed dipole along edir(3) : 
        Dipole               -0.1632 Ry au,         -0.4148 Debye
        Dipole field         -0.0001 Ry au, 
 
        Potential amp.        0.0110 Ry
        Total length         54.2615 bohr
 

     total cpu time spent up to now is     1026.9 secs

     total energy              =   -7398.03604660 Ry
     estimated scf accuracy    <       0.00007337 Ry

     total magnetization       =    80.45 Bohr mag/cell
     absolute magnetization    =    81.99 Bohr mag/cell

     iteration # 52     ecut=    50.00 Ry     beta= 0.10
     Davidson diagonalization with overlap
     ethr =  6.81E-09,  avg # of iterations =  1.5

     negative rho (up, down):  4.296E-04 1.626E-04
 
     Adding external electric field

     Computed dipole along edir(3) : 
        Dipole               -0.1629 Ry au,         -0.4141 Debye
        Dipole field         -0.0001 Ry au, 
 
        Potential amp.        0.0109 Ry
        Total length         54.2615 bohr
 
 
     Adding external electric field

     Computed dipole along edir(3) : 
        Dipole               -0.1629 Ry au,         -0.4141 Debye
        Dipole field         -0.0001 Ry au, 
 
        Potential amp.        0.0109 Ry
        Total length         54.2615 bohr
 

     total cpu time spent up to now is     1041.9 secs

     total energy              =   -7398.03604994 Ry
     estimated scf accuracy    <       0.00005071 Ry

     total magnetization       =    80.45 Bohr mag/cell
     absolute magnetization    =    81.99 Bohr mag/cell

     iteration # 53     ecut=    50.00 Ry     beta= 0.10
     Davidson diagonalization with overlap
     ethr =  4.70E-09,  avg # of iterations =  2.0

     negative rho (up, down):  5.354E-04 2.371E-04
 
     Adding external electric field

     Computed dipole along edir(3) : 
        Dipole               -0.1576 Ry au,         -0.4007 Debye
        Dipole field         -0.0001 Ry au, 
 
        Potential amp.        0.0106 Ry
        Total length         54.2615 bohr
 
 
     Adding external electric field

     Computed dipole along edir(3) : 
        Dipole               -0.1576 Ry au,         -0.4007 Debye
        Dipole field         -0.0001 Ry au, 
 
        Potential amp.        0.0106 Ry
        Total length         54.2615 bohr
 

     total cpu time spent up to now is     1058.6 secs

     total energy              =   -7398.03605391 Ry
     estimated scf accuracy    <       0.00002784 Ry

     total magnetization       =    80.45 Bohr mag/cell
     absolute magnetization    =    81.99 Bohr mag/cell

     iteration # 54     ecut=    50.00 Ry     beta= 0.10
     Davidson diagonalization with overlap
     ethr =  2.58E-09,  avg # of iterations =  1.0

     negative rho (up, down):  6.887E-04 3.721E-04
 
     Adding external electric field

     Computed dipole along edir(3) : 
        Dipole               -0.1519 Ry au,         -0.3862 Debye
        Dipole field         -0.0001 Ry au, 
 
        Potential amp.        0.0102 Ry
        Total length         54.2615 bohr
 
 
     Adding external electric field

     Computed dipole along edir(3) : 
        Dipole               -0.1519 Ry au,         -0.3862 Debye
        Dipole field         -0.0001 Ry au, 
 
        Potential amp.        0.0102 Ry
        Total length         54.2615 bohr
 

     total cpu time spent up to now is     1073.7 secs

     total energy              =   -7398.03605617 Ry
     estimated scf accuracy    <       0.00001648 Ry

     total magnetization       =    80.45 Bohr mag/cell
     absolute magnetization    =    81.99 Bohr mag/cell

     iteration # 55     ecut=    50.00 Ry     beta= 0.10
     Davidson diagonalization with overlap
     ethr =  1.53E-09,  avg # of iterations =  2.0

     negative rho (up, down):  7.688E-04 4.273E-04
 
     Adding external electric field

     Computed dipole along edir(3) : 
        Dipole               -0.1476 Ry au,         -0.3751 Debye
        Dipole field         -0.0001 Ry au, 
 
        Potential amp.        0.0099 Ry
        Total length         54.2615 bohr
 
 
     Adding external electric field

     Computed dipole along edir(3) : 
        Dipole               -0.1476 Ry au,         -0.3751 Debye
        Dipole field         -0.0001 Ry au, 
 
        Potential amp.        0.0099 Ry
        Total length         54.2615 bohr
 

     total cpu time spent up to now is     1090.9 secs

     total energy              =   -7398.03605716 Ry
     estimated scf accuracy    <       0.00000967 Ry

     total magnetization       =    80.45 Bohr mag/cell
     absolute magnetization    =    81.98 Bohr mag/cell

     iteration # 56     ecut=    50.00 Ry     beta= 0.10
     Davidson diagonalization with overlap
     ethr =  8.97E-10,  avg # of iterations =  1.0

     negative rho (up, down):  8.734E-04 5.112E-04
 
     Adding external electric field

     Computed dipole along edir(3) : 
        Dipole               -0.1445 Ry au,         -0.3673 Debye
        Dipole field         -0.0001 Ry au, 
 
        Potential amp.        0.0097 Ry
        Total length         54.2615 bohr
 
 
     Adding external electric field

     Computed dipole along edir(3) : 
        Dipole               -0.1445 Ry au,         -0.3673 Debye
        Dipole field         -0.0001 Ry au, 
 
        Potential amp.        0.0097 Ry
        Total length         54.2615 bohr
 

     total cpu time spent up to now is     1106.2 secs

     total energy              =   -7398.03605842 Ry
     estimated scf accuracy    <       0.00000612 Ry

     total magnetization       =    80.45 Bohr mag/cell
     absolute magnetization    =    81.98 Bohr mag/cell

     iteration # 57     ecut=    50.00 Ry     beta= 0.10
     Davidson diagonalization with overlap
     ethr =  5.68E-10,  avg # of iterations =  2.0

     negative rho (up, down):  9.621E-04 5.942E-04
 
     Adding external electric field

     Computed dipole along edir(3) : 
        Dipole               -0.1425 Ry au,         -0.3623 Debye
        Dipole field         -0.0001 Ry au, 
 
        Potential amp.        0.0096 Ry
        Total length         54.2615 bohr
 
 
     Adding external electric field

     Computed dipole along edir(3) : 
        Dipole               -0.1425 Ry au,         -0.3623 Debye
        Dipole field         -0.0001 Ry au, 
 
        Potential amp.        0.0096 Ry
        Total length         54.2615 bohr
 

     total cpu time spent up to now is     1123.2 secs

     total energy              =   -7398.03605906 Ry
     estimated scf accuracy    <       0.00000393 Ry

     total magnetization       =    80.45 Bohr mag/cell
     absolute magnetization    =    81.98 Bohr mag/cell

     iteration # 58     ecut=    50.00 Ry     beta= 0.10
     Davidson diagonalization with overlap
     ethr =  3.65E-10,  avg # of iterations =  1.0

     negative rho (up, down):  1.020E-03 6.488E-04
 
[...]
    -5.9991  -5.9857  -5.9566  -5.9354  -5.9162  -5.8852  -5.8504  -5.8422
    -5.8191  -5.8062  -5.7594  -5.7352  -5.7318  -5.7143  -5.6961  -5.6876
    -5.6749  -5.6697  -5.6386  -5.6231  -5.6127  -5.6000  -5.5300  -5.5126
    -5.4608  -5.4515  -5.4071  -5.4052  -5.3878  -5.3518  -5.3089  -5.2859
    -5.2429  -5.2143  -5.1891  -5.1807  -5.1685  -5.0853  -5.0805  -5.0585
    -4.9976  -4.9655  -4.9541  -4.9154  -4.8917  -4.8711  -4.8506  -4.7994
    -4.7827  -4.7659  -4.7631  -4.7347  -4.6448  -4.6322  -4.5827  -4.5498
    -4.5311  -4.5212  -4.4980  -4.4509  -4.4180  -4.3992  -4.3819  -4.3726
    -4.3638  -4.2955  -4.2934  -4.2306  -4.1765  -4.1479  -4.1099  -4.0946
    -4.0791  -4.0452  -4.0402  -4.0049  -3.9625  -3.9554  -3.9112  -3.9021
    -3.8849  -3.8461  -3.8265  -3.8172  -3.8057  -3.7705  -3.7451  -3.7342
    -3.7081  -3.6848  -3.6674  -3.6552  -3.6430  -3.6317  -3.6044  -3.5798
    -3.5470  -3.5282  -3.5244  -3.5031  -3.5011  -3.4869  -3.4533  -3.4460
    -3.4160  -3.4059  -3.3858  -3.3532  -3.3452  -3.3073  -3.2768  -3.2596
    -3.2370  -3.2202  -3.2094  -3.1920  -3.1737  -3.1670  -3.1492  -3.1432
    -3.1212  -3.0858  -3.0425  -3.0291  -3.0145  -2.9952  -2.9672  -2.9574
    -2.9254  -2.9168  -2.8984  -2.8740  -2.8614  -2.8467  -2.8222  -2.8125
    -2.7986  -2.7906  -2.7847  -2.7765  -2.7549  -2.7462  -2.7255  -2.7064
    -2.6904  -2.6671  -2.6652  -2.6525  -2.6253  -2.6112  -2.5959  -2.5826
    -2.5501  -2.5365  -2.5221  -2.5116  -2.4923  -2.4885  -2.4698  -2.4458
    -2.4268  -2.4020  -2.3901  -2.3688  -2.3523  -2.3160  -2.3017  -2.2864
    -2.2651  -2.2512  -2.2382  -2.2094  -2.1708  -2.1632  -2.1331  -2.1292
    -2.1137  -2.0866  -2.0836  -2.0736  -2.0667  -2.0407  -2.0089  -1.9933
    -1.9767  -1.9649  -1.9559  -1.9385  -1.9352  -1.9170  -1.9009  -1.8717
    -1.8469  -1.8212  -1.7934  -1.7680  -1.7393  -1.7292  -1.7095  -1.6992
    -1.6797  -1.6573  -1.6484  -1.6312  -1.6138  -1.6003  -1.5800  -1.5491
    -1.5331  -1.5173  -1.4904  -1.4685  -1.4569  -1.4297  -1.4221  -1.4188
    -1.4097  -1.3752  -1.3461  -1.3118  -1.2992  -1.2489  -1.2253  -1.2069
    -1.1554  -1.0955  -1.0766  -1.0532  -1.0142  -0.9272  -0.9027  -0.8769
    -0.7700  -0.6684  -0.6148  -0.6141  -0.4641  -0.3673  -0.3460  -0.2597
     0.1011   0.1243   0.1534   0.1893   0.2234   0.2425   0.2585   0.2693
     0.2815   0.2895   0.2975   0.3052   0.3120   0.3309   0.3417   0.3422
     0.3546   0.3603   0.3701   0.3769   0.3852   0.3899   0.3973   0.3993
     0.4088   0.4114   0.4237   0.4349   0.4451   0.4529   0.4552   0.4585
     0.4636   0.4647   0.4739   0.4804   0.4917   0.4984   0.5021   0.5114
     0.5160   0.5326   0.5382   0.5461   0.5586   0.5608   0.5651   0.5729
     0.5793   0.5868   0.5924   0.5968   0.6043   0.6130   0.6244   0.6325
     0.6439   0.6541   0.6599   0.6613   0.6649   0.6738   0.6829   0.6857
     0.6935   0.7017   0.7090   0.7133   0.7173   0.7230   0.7419   0.7452
     0.7483   0.7529   0.7772   0.7849   0.7866   0.7961   0.8058   0.8238
     0.8378   0.8412   0.8418   0.8524   0.8628   0.8650   0.8780   0.8816
     0.8957   0.8979   0.9120   0.9163   0.9251   0.9854   1.0125   1.0163
     1.0707   1.1347   1.6086   1.6572   1.6961   1.6998   1.7130   1.7422
     1.7578   1.8389   1.8698   1.8734   1.8901   1.9180   1.9320   1.9622
     1.9894   1.9950   2.0117   2.0183   2.0554   2.0705   2.0788   2.1166
     2.1440   2.1568   2.1820   2.1890   2.1950   2.2139   2.2233   2.2363
     2.2506   2.2546   2.2653   2.2821   2.2903   2.2989   2.3036   2.3230
     2.3333   2.3412   2.3697   2.3825   2.4097   2.4150   2.4173   2.4374
     2.4526   2.4728   2.4957   2.4987   2.5141   2.5327   2.5386   2.5518
     2.5796   2.5912   2.6275   2.6440   2.6652   2.6887   2.7303   2.7551
     2.7855   2.8337   2.8424   2.8890   2.9035   3.5609   3.5894   3.6639
     3.7311   3.8185   3.8289   3.8430   3.8597   3.9973   4.0608   4.5576
     4.6406   4.7000   4.7728   4.9235   4.9447   5.0186   5.4134   6.2929
     6.3599   6.5421   6.5801   6.7369   6.8299   6.8421   6.8790   6.9241
     7.0264   7.0798   7.0890   7.1229   7.3175   7.3666   7.3886   7.4276
     7.5032   7.5420   7.6573   7.6756   7.6903   7.7263   7.7913   7.8055
     7.8482   7.9205   7.9608   7.9733   8.0081   8.0206   8.0479   8.0708
     8.0977   8.1168   8.1700   8.2016   8.2343   8.2496   8.2840   8.3202
     8.3760   8.3998   8.4144   8.4612   8.4726   8.4751   8.4990   8.5124
     8.5489   8.5524   8.5914   8.5953   8.6120   8.6342   8.6698   8.6787
     8.7146   8.7525   8.7706   8.7949   8.8357   8.8468   8.8601

     the Fermi energy is     1.5643 ev

!    total energy              =   -7398.03605846 Ry
     estimated scf accuracy    <       0.00000082 Ry
     smearing contrib. (-TS)   =      -0.01419148 Ry
     internal energy E=F+TS    =   -7398.02186698 Ry

     The total energy is F=E-TS. E is the sum of the following terms:
     one-electron contribution =  -91724.03896737 Ry
     hartree contribution      =   46509.92174991 Ry
     xc contribution           =   -2260.27142058 Ry
     ewald contribution        =   40078.20062750 Ry
     Dispersion Correction     =      -1.83387006 Ry
     electric field correction =       0.00001362 Ry

     total magnetization       =    80.45 Bohr mag/cell
     absolute magnetization    =    81.98 Bohr mag/cell

     convergence has been achieved in  60 iterations

     negative rho (up, down):  9.283E-04 5.460E-04

     Forces acting on atoms (cartesian axes, Ry/au):

     atom    1 type  2   force =     0.03096291   -0.01971031   -0.01662314
     atom    2 type  1   force =     0.00218239   -0.00393676   -0.01071823
     atom    3 type  1   force =    -0.02166211   -0.02075672    0.01781542
     atom    4 type  1   force =     0.00142615    0.01015336   -0.01273013
     atom    5 type  1   force =    -0.00484674    0.02906554   -0.01874891
     atom    6 type  1   force =     0.00586104    0.00052895   -0.00074323
     atom    7 type  1   force =     0.02701596   -0.02102385    0.01707457
     atom    8 type  1   force =    -0.00967186   -0.00303690   -0.01109005
     atom    9 type  1   force =    -0.02986264   -0.01833056    0.01580316
     atom   10 type  1   force =    -0.00110348    0.00798461   -0.01304732
     atom   11 type  1   force =    -0.01316067    0.03046717   -0.02092413
     atom   12 type  1   force =     0.00133772    0.00665591   -0.00441999
     atom   13 type  3   force =     0.05099780   -0.11003469    0.00916973
     atom   14 type  3   force =    -0.02903571    0.03594206   -0.06520775
     atom   15 type  3   force =    -0.00920067    0.17547582   -0.08317903
     atom   16 type  3   force =     0.06071388    0.00054578   -0.00438746
     atom   17 type  4   force =     0.01514579   -0.02186549   -0.00982127
     atom   18 type  4   force =    -0.00540544    0.00483161    0.02968079
     atom   19 type  4   force =     0.00216636    0.00101170    0.03073816
     atom   20 type  4   force =     0.00514630    0.00185758    0.00232114
     atom   21 type  4   force =     0.00048591   -0.01201927    0.00006189
     atom   22 type  4   force =    -0.00090916    0.00385205    0.03249736
     atom   23 type  4   force =    -0.00608208    0.01464315    0.02748140
     atom   24 type  4   force =     0.00871509    0.00318677   -0.00419623
     atom   25 type  4   force =     0.00652541   -0.00316439    0.00157994
     atom   26 type  4   force =     0.03119559   -0.17831251    0.00721631
     atom   27 type  4   force =     0.00278692    0.00100213    0.00170907
     atom   28 type  4   force =    -0.01701882    0.00167852    0.00472941
     atom   29 type  4   force =     0.09133556    0.00311618    0.00803289
     atom   30 type  4   force =     0.01307847   -0.02513867   -0.00092650
     atom   31 type  4   force =    -0.03849429    0.13344107   -0.00015876
     atom   32 type  4   force =    -0.00542590   -0.01187126    0.00654111
     atom   33 type  3   force =     0.04157865   -0.11919273    0.00961069
     atom   34 type  3   force =    -0.10166164    0.04258590   -0.07575977
     atom   35 type  3   force =    -0.01351594    0.16599152   -0.08811897
     atom   36 type  3   force =    -0.00358945    0.00255968   -0.01044325
     atom   37 type  4   force =     0.00822566   -0.01470400   -0.00240352
     atom   38 type  4   force =    -0.00587292   -0.00169710    0.02741953
     atom   39 type  4   force =    -0.00467001    0.00724280    0.03215861
     atom   40 type  4   force =     0.00131882    0.00001326    0.00243357
     atom   41 type  4   force =    -0.00153201   -0.00967342   -0.00141090
     atom   42 type  4   force =     0.00542693   -0.00055288    0.02940292
     atom   43 type  4   force =    -0.01045870    0.01347351    0.02712514
     atom   44 type  4   force =     0.00449929    0.00343264   -0.00436646
     atom   45 type  4   force =    -0.00026534   -0.00053449    0.00203883
     atom   46 type  4   force =     0.02814194   -0.17053047    0.00539346
     atom   47 type  4   force =    -0.06561741   -0.00073964   -0.00309316
     atom   48 type  4   force =    -0.01983202    0.00391598    0.00528332
     atom   49 type  4   force =     0.01406305    0.00084467    0.00202414
     atom   50 type  4   force =     0.00795043   -0.02435610   -0.00018049
     atom   51 type  4   force =    -0.03978096    0.13342309   -0.00133439
     atom   52 type  4   force =    -0.00772724   -0.01066141    0.00877818
     atom   53 type  2   force =     0.00647368   -0.00733458    0.00579748
     atom   54 type  1   force =     0.00111672   -0.00391102    0.00701692
     atom   55 type  1   force =     0.00500629   -0.00632217    0.00686478
     atom   56 type  1   force =    -0.00089545    0.00725084   -0.00077282
     atom   57 type  1   force =     0.00052668    0.02209249   -0.01397559
     atom   58 type  1   force =     0.00159252   -0.00339518    0.00260932
     atom   59 type  1   force =     0.00249626   -0.01013277    0.00399220
     atom   60 type  1   force =    -0.00753392   -0.00357509    0.00382990
     atom   61 type  1   force =    -0.00475209   -0.00500435    0.00689291
     atom   62 type  1   force =    -0.00226463    0.00500821    0.00216787
     atom   63 type  1   force =    -0.01080347    0.02514726   -0.01729922
     atom   64 type  1   force =    -0.00229346    0.00116787   -0.00051673
     atom   65 type  3   force =     0.04666221   -0.11945606    0.01681607
     atom   66 type  3   force =     0.00155723   -0.00439619    0.00067883
     atom   67 type  3   force =    -0.04056121    0.12365550   -0.00692137
     atom   68 type  3   force =     0.06322214   -0.00244815    0.00828919
     atom   69 type  4   force =     0.01276356   -0.01737600   -0.00201805
     atom   70 type  4   force =    -0.00172698    0.00342359   -0.00061679
     atom   71 type  4   force =    -0.00190238    0.00338053    0.00524179
     atom   72 type  4   force =     0.00474192    0.00156235    0.00092460
     atom   73 type  4   force =     0.00669221   -0.01712556    0.01176415
     atom   74 type  4   force =    -0.00443683   -0.00331527    0.00929186
     atom   75 type  4   force =     0.00354528    0.00866021    0.00453859
     atom   76 type  4   force =     0.00536087    0.00015446    0.00098966
     atom   77 type  4   force =     0.00600312   -0.00134018   -0.00071738
     atom   78 type  4   force =     0.04530688   -0.14086221    0.00579790
     atom   79 type  4   force =     0.00031865    0.00029444   -0.00095609
     atom   80 type  4   force =     0.00147054    0.00184606    0.00228797
     atom   81 type  4   force =     0.06739612    0.00010677    0.00656373
     atom   82 type  4   force =     0.00017678    0.00234692    0.00132125
     atom   83 type  4   force =    -0.03959324    0.13735076   -0.00226288
     atom   84 type  4   force =    -0.00209220   -0.01049635    0.00360148
     atom   85 type  3   force =     0.03901329   -0.12281295    0.02653526
     atom   86 type  3   force =    -0.06320755   -0.00177533   -0.00384053
     atom   87 type  3   force =    -0.04621003    0.12089808   -0.01039748
     atom   88 type  3   force =     0.00006992   -0.00106764    0.00188558
     atom   89 type  4   force =     0.00869249   -0.01534478   -0.00506047
     atom   90 type  4   force =    -0.00449018    0.00109494   -0.00073311
     atom   91 type  4   force =    -0.00946279    0.00833561    0.00556003
     atom   92 type  4   force =     0.00024983    0.00003272   -0.00002840
     atom   93 type  4   force =     0.00187855   -0.01184560    0.00091852
     atom   94 type  4   force =    -0.00908940   -0.00293377    0.00833912
     atom   95 type  4   force =    -0.00028792    0.00775929    0.00297672
     atom   96 type  4   force =    -0.00122118    0.00205406   -0.00200158
     atom   97 type  4   force =    -0.00097117    0.00161017   -0.00029590
     atom   98 type  4   force =     0.04066740   -0.13925817    0.00487889
     atom   99 type  4   force =    -0.06734159   -0.00068128   -0.00570336
     atom  100 type  4   force =    -0.00046937    0.00280543    0.00288073
     atom  101 type  4   force =    -0.00117049    0.00009954    0.00144827
     atom  102 type  4   force =    -0.00686249    0.00547121    0.00159430
     atom  103 type  4   force =    -0.03983518    0.13542619   -0.00465435
     atom  104 type  4   force =    -0.00541611   -0.01020721    0.00530275
     atom  105 type  2   force =     0.00006786    0.00029409   -0.00022850
     atom  106 type  1   force =     0.00005582   -0.00043767   -0.00005228
     atom  107 type  1   force =    -0.00043080   -0.00068131   -0.00032265
     atom  108 type  1   force =    -0.00020974   -0.00059926    0.00014704
     atom  109 type  1   force =     0.00017388   -0.00029042   -0.00047869
     atom  110 type  1   force =    -0.00011871   -0.00018334    0.00016753
     atom  111 type  1   force =    -0.00004011    0.00026795   -0.00006418
     atom  112 type  1   force =     0.00002800   -0.00041723    0.00015535
     atom  113 type  1   force =    -0.00035885   -0.00053274   -0.00087988
     atom  114 type  1   force =    -0.00157896    0.00059700   -0.00149527
     atom  115 type  1   force =     0.00023722    0.00015718   -0.00001025
     atom  116 type  1   force =     0.00008644   -0.00003956   -0.00035142
     atom  117 type  3   force =     0.00045885    0.00025113   -0.00071702
     atom  118 type  3   force =    -0.00043125   -0.00021071   -0.00021433
     atom  119 type  3   force =    -0.00004120   -0.00000464    0.00038611
     atom  120 type  3   force =     0.00039354    0.00024673   -0.00022918
     atom  121 type  4   force =     0.00003205   -0.00006718    0.00022398
     atom  122 type  4   force =    -0.00010426    0.00006379   -0.00013925
     atom  123 type  4   force =     0.00023723    0.00009977    0.00019851
     atom  124 type  4   force =     0.00023452   -0.00038535   -0.00008707
     atom  125 type  4   force =    -0.00021072   -0.00028235    0.00048425
     atom  126 type  4   force =     0.00018124   -0.00039817   -0.00008434
     atom  127 type  4   force =    -0.00002305    0.00019759    0.00031957
     atom  128 type  4   force =    -0.00078238   -0.00049383   -0.00000022
     atom  129 type  4   force =    -0.00063363    0.00065142   -0.00023759
     atom  130 type  4   force =     0.00023681    0.00020713    0.00016840
     atom  131 type  4   force =    -0.00003132   -0.00090001    0.00049593
     atom  132 type  4   force =    -0.00002950   -0.00011734   -0.00021186
     atom  133 type  4   force =    -0.00011707   -0.00023826   -0.00017766
     atom  134 type  4   force =     0.00003011   -0.00027111   -0.00001250
     atom  135 type  4   force =    -0.00029182   -0.00024166    0.00014121
     atom  136 type  4   force =    -0.00007316   -0.00007294   -0.00000822
     atom  137 type  3   force =    -0.00068937   -0.00026788   -0.00022716
     atom  138 type  3   force =     0.00015020    0.00003349   -0.00010951
     atom  139 type  3   force =    -0.00007290   -0.00036775   -0.00036011
     atom  140 type  3   force =    -0.00008219   -0.00005029   -0.00053387
     atom  141 type  4   force =     0.00089740    0.00044684    0.00062048
     atom  142 type  4   force =    -0.00023597    0.00014729    0.00000703
     atom  143 type  4   force =     0.00003654   -0.00018203    0.00024629
     atom  144 type  4   force =     0.00014532    0.00070569   -0.00063329
     atom  145 type  4   force =     0.00000656   -0.00017797    0.00025985
     atom  146 type  4   force =     0.00013294   -0.00022601    0.00023868
     atom  147 type  4   force =     0.00012572    0.00010786   -0.00016058
     atom  148 type  4   force =    -0.00057912    0.00018062    0.00036445
     atom  149 type  4   force =     0.00044096   -0.00015590    0.00002663
     atom  150 type  4   force =     0.00021048   -0.00014602   -0.00000310
     atom  151 type  4   force =     0.00008214   -0.00003421   -0.00023930
     atom  152 type  4   force =     0.00028502   -0.00035784    0.00029647
     atom  153 type  4   force =     0.00023517    0.00001882   -0.00004240
     atom  154 type  4   force =    -0.00043448   -0.00048717   -0.00006956
     atom  155 type  4   force =     0.00028138    0.00067305   -0.00021916
     atom  156 type  4   force =    -0.00055742    0.00007207   -0.00002449
     atom  157 type  4   force =     0.01316915    0.00619275    0.00505348
     atom  158 type  5   force =    -0.01048521   -0.00599113   -0.00229061

     Total force =     0.664976     Total SCF correction =     0.004511
 
     init_run     :     10.60s CPU     11.46s WALL (       1 calls)
     electrons    :   1107.12s CPU   1157.44s WALL (       1 calls)
     forces       :      5.98s CPU      6.39s WALL (       1 calls)
     force_london :      0.12s CPU      0.12s WALL (       1 calls)

     Called by init_run:
     wfcinit      :      6.26s CPU      6.50s WALL (       1 calls)
     potinit      :      0.70s CPU      0.88s WALL (       1 calls)
     hinit0       :      1.73s CPU      1.84s WALL (       1 calls)

     Called by electrons:
     c_bands      :    857.15s CPU    883.50s WALL (      60 calls)
     sum_band     :    153.79s CPU    166.54s WALL (      60 calls)
     v_of_rho     :     15.85s CPU     16.93s WALL (      61 calls)
     newd         :     58.88s CPU     69.12s WALL (      61 calls)
     mix_rho      :     21.08s CPU     21.25s WALL (      60 calls)
     energy_londo :      0.11s CPU      0.11s WALL (       1 calls)

     Called by c_bands:
     init_us_2    :      2.21s CPU      2.29s WALL (     244 calls)
     init_us_2:cp :      2.21s CPU      2.29s WALL (     244 calls)
     regterg      :    838.13s CPU    864.17s WALL (     124 calls)

     Called by *egterg:
     rdiaghg      :    216.91s CPU    229.12s WALL (     595 calls)
     h_psi        :    323.80s CPU    330.36s WALL (     597 calls)
     s_psi        :     58.17s CPU     58.20s WALL (     597 calls)
     g_psi        :      0.41s CPU      0.41s WALL (     471 calls)

     Called by h_psi:
     h_psi:calbec :     93.55s CPU     98.72s WALL (     597 calls)
     vloc_psi     :    171.29s CPU    172.08s WALL (     597 calls)
     add_vuspsi   :     58.23s CPU     58.83s WALL (     597 calls)

     General routines
     calbec       :    135.45s CPU    143.06s WALL (     725 calls)
     fft          :     39.65s CPU     40.98s WALL (    1111 calls)
     ffts         :     11.36s CPU     11.40s WALL (    7439 calls)
     fftw         :    193.18s CPU    194.01s WALL (  207330 calls)
     interpolate  :      1.41s CPU      1.51s WALL (     122 calls)
 
     Parallel routines
 
     PWSCF        :  18m46.40s CPU  19m38.29s WALL

 
   This run was terminated on:  19:57:29  19Nov2025            

=------------------------------------------------------------------------------=
   JOB DONE.
=------------------------------------------------------------------------------=
