
     Program PWSCF v.7.2 starts on 19Nov2025 at 19:57:33 

     This program is part of the open-source Quantum ESPRESSO suite
     for quantum simulation of materials; please cite
         "P. Giannozzi et al., J. Phys.:Condens. Matter 21 395502 (2009);
         "P. Giannozzi et al., J. Phys.:Condens. Matter 29 465901 (2017);
         "P. Giannozzi et al., J. Chem. Phys. 152 154105 (2020);
          URL http://www.quantum-espresso.org", 
     in publications or presentations arising from this work. More details at
     http://www.quantum-espresso.org/quote

     Parallel version (MPI), running on    64 processors

     MPI processes distributed on     4 nodes
     368716 MiB available memory on the printing compute node when the environment starts
 
     Reading input from PWINPUT_atm157_yp

     Current dimensions of program PWSCF are:
     Max number of different atomic species (ntypx) = 10
     Max number of k-points (npk) =  40000
     Max angular momentum in pseudopotentials (lmaxx) =  4
     Presently no symmetry can be used with electric field

     file Ni.pbe-n-rrkjus_psl.1.0.0.UPF: wavefunction(s)  3D renormalized
     file Mn.pbe-spn-rrkjus_psl.0.3.1.UPF: wavefunction(s)  3D renormalized
     file O.pbe-rrkjus.UPF: wavefunction(s)  2S renormalized
     file H.pbe-rrkjus.UPF: wavefunction(s)  1S renormalized

     gamma-point specific algorithms are used
 
     R & G space division:  proc/nbgrp/npool/nimage =      64
     Subspace diagonalization in iterative solution of the eigenvalue problem:
     one sub-group per band group will be used
     custom distributed-memory algorithm (size of sub-group:  6*  6 procs)

 
     Parallelization info
     --------------------
     sticks:   dense  smooth     PW     G-vecs:    dense   smooth      PW
     Min         208      82     20                59912    15118    1876
     Max         210      84     22                59974    15196    1926
     Sum       13399    5355   1345              3836275   970529  121367
 
     Using Slab Decomposition
 


     bravais-lattice index     =            0
     lattice parameter (alat)  =      17.7004  a.u.
     unit-cell volume          =   20319.7251 (a.u.)^3
     number of atoms/cell      =          158
     number of atomic types    =            5
     number of electrons       =      1078.00
     number of Kohn-Sham states=          647
     kinetic-energy cutoff     =      50.0000  Ry
     charge density cutoff     =     500.0000  Ry
     scf convergence threshold =      1.0E-06
     mixing beta               =       0.1000
     number of iterations used =            8  local-TF  mixing
     Exchange-correlation=  SLA  PW   PBE  PBE
                           (   1   4   3   4   0   0   0)

     celldm(1)=  17.700384  celldm(2)=   0.000000  celldm(3)=   0.000000
     celldm(4)=   0.000000  celldm(5)=   0.000000  celldm(6)=   0.000000

     crystal axes: (cart. coord. in units of alat)
               a(1) = (   1.000000   0.000000   0.000000 )  
               a(2) = (   0.000000   1.075730   0.000000 )  
               a(3) = (   0.000000   0.000000   3.406172 )  

     reciprocal axes: (cart. coord. in units 2 pi/alat)
               b(1) = (  1.000000  0.000000  0.000000 )  
               b(2) = (  0.000000  0.929602  0.000000 )  
               b(3) = (  0.000000  0.000000  0.293585 )  


     PseudoPot. # 1 for Ni read from file:
     ~/PSEUDO/Ni.pbe-n-rrkjus_psl.1.0.0.UPF
     MD5 check sum: Not computed, couldn't open file
     Pseudo is Ultrasoft + core correction, Zval = 10.0
     Generated using "atomic" code by A. Dal Corso  v.5.1.2
     Using radial grid of 1195 points,  6 beta functions with: 
                l(1) =   0
                l(2) =   0
                l(3) =   1
                l(4) =   1
                l(5) =   2
                l(6) =   2
     Q(r) pseudized with 0 coefficients 


     PseudoPot. # 2 for Mn read from file:
     ~/PSEUDO/Mn.pbe-spn-rrkjus_psl.0.3.1.UPF
     MD5 check sum: Not computed, couldn't open file
     Pseudo is Ultrasoft + core correction, Zval = 15.0
     Generated using &quot;atomic&quot; code by A. Dal Corso  v.6.2.2
     Using radial grid of 1187 points,  6 beta functions with: 
                l(1) =   0
                l(2) =   0
                l(3) =   1
                l(4) =   1
                l(5) =   2
                l(6) =   2
     Q(r) pseudized with 0 coefficients 


     PseudoPot. # 3 for P  read from file:
     ~/PSEUDO/P.pbe-n-rrkjus_psl.1.0.0.UPF
     MD5 check sum: Not computed, couldn't open file
     Pseudo is Ultrasoft + core correction, Zval =  5.0
     Generated using "atomic" code by A. Dal Corso  v.5.1
     Using radial grid of 1147 points,  6 beta functions with: 
                l(1) =   0
                l(2) =   0
                l(3) =   1
                l(4) =   1
                l(5) =   2
                l(6) =   2
     Q(r) pseudized with 0 coefficients 


     PseudoPot. # 4 for O  read from file:
     ~/PSEUDO/O.pbe-rrkjus.UPF
     MD5 check sum: Not computed, couldn't open file
     Pseudo is Ultrasoft, Zval =  6.0
     Generated by new atomic code, or converted to UPF format
     Using radial grid of 1269 points,  4 beta functions with: 
                l(1) =   0
                l(2) =   0
                l(3) =   1
                l(4) =   1
     Q(r) pseudized with 0 coefficients 


     PseudoPot. # 5 for H  read from file:
     ~/PSEUDO/H.pbe-rrkjus.UPF
     MD5 check sum: Not computed, couldn't open file
     Pseudo is Ultrasoft, Zval =  1.0
     Generated by new atomic code, or converted to UPF format
     Using radial grid of 1061 points,  2 beta functions with: 
                l(1) =   0
                l(2) =   0
     Q(r) pseudized with 0 coefficients 


     atomic species   valence    mass     pseudopotential
     Ni               10.00    58.69300     Ni( 1.00)
     Mn               15.00    54.93800     Mn( 1.00)
     P                 5.00    30.97300     P ( 1.00)
     O                 6.00    15.99900     O ( 1.00)
     H                 1.00     1.00790     H ( 1.00)

     Starting magnetic structure 
     atomic species   magnetization
     Ni              1.000
     Mn              1.000
     P               1.000
     O               1.000
     H               0.000

     No symmetry found



   Cartesian axes

     site n.     atom                  positions (alat units)
         1        Mn     tau(   1) = (   0.2404744   0.8371250   0.1168501  )
         2        Ni     tau(   2) = (   0.4968126   0.7726670   0.4415546  )
         3        Ni     tau(   3) = (   0.0066150   0.2936743   0.1241053  )
         4        Ni     tau(   4) = (   0.2585722   0.2355858   0.4448848  )
         5        Ni     tau(   5) = (   0.9987350   1.0696411   0.2854926  )
         6        Ni     tau(   6) = (   0.2517397   0.5330511   0.2829322  )
         7        Ni     tau(   7) = (   0.7451645   0.8337543   0.1221751  )
         8        Ni     tau(   8) = (   0.9939181   0.7738804   0.4407595  )
         9        Ni     tau(   9) = (   0.5111533   0.2924088   0.1251865  )
        10        Ni     tau(  10) = (   0.7606326   0.2319267   0.4451372  )
        11        Ni     tau(  11) = (   0.5024065   1.0688133   0.2870502  )
        12        Ni     tau(  12) = (   0.7529977   0.5317900   0.2845227  )
        13        P      tau(  13) = (   0.2092944   0.9731097   0.4345035  )
        14        P      tau(  14) = (   0.4655727   0.6359535   0.1274635  )
        15        P      tau(  15) = (   0.2910699   0.1027363   0.1296098  )
        16        P      tau(  16) = (   0.0396216   0.4288395   0.4398838  )
        17        O      tau(  17) = (   0.1294378   0.9013260   0.3010618  )
        18        O      tau(  18) = (   0.3874505   0.7054774   0.2637003  )
        19        O      tau(  19) = (   0.3702540   0.1714799   0.2660028  )
        20        O      tau(  20) = (   0.1184398   0.3582958   0.3038353  )
        21        O      tau(  21) = (   0.1451572   0.8850881   0.5587578  )
        22        O      tau(  22) = (   0.4048762   0.7245585   0.0017492  )
        23        O      tau(  23) = (   0.3523506   0.1900579   0.0035744  )
        24        O      tau(  24) = (   0.1017610   0.3410484   0.5656572  )
        25        O      tau(  25) = (   0.0975396   0.5849288   0.4357922  )
        26        O      tau(  26) = (   0.3483552   1.0314945   0.1270322  )
        27        O      tau(  27) = (   0.3784305   0.4225118   0.4308928  )
        28        O      tau(  28) = (   0.1268237   0.1067944   0.1392744  )
        29        O      tau(  29) = (   0.1212267   0.6424170   0.1362896  )
        30        O      tau(  30) = (   0.4053315   0.4809387   0.1300622  )
        31        O      tau(  31) = (   0.1536621   0.0446918   0.4373386  )
        32        O      tau(  32) = (   0.3732349   0.9631717   0.4256642  )
        33        P      tau(  33) = (   0.7119823   0.9695974   0.4373010  )
        34        P      tau(  34) = (   0.9615208   0.6363392   0.1262932  )
        35        P      tau(  35) = (   0.7927710   0.0970060   0.1292164  )
        36        P      tau(  36) = (   0.5426404   0.4269675   0.4410738  )
        37        O      tau(  37) = (   0.6326879   0.8991182   0.3013240  )
        38        O      tau(  38) = (   0.8842163   0.7083206   0.2625155  )
        39        O      tau(  39) = (   0.8716178   0.1677751   0.2653504  )
        40        O      tau(  40) = (   0.6212010   0.3558666   0.3051085  )
        41        O      tau(  41) = (   0.6507714   0.8812342   0.5631722  )
        42        O      tau(  42) = (   0.9014054   0.7264458   0.0010676  )
        43        O      tau(  43) = (   0.8548963   0.1847909   0.0035471  )
        44        O      tau(  44) = (   0.6044469   0.3378706   0.5660366  )
        45        O      tau(  45) = (   0.6024424   0.5823140   0.4379016  )
        46        O      tau(  46) = (   0.8498940   1.0254482   0.1275156  )
        47        O      tau(  47) = (   0.8798395   0.4205825   0.4305771  )
        48        O      tau(  48) = (   0.6286921   0.1034636   0.1397346  )
        49        O      tau(  49) = (   0.6294973   0.6427753   0.1372553  )
        50        O      tau(  50) = (   0.9024339   0.4810312   0.1296418  )
        51        O      tau(  51) = (   0.6547812   0.0410987   0.4396636  )
        52        O      tau(  52) = (   0.8760507   0.9632605   0.4264507  )
        53        Mn     tau(  53) = (   0.2404744   0.8246335   0.7367378  )
        54        Ni     tau(  54) = (   0.4968126   0.7601755   1.0614423  )
        55        Ni     tau(  55) = (   0.0066150   0.2811828   0.7439929  )
        56        Ni     tau(  56) = (   0.2585722   0.2230943   1.0647725  )
        57        Ni     tau(  57) = (   0.9987350   1.0571496   0.9053803  )
        58        Ni     tau(  58) = (   0.2517397   0.5205596   0.9028199  )
        59        Ni     tau(  59) = (   0.7451645   0.8212628   0.7420628  )
        60        Ni     tau(  60) = (   0.9939181   0.7613889   1.0606471  )
        61        Ni     tau(  61) = (   0.5111533   0.2799173   0.7450742  )
        62        Ni     tau(  62) = (   0.7606326   0.2194352   1.0650249  )
        63        Ni     tau(  63) = (   0.5024065   1.0563218   0.9069379  )
        64        Ni     tau(  64) = (   0.7529977   0.5192985   0.9044104  )
        65        P      tau(  65) = (   0.2092944   0.9606182   1.0543912  )
        66        P      tau(  66) = (   0.4655727   0.6234620   0.7473512  )
        67        P      tau(  67) = (   0.2910699   0.0902448   0.7494974  )
        68        P      tau(  68) = (   0.0396216   0.4163480   1.0597715  )
        69        O      tau(  69) = (   0.1294378   0.8888345   0.9209495  )
        70        O      tau(  70) = (   0.3874505   0.6929859   0.8835880  )
        71        O      tau(  71) = (   0.3702540   0.1589885   0.8858904  )
        72        O      tau(  72) = (   0.1184398   0.3458043   0.9237230  )
        73        O      tau(  73) = (   0.1451572   0.8725966   1.1786454  )
        74        O      tau(  74) = (   0.4048762   0.7120670   0.6216369  )
        75        O      tau(  75) = (   0.3523506   0.1775664   0.6234620  )
        76        O      tau(  76) = (   0.1017610   0.3285569   1.1855448  )
        77        O      tau(  77) = (   0.0975396   0.5724373   1.0556799  )
        78        O      tau(  78) = (   0.3483552   1.0190030   0.7469198  )
        79        O      tau(  79) = (   0.3784305   0.4100203   1.0507804  )
        80        O      tau(  80) = (   0.1268237   0.0943029   0.7591620  )
        81        O      tau(  81) = (   0.1212267   0.6299255   0.7561772  )
        82        O      tau(  82) = (   0.4053315   0.4684472   0.7499499  )
        83        O      tau(  83) = (   0.1536621   0.0322003   1.0572263  )
        84        O      tau(  84) = (   0.3732349   0.9506802   1.0455518  )
        85        P      tau(  85) = (   0.7119823   0.9571059   1.0571887  )
        86        P      tau(  86) = (   0.9615208   0.6238477   0.7461808  )
        87        P      tau(  87) = (   0.7927710   0.0845145   0.7491041  )
        88        P      tau(  88) = (   0.5426404   0.4144760   1.0609615  )
        89        O      tau(  89) = (   0.6326879   0.8866267   0.9212117  )
        90        O      tau(  90) = (   0.8842163   0.6958291   0.8824032  )
        91        O      tau(  91) = (   0.8716178   0.1552836   0.8852381  )
        92        O      tau(  92) = (   0.6212010   0.3433751   0.9249961  )
        93        O      tau(  93) = (   0.6507714   0.8687427   1.1830599  )
        94        O      tau(  94) = (   0.9014054   0.7139543   0.6209553  )
        95        O      tau(  95) = (   0.8548963   0.1722994   0.6234348  )
        96        O      tau(  96) = (   0.6044469   0.3253792   1.1859242  )
        97        O      tau(  97) = (   0.6024424   0.5698225   1.0577892  )
        98        O      tau(  98) = (   0.8498940   1.0129567   0.7474033  )
        99        O      tau(  99) = (   0.8798395   0.4080910   1.0504647  )
       100        O      tau( 100) = (   0.6286921   0.0909721   0.7596222  )
       101        O      tau( 101) = (   0.6294973   0.6302838   0.7571429  )
       102        O      tau( 102) = (   0.9024339   0.4685397   0.7495295  )
       103        O      tau( 103) = (   0.6547812   0.0286072   1.0595512  )
       104        O      tau( 104) = (   0.8760507   0.9507690   1.0463383  )
       105        Mn     tau( 105) = (   0.2350290   0.8103679   1.3650506  )
       106        Ni     tau( 106) = (   0.5049839   0.7430999   1.6752764  )
       107        Ni     tau( 107) = (   0.0085805   0.2677647   1.3705110  )
       108        Ni     tau( 108) = (   0.2524821   0.2108176   1.6762258  )
       109        Ni     tau( 109) = (   1.0031726   1.0464924   1.5386166  )
       110        Ni     tau( 110) = (   0.2502641   0.5060972   1.5295441  )
       111        Ni     tau( 111) = (   0.7425850   0.8051724   1.3682278  )
       112        Ni     tau( 112) = (   1.0032085   0.7480271   1.6782163  )
       113        Ni     tau( 113) = (   0.5109976   0.2668978   1.3695351  )
       114        Ni     tau( 114) = (   0.7617415   0.2002392   1.7047113  )
       115        Ni     tau( 115) = (   0.5060216   1.0426794   1.5329327  )
       116        Ni     tau( 116) = (   0.7493328   0.5030112   1.5332002  )
       117        P      tau( 117) = (   0.2170385   0.9354274   1.6987551  )
       118        P      tau( 118) = (   0.4625170   0.6079979   1.3696033  )
       119        P      tau( 119) = (   0.2922201   0.0744200   1.3728508  )
       120        P      tau( 120) = (   0.0400598   0.4013821   1.6923063  )
       121        O      tau( 121) = (   0.1369468   0.8734395   1.5544031  )
       122        O      tau( 122) = (   0.3851774   0.6777302   1.5062583  )
       123        O      tau( 123) = (   0.3716472   0.1429275   1.5084559  )
       124        O      tau( 124) = (   0.1157488   0.3366312   1.5473574  )
       125        O      tau( 125) = (   0.1542130   0.8393226   1.8134166  )
       126        O      tau( 126) = (   0.4021706   0.6983945   1.2446547  )
       127        O      tau( 127) = (   0.3533289   0.1594101   1.2454731  )
       128        O      tau( 128) = (   0.1044058   0.3070241   1.8090384  )
       129        O      tau( 129) = (   0.0976985   0.5582927   1.6881977  )
       130        O      tau( 130) = (   0.3494544   0.9934681   1.3765809  )
       131        O      tau( 131) = (   0.3735391   0.3921348   1.6747224  )
       132        O      tau( 132) = (   0.1284883   0.0801717   1.3861992  )
       133        O      tau( 133) = (   0.1217502   0.6189932   1.3813335  )
       134        O      tau( 134) = (   0.4008873   0.4536035   1.3710220  )
       135        O      tau( 135) = (   0.1634732   0.0183502   1.6943209  )
       136        O      tau( 136) = (   0.3813891   0.9276213   1.6801305  )
       137        P      tau( 137) = (   0.7150844   0.9302027   1.6925865  )
       138        P      tau( 138) = (   0.9571586   0.6099361   1.3701799  )
       139        P      tau( 139) = (   0.7928795   0.0723778   1.3749960  )
       140        P      tau( 140) = (   0.5392015   0.3933707   1.6872906  )
       141        O      tau( 141) = (   0.6358909   0.8683612   1.5460897  )
       142        O      tau( 142) = (   0.8820169   0.6809509   1.5070208  )
       143        O      tau( 143) = (   0.8692965   0.1456252   1.5103227  )
       144        O      tau( 144) = (   0.6167143   0.3328777   1.5445489  )
       145        O      tau( 145) = (   0.6564412   0.8305094   1.8065650  )
       146        O      tau( 146) = (   0.8979416   0.6984778   1.2436101  )
       147        O      tau( 147) = (   0.8543451   0.1588252   1.2476080  )
       148        O      tau( 148) = (   0.5965398   0.2964012   1.8048314  )
       149        O      tau( 149) = (   0.5954090   0.5513693   1.6890606  )
       150        O      tau( 150) = (   0.8526781   0.9929277   1.3790312  )
       151        O      tau( 151) = (   0.8754039   0.3968396   1.6819451  )
       152        O      tau( 152) = (   0.6285753   0.0773142   1.3832806  )
       153        O      tau( 153) = (   0.6263328   0.6141238   1.3811389  )
       154        O      tau( 154) = (   0.9000707   0.4545516   1.3742938  )
       155        O      tau( 155) = (   0.6544929   0.0100088   1.6874901  )
       156        O      tau( 156) = (   0.8797765   0.9265630   1.6764488  )
       157        O      tau( 157) = (   0.8764291   0.1187194   1.8379936  )
       158        H      tau( 158) = (   0.9617023   0.1762767   1.8603235  )

     -------------------------------------------------
     Parameters for Dispersion (Grimme-D2) Correction:
     -------------------------------------------------
       atom      VdW radius       C_6     

        Ni         2.952        374.666
        Mn         2.952        374.666
        P          3.222        271.980
        O          2.536         24.284
        H          1.892          4.857

     number of k points=     1  Gaussian smearing, width (Ry)=  0.0100
                       cart. coord. in units 2pi/alat
        k(    1) = (   0.0000000   0.0000000   0.0000000), wk =   1.0000000

     Dense  grid:  1918138 G-vectors     FFT dimensions: ( 125, 135, 432)

     Smooth grid:   485265 G-vectors     FFT dimensions: (  80,  90, 288)

     Estimated max dynamical RAM per process >     320.12 MB

     Estimated total dynamical RAM >      20.01 GB
     Generating pointlists ...
     new r_m :   0.0799 (alat units)  1.4151 (a.u.) for type    1
     new r_m :   0.0869 (alat units)  1.5388 (a.u.) for type    2
     new r_m :   0.0650 (alat units)  1.1499 (a.u.) for type    3
     new r_m :   0.0434 (alat units)  0.7687 (a.u.) for type    4
     new r_m :   0.0434 (alat units)  0.7687 (a.u.) for type    5

     Initial potential from superposition of free atoms

     starting charge    1077.8900, renormalised to    1078.0000

     negative rho (up, down):  1.237E-03 4.528E-04
 
     Adding external electric field

     Computed dipole along edir(3) : 
        Dipole                1.6169 Ry au,          4.1098 Debye
        Dipole field          0.0010 Ry au, 
 
        Potential amp.       -0.1085 Ry
        Total length         54.2615 bohr
 
 
     Adding external electric field

     Computed dipole along edir(3) : 
        Dipole                1.6169 Ry au,          4.1098 Debye
        Dipole field          0.0010 Ry au, 
 
        Potential amp.       -0.1085 Ry
        Total length         54.2615 bohr
 
     Starting wfcs are  812 randomized atomic wfcs

     total cpu time spent up to now is       13.4 secs

     Self-consistent Calculation

     iteration #  1     ecut=    50.00 Ry     beta= 0.10
     Davidson diagonalization with overlap
     ethr =  1.00E-02,  avg # of iterations =  6.0

     negative rho (up, down):  3.330E-01 3.046E-06
 
     Adding external electric field

     Computed dipole along edir(3) : 
        Dipole               -3.5598 Ry au,         -9.0481 Debye
        Dipole field         -0.0022 Ry au, 
 
        Potential amp.        0.2389 Ry
        Total length         54.2615 bohr
 
 
     Adding external electric field

     Computed dipole along edir(3) : 
        Dipole               -3.5598 Ry au,         -9.0481 Debye
        Dipole field         -0.0022 Ry au, 
 
        Potential amp.        0.2389 Ry
        Total length         54.2615 bohr
 

     total cpu time spent up to now is       49.7 secs

     total energy              =   -7179.06486639 Ry
     estimated scf accuracy    <     757.37561034 Ry

     total magnetization       =   216.00 Bohr mag/cell
     absolute magnetization    =   296.64 Bohr mag/cell

     iteration #  2     ecut=    50.00 Ry     beta= 0.10
     Davidson diagonalization with overlap
     ethr =  1.00E-02,  avg # of iterations =  2.0

     negative rho (up, down):  3.148E-01 2.414E-06
 
     Adding external electric field

     Computed dipole along edir(3) : 
        Dipole               -2.3914 Ry au,         -6.0783 Debye
        Dipole field         -0.0015 Ry au, 
 
        Potential amp.        0.1605 Ry
        Total length         54.2615 bohr
 
 
     Adding external electric field

     Computed dipole along edir(3) : 
        Dipole               -2.3914 Ry au,         -6.0783 Debye
        Dipole field         -0.0015 Ry au, 
 
        Potential amp.        0.1605 Ry
        Total length         54.2615 bohr
 

     total cpu time spent up to now is       70.9 secs

     total energy              =   -7262.50133917 Ry
     estimated scf accuracy    <     201.65424343 Ry

     total magnetization       =   149.45 Bohr mag/cell
     absolute magnetization    =   199.45 Bohr mag/cell

     iteration #  3     ecut=    50.00 Ry     beta= 0.10
     Davidson diagonalization with overlap
     ethr =  1.00E-02,  avg # of iterations =  1.5

     negative rho (up, down):  2.769E-01 2.071E-06
 
     Adding external electric field

     Computed dipole along edir(3) : 
        Dipole               -2.0360 Ry au,         -5.1750 Debye
        Dipole field         -0.0013 Ry au, 
 
        Potential amp.        0.1366 Ry
        Total length         54.2615 bohr
 
 
     Adding external electric field

     Computed dipole along edir(3) : 
        Dipole               -2.0360 Ry au,         -5.1750 Debye
        Dipole field         -0.0013 Ry au, 
 
        Potential amp.        0.1366 Ry
        Total length         54.2615 bohr
 

     total cpu time spent up to now is       87.1 secs

     total energy              =   -7293.37737212 Ry
     estimated scf accuracy    <      97.89931707 Ry

     total magnetization       =   124.84 Bohr mag/cell
     absolute magnetization    =   178.83 Bohr mag/cell

     iteration #  4     ecut=    50.00 Ry     beta= 0.10
     Davidson diagonalization with overlap
     ethr =  9.08E-03,  avg # of iterations =  1.5

     negative rho (up, down):  2.034E-01 3.236E-07
 
     Adding external electric field

     Computed dipole along edir(3) : 
        Dipole               -1.9287 Ry au,         -4.9023 Debye
        Dipole field         -0.0012 Ry au, 
 
        Potential amp.        0.1294 Ry
        Total length         54.2615 bohr
 
 
     Adding external electric field

     Computed dipole along edir(3) : 
        Dipole               -1.9287 Ry au,         -4.9023 Debye
        Dipole field         -0.0012 Ry au, 
 
        Potential amp.        0.1294 Ry
        Total length         54.2615 bohr
 

     total cpu time spent up to now is      103.6 secs

     total energy              =   -7328.66251147 Ry
     estimated scf accuracy    <      78.10533762 Ry

     total magnetization       =   109.87 Bohr mag/cell
     absolute magnetization    =   164.50 Bohr mag/cell

     iteration #  5     ecut=    50.00 Ry     beta= 0.10
     Davidson diagonalization with overlap
     ethr =  7.25E-03,  avg # of iterations =  1.5

     negative rho (up, down):  6.818E-03 1.124E-06
 
     Adding external electric field

     Computed dipole along edir(3) : 
        Dipole               -1.4186 Ry au,         -3.6056 Debye
        Dipole field         -0.0009 Ry au, 
 
        Potential amp.        0.0952 Ry
        Total length         54.2615 bohr
 
 
     Adding external electric field

     Computed dipole along edir(3) : 
        Dipole               -1.4186 Ry au,         -3.6056 Debye
        Dipole field         -0.0009 Ry au, 
 
        Potential amp.        0.0952 Ry
        Total length         54.2615 bohr
 

     total cpu time spent up to now is      120.0 secs

     total energy              =   -7387.28383660 Ry
     estimated scf accuracy    <      59.84370924 Ry

     total magnetization       =    88.00 Bohr mag/cell
     absolute magnetization    =   145.32 Bohr mag/cell

     iteration #  6     ecut=    50.00 Ry     beta= 0.10
     Davidson diagonalization with overlap
     ethr =  5.55E-03,  avg # of iterations =  1.5

     negative rho (up, down):  2.533E-04 2.856E-04
 
     Adding external electric field

     Computed dipole along edir(3) : 
        Dipole               -1.0852 Ry au,         -2.7583 Debye
        Dipole field         -0.0007 Ry au, 
 
        Potential amp.        0.0728 Ry
        Total length         54.2615 bohr
 
 
     Adding external electric field

     Computed dipole along edir(3) : 
        Dipole               -1.0852 Ry au,         -2.7583 Debye
        Dipole field         -0.0007 Ry au, 
 
        Potential amp.        0.0728 Ry
        Total length         54.2615 bohr
 

     total cpu time spent up to now is      136.8 secs

     total energy              =   -7395.64150514 Ry
     estimated scf accuracy    <       9.24812823 Ry

     total magnetization       =    80.99 Bohr mag/cell
     absolute magnetization    =   113.64 Bohr mag/cell

     iteration #  7     ecut=    50.00 Ry     beta= 0.10
     Davidson diagonalization with overlap
     ethr =  8.58E-04,  avg # of iterations =  6.5

     negative rho (up, down):  2.617E-04 2.767E-04
 
     Adding external electric field

     Computed dipole along edir(3) : 
        Dipole               -1.0750 Ry au,         -2.7324 Debye
        Dipole field         -0.0007 Ry au, 
 
        Potential amp.        0.0721 Ry
        Total length         54.2615 bohr
 
 
     Adding external electric field

     Computed dipole along edir(3) : 
        Dipole               -1.0750 Ry au,         -2.7324 Debye
        Dipole field         -0.0007 Ry au, 
 
        Potential amp.        0.0721 Ry
        Total length         54.2615 bohr
 

     total cpu time spent up to now is      167.1 secs

     total energy              =   -7397.61346378 Ry
     estimated scf accuracy    <      10.42687571 Ry

     total magnetization       =    71.71 Bohr mag/cell
     absolute magnetization    =    89.14 Bohr mag/cell

     iteration #  8     ecut=    50.00 Ry     beta= 0.10
     Davidson diagonalization with overlap
     ethr =  8.58E-04,  avg # of iterations =  1.0

     negative rho (up, down):  3.036E-04 3.790E-04
 
     Adding external electric field

     Computed dipole along edir(3) : 
        Dipole               -1.2033 Ry au,         -3.0585 Debye
        Dipole field         -0.0007 Ry au, 
 
        Potential amp.        0.0808 Ry
        Total length         54.2615 bohr
 
 
     Adding external electric field

     Computed dipole along edir(3) : 
        Dipole               -1.2033 Ry au,         -3.0585 Debye
        Dipole field         -0.0007 Ry au, 
 
        Potential amp.        0.0808 Ry
        Total length         54.2615 bohr
 

     total cpu time spent up to now is      182.4 secs

     total energy              =   -7397.58504737 Ry
     estimated scf accuracy    <      10.58730036 Ry

     total magnetization       =    71.66 Bohr mag/cell
     absolute magnetization    =    88.79 Bohr mag/cell

     iteration #  9     ecut=    50.00 Ry     beta= 0.10
     Davidson diagonalization with overlap
     ethr =  8.58E-04,  avg # of iterations =  1.0

     negative rho (up, down):  1.222E-02 1.339E-02
 
     Adding external electric field

     Computed dipole along edir(3) : 
        Dipole               -1.5484 Ry au,         -3.9357 Debye
        Dipole field         -0.0010 Ry au, 
 
        Potential amp.        0.1039 Ry
        Total length         54.2615 bohr
 
 
     Adding external electric field

     Computed dipole along edir(3) : 
        Dipole               -1.5484 Ry au,         -3.9357 Debye
        Dipole field         -0.0010 Ry au, 
 
        Potential amp.        0.1039 Ry
        Total length         54.2615 bohr
 

     total cpu time spent up to now is      198.0 secs

     total energy              =   -7397.46956588 Ry
     estimated scf accuracy    <       8.90740810 Ry

     total magnetization       =    71.99 Bohr mag/cell
     absolute magnetization    =    88.27 Bohr mag/cell

     iteration # 10     ecut=    50.00 Ry     beta= 0.10
     Davidson diagonalization with overlap
     ethr =  8.26E-04,  avg # of iterations =  1.0

     negative rho (up, down):  1.532E-02 1.819E-02
 
     Adding external electric field

     Computed dipole along edir(3) : 
        Dipole               -1.6275 Ry au,         -4.1367 Debye
        Dipole field         -0.0010 Ry au, 
 
        Potential amp.        0.1092 Ry
        Total length         54.2615 bohr
 
 
     Adding external electric field

     Computed dipole along edir(3) : 
        Dipole               -1.6275 Ry au,         -4.1367 Debye
        Dipole field         -0.0010 Ry au, 
 
        Potential amp.        0.1092 Ry
        Total length         54.2615 bohr
 

     total cpu time spent up to now is      213.4 secs

     total energy              =   -7397.54242347 Ry
     estimated scf accuracy    <       4.88003596 Ry

     total magnetization       =    74.25 Bohr mag/cell
     absolute magnetization    =    88.63 Bohr mag/cell

     iteration # 11     ecut=    50.00 Ry     beta= 0.10
     Davidson diagonalization with overlap
     ethr =  4.53E-04,  avg # of iterations =  1.5

     negative rho (up, down):  6.366E-02 6.627E-02
 
     Adding external electric field

     Computed dipole along edir(3) : 
        Dipole               -2.0921 Ry au,         -5.3175 Debye
        Dipole field         -0.0013 Ry au, 
 
        Potential amp.        0.1404 Ry
        Total length         54.2615 bohr
 
 
     Adding external electric field

     Computed dipole along edir(3) : 
        Dipole               -2.0921 Ry au,         -5.3175 Debye
        Dipole field         -0.0013 Ry au, 
 
        Potential amp.        0.1404 Ry
        Total length         54.2615 bohr
 

     total cpu time spent up to now is      230.1 secs

     total energy              =   -7397.48624651 Ry
     estimated scf accuracy    <       4.37683086 Ry

     total magnetization       =    74.31 Bohr mag/cell
     absolute magnetization    =    87.98 Bohr mag/cell

     iteration # 12     ecut=    50.00 Ry     beta= 0.10
     Davidson diagonalization with overlap
     ethr =  4.06E-04,  avg # of iterations =  1.5

     negative rho (up, down):  4.970E-02 5.361E-02
 
     Adding external electric field

     Computed dipole along edir(3) : 
        Dipole               -1.9789 Ry au,         -5.0298 Debye
        Dipole field         -0.0012 Ry au, 
 
        Potential amp.        0.1328 Ry
        Total length         54.2615 bohr
 
 
     Adding external electric field

     Computed dipole along edir(3) : 
        Dipole               -1.9789 Ry au,         -5.0298 Debye
        Dipole field         -0.0012 Ry au, 
 
        Potential amp.        0.1328 Ry
        Total length         54.2615 bohr
 

     total cpu time spent up to now is      246.7 secs

     total energy              =   -7397.65569098 Ry
     estimated scf accuracy    <       0.72178337 Ry

     total magnetization       =    81.04 Bohr mag/cell
     absolute magnetization    =    92.06 Bohr mag/cell

     iteration # 13     ecut=    50.00 Ry     beta= 0.10
     Davidson diagonalization with overlap
     ethr =  6.70E-05,  avg # of iterations = 11.0

     negative rho (up, down):  3.095E-02 3.633E-02
 
     Adding external electric field

     Computed dipole along edir(3) : 
        Dipole               -1.8209 Ry au,         -4.6282 Debye
        Dipole field         -0.0011 Ry au, 
 
        Potential amp.        0.1222 Ry
        Total length         54.2615 bohr
 
 
     Adding external electric field

     Computed dipole along edir(3) : 
        Dipole               -1.8209 Ry au,         -4.6282 Debye
        Dipole field         -0.0011 Ry au, 
 
        Potential amp.        0.1222 Ry
        Total length         54.2615 bohr
 

     total cpu time spent up to now is      276.5 secs

     total energy              =   -7397.72038692 Ry
     estimated scf accuracy    <       0.58519302 Ry

     total magnetization       =    80.55 Bohr mag/cell
     absolute magnetization    =    90.49 Bohr mag/cell

     iteration # 14     ecut=    50.00 Ry     beta= 0.10
     Davidson diagonalization with overlap
     ethr =  5.43E-05,  avg # of iterations =  1.5

     negative rho (up, down):  1.418E-02 1.925E-02
 
     Adding external electric field

     Computed dipole along edir(3) : 
        Dipole               -1.6555 Ry au,         -4.2080 Debye
        Dipole field         -0.0010 Ry au, 
 
        Potential amp.        0.1111 Ry
        Total length         54.2615 bohr
 
 
     Adding external electric field

     Computed dipole along edir(3) : 
        Dipole               -1.6555 Ry au,         -4.2080 Debye
        Dipole field         -0.0010 Ry au, 
 
        Potential amp.        0.1111 Ry
        Total length         54.2615 bohr
 

     total cpu time spent up to now is      292.5 secs

     total energy              =   -7397.82440285 Ry
     estimated scf accuracy    <       0.48761704 Ry

     total magnetization       =    79.61 Bohr mag/cell
     absolute magnetization    =    88.42 Bohr mag/cell

     iteration # 15     ecut=    50.00 Ry     beta= 0.10
     Davidson diagonalization with overlap
     ethr =  4.52E-05,  avg # of iterations =  1.5

     negative rho (up, down):  9.638E-03 1.259E-02
 
     Adding external electric field

     Computed dipole along edir(3) : 
        Dipole               -1.5060 Ry au,         -3.8279 Debye
        Dipole field         -0.0009 Ry au, 
 
        Potential amp.        0.1011 Ry
        Total length         54.2615 bohr
 
 
     Adding external electric field

     Computed dipole along edir(3) : 
        Dipole               -1.5060 Ry au,         -3.8279 Debye
        Dipole field         -0.0009 Ry au, 
 
        Potential amp.        0.1011 Ry
        Total length         54.2615 bohr
 

     total cpu time spent up to now is      309.1 secs

     total energy              =   -7397.91662823 Ry
     estimated scf accuracy    <       0.59187068 Ry

     total magnetization       =    79.01 Bohr mag/cell
     absolute magnetization    =    86.00 Bohr mag/cell

     iteration # 16     ecut=    50.00 Ry     beta= 0.10
     Davidson diagonalization with overlap
     ethr =  4.52E-05,  avg # of iterations =  1.5

     negative rho (up, down):  3.709E-04 7.562E-04
 
     Adding external electric field

     Computed dipole along edir(3) : 
        Dipole               -1.2498 Ry au,         -3.1767 Debye
        Dipole field         -0.0008 Ry au, 
 
        Potential amp.        0.0839 Ry
        Total length         54.2615 bohr
 
 
     Adding external electric field

     Computed dipole along edir(3) : 
        Dipole               -1.2498 Ry au,         -3.1767 Debye
        Dipole field         -0.0008 Ry au, 
 
        Potential amp.        0.0839 Ry
        Total length         54.2615 bohr
 

     total cpu time spent up to now is      325.6 secs

     total energy              =   -7397.98766667 Ry
     estimated scf accuracy    <       0.22635004 Ry

     total magnetization       =    80.60 Bohr mag/cell
     absolute magnetization    =    85.88 Bohr mag/cell

     iteration # 17     ecut=    50.00 Ry     beta= 0.10
     Davidson diagonalization with overlap
     c_bands:  5 eigenvalues not converged
     ethr =  2.10E-05,  avg # of iterations = 11.0

     negative rho (up, down):  4.023E-04 1.065E-03
 
     Adding external electric field

     Computed dipole along edir(3) : 
        Dipole               -1.2319 Ry au,         -3.1311 Debye
        Dipole field         -0.0008 Ry au, 
 
        Potential amp.        0.0827 Ry
        Total length         54.2615 bohr
 
 
     Adding external electric field

     Computed dipole along edir(3) : 
        Dipole               -1.2319 Ry au,         -3.1311 Debye
        Dipole field         -0.0008 Ry au, 
 
        Potential amp.        0.0827 Ry
        Total length         54.2615 bohr
 

     total cpu time spent up to now is      353.1 secs

     total energy              =   -7397.99817722 Ry
     estimated scf accuracy    <       0.15071999 Ry

     total magnetization       =    80.03 Bohr mag/cell
     absolute magnetization    =    83.29 Bohr mag/cell

     iteration # 18     ecut=    50.00 Ry     beta= 0.10
     Davidson diagonalization with overlap
     ethr =  1.40E-05,  avg # of iterations =  2.0

     negative rho (up, down):  7.813E-07 1.569E-05
 
     Adding external electric field

     Computed dipole along edir(3) : 
        Dipole               -0.9197 Ry au,         -2.3376 Debye
        Dipole field         -0.0006 Ry au, 
 
        Potential amp.        0.0617 Ry
        Total length         54.2615 bohr
 
 
     Adding external electric field

     Computed dipole along edir(3) : 
        Dipole               -0.9197 Ry au,         -2.3376 Debye
        Dipole field         -0.0006 Ry au, 
 
        Potential amp.        0.0617 Ry
        Total length         54.2615 bohr
 

     total cpu time spent up to now is      370.4 secs

     total energy              =   -7398.02634262 Ry
     estimated scf accuracy    <       0.10977865 Ry

     total magnetization       =    80.15 Bohr mag/cell
     absolute magnetization    =    83.05 Bohr mag/cell

     iteration # 19     ecut=    50.00 Ry     beta= 0.10
     Davidson diagonalization with overlap
     c_bands:  2 eigenvalues not converged
     c_bands:  2 eigenvalues not converged
     ethr =  1.02E-05,  avg # of iterations = 20.0

     negative rho (up, down):  3.637E-07 5.616E-06
 
     Adding external electric field

     Computed dipole along edir(3) : 
        Dipole               -0.9240 Ry au,         -2.3486 Debye
        Dipole field         -0.0006 Ry au, 
 
        Potential amp.        0.0620 Ry
        Total length         54.2615 bohr
 
 
     Adding external electric field

     Computed dipole along edir(3) : 
        Dipole               -0.9240 Ry au,         -2.3486 Debye
        Dipole field         -0.0006 Ry au, 
 
        Potential amp.        0.0620 Ry
        Total length         54.2615 bohr
 

     total cpu time spent up to now is      402.0 secs

     total energy              =   -7398.03062400 Ry
     estimated scf accuracy    <       0.32057285 Ry

     total magnetization       =    79.82 Bohr mag/cell
     absolute magnetization    =    81.92 Bohr mag/cell

     iteration # 20     ecut=    50.00 Ry     beta= 0.10
     Davidson diagonalization with overlap
     ethr =  1.02E-05,  avg # of iterations = 22.0

     negative rho (up, down):  4.771E-07 5.055E-06
 
     Adding external electric field

     Computed dipole along edir(3) : 
        Dipole               -0.7288 Ry au,         -1.8525 Debye
        Dipole field         -0.0005 Ry au, 
 
        Potential amp.        0.0489 Ry
        Total length         54.2615 bohr
 
 
     Adding external electric field

     Computed dipole along edir(3) : 
        Dipole               -0.7288 Ry au,         -1.8525 Debye
        Dipole field         -0.0005 Ry au, 
 
        Potential amp.        0.0489 Ry
        Total length         54.2615 bohr
 

     total cpu time spent up to now is      447.2 secs

     total energy              =   -7398.03726144 Ry
     estimated scf accuracy    <       0.09333287 Ry

     total magnetization       =    80.36 Bohr mag/cell
     absolute magnetization    =    82.34 Bohr mag/cell

     iteration # 21     ecut=    50.00 Ry     beta= 0.10
     Davidson diagonalization with overlap
     ethr =  8.66E-06,  avg # of iterations =  2.0

     negative rho (up, down):  9.509E-07 8.944E-06
 
     Adding external electric field

     Computed dipole along edir(3) : 
        Dipole               -0.8046 Ry au,         -2.0450 Debye
        Dipole field         -0.0005 Ry au, 
 
        Potential amp.        0.0540 Ry
        Total length         54.2615 bohr
 
 
     Adding external electric field

     Computed dipole along edir(3) : 
        Dipole               -0.8046 Ry au,         -2.0450 Debye
        Dipole field         -0.0005 Ry au, 
 
        Potential amp.        0.0540 Ry
        Total length         54.2615 bohr
 

     total cpu time spent up to now is      464.9 secs

     total energy              =   -7398.03488547 Ry
     estimated scf accuracy    <       0.13359822 Ry

     total magnetization       =    79.94 Bohr mag/cell
     absolute magnetization    =    81.73 Bohr mag/cell

     iteration # 22     ecut=    50.00 Ry     beta= 0.10
     Davidson diagonalization with overlap
     ethr =  8.66E-06,  avg # of iterations =  1.0

     negative rho (up, down):  4.093E-07 7.854E-06
 
     Adding external electric field

     Computed dipole along edir(3) : 
        Dipole               -0.9138 Ry au,         -2.3228 Debye
        Dipole field         -0.0006 Ry au, 
 
        Potential amp.        0.0613 Ry
        Total length         54.2615 bohr
 
 
     Adding external electric field

     Computed dipole along edir(3) : 
        Dipole               -0.9138 Ry au,         -2.3228 Debye
        Dipole field         -0.0006 Ry au, 
 
        Potential amp.        0.0613 Ry
        Total length         54.2615 bohr
 

     total cpu time spent up to now is      480.8 secs

     total energy              =   -7398.03147701 Ry
     estimated scf accuracy    <       0.11297047 Ry

     total magnetization       =    80.08 Bohr mag/cell
     absolute magnetization    =    81.95 Bohr mag/cell

     iteration # 23     ecut=    50.00 Ry     beta= 0.10
     Davidson diagonalization with overlap
     ethr =  8.66E-06,  avg # of iterations =  2.0

     negative rho (up, down):  2.277E-06 4.919E-06
 
     Adding external electric field

     Computed dipole along edir(3) : 
        Dipole               -1.0256 Ry au,         -2.6068 Debye
        Dipole field         -0.0006 Ry au, 
 
        Potential amp.        0.0688 Ry
        Total length         54.2615 bohr
 
 
     Adding external electric field

     Computed dipole along edir(3) : 
        Dipole               -1.0256 Ry au,         -2.6068 Debye
        Dipole field         -0.0006 Ry au, 
 
        Potential amp.        0.0688 Ry
        Total length         54.2615 bohr
 

     total cpu time spent up to now is      498.5 secs

     total energy              =   -7398.03779590 Ry
     estimated scf accuracy    <       0.08859932 Ry

     total magnetization       =    80.24 Bohr mag/cell
     absolute magnetization    =    82.21 Bohr mag/cell

     iteration # 24     ecut=    50.00 Ry     beta= 0.10
     Davidson diagonalization with overlap
     ethr =  8.22E-06,  avg # of iterations =  1.5

     negative rho (up, down):  1.232E-06 3.454E-06
 
     Adding external electric field

     Computed dipole along edir(3) : 
        Dipole               -1.0141 Ry au,         -2.5776 Debye
        Dipole field         -0.0006 Ry au, 
 
        Potential amp.        0.0681 Ry
        Total length         54.2615 bohr
 
 
     Adding external electric field

     Computed dipole along edir(3) : 
        Dipole               -1.0141 Ry au,         -2.5776 Debye
        Dipole field         -0.0006 Ry au, 
 
        Potential amp.        0.0681 Ry
        Total length         54.2615 bohr
 

     total cpu time spent up to now is      514.8 secs

     total energy              =   -7398.03764230 Ry
     estimated scf accuracy    <       0.08762015 Ry

     total magnetization       =    80.30 Bohr mag/cell
     absolute magnetization    =    82.24 Bohr mag/cell

     iteration # 25     ecut=    50.00 Ry     beta= 0.10
     Davidson diagonalization with overlap
     ethr =  8.13E-06,  avg # of iterations =  1.0

     negative rho (up, down):  7.002E-07 3.427E-06
 
     Adding external electric field

     Computed dipole along edir(3) : 
        Dipole               -0.9042 Ry au,         -2.2983 Debye
        Dipole field         -0.0006 Ry au, 
 
        Potential amp.        0.0607 Ry
        Total length         54.2615 bohr
 
 
     Adding external electric field

     Computed dipole along edir(3) : 
        Dipole               -0.9042 Ry au,         -2.2983 Debye
        Dipole field         -0.0006 Ry au, 
 
        Potential amp.        0.0607 Ry
        Total length         54.2615 bohr
 

     total cpu time spent up to now is      530.6 secs

     total energy              =   -7398.03374754 Ry
     estimated scf accuracy    <       0.08716170 Ry

     total magnetization       =    80.29 Bohr mag/cell
     absolute magnetization    =    82.21 Bohr mag/cell

     iteration # 26     ecut=    50.00 Ry     beta= 0.10
     Davidson diagonalization with overlap
     ethr =  8.09E-06,  avg # of iterations =  1.5

     negative rho (up, down):  5.364E-07 3.841E-06
 
     Adding external electric field

     Computed dipole along edir(3) : 
        Dipole               -0.9412 Ry au,         -2.3922 Debye
        Dipole field         -0.0006 Ry au, 
 
        Potential amp.        0.0632 Ry
        Total length         54.2615 bohr
 
 
     Adding external electric field

     Computed dipole along edir(3) : 
        Dipole               -0.9412 Ry au,         -2.3922 Debye
        Dipole field         -0.0006 Ry au, 
 
        Potential amp.        0.0632 Ry
        Total length         54.2615 bohr
 

     total cpu time spent up to now is      547.4 secs

     total energy              =   -7398.03627683 Ry
     estimated scf accuracy    <       0.09496424 Ry

     total magnetization       =    80.31 Bohr mag/cell
     absolute magnetization    =    82.35 Bohr mag/cell

     iteration # 27     ecut=    50.00 Ry     beta= 0.10
     Davidson diagonalization with overlap
     ethr =  8.09E-06,  avg # of iterations =  1.0

     negative rho (up, down):  1.081E-07 5.683E-07
 
     Adding external electric field

     Computed dipole along edir(3) : 
        Dipole               -0.9877 Ry au,         -2.5105 Debye
        Dipole field         -0.0006 Ry au, 
 
        Potential amp.        0.0663 Ry
        Total length         54.2615 bohr
 
 
     Adding external electric field

     Computed dipole along edir(3) : 
        Dipole               -0.9877 Ry au,         -2.5105 Debye
        Dipole field         -0.0006 Ry au, 
 
        Potential amp.        0.0663 Ry
        Total length         54.2615 bohr
 

     total cpu time spent up to now is      562.9 secs

     total energy              =   -7398.03393343 Ry
     estimated scf accuracy    <       0.09579122 Ry

     total magnetization       =    80.30 Bohr mag/cell
     absolute magnetization    =    82.14 Bohr mag/cell

     iteration # 28     ecut=    50.00 Ry     beta= 0.10
     Davidson diagonalization with overlap
     ethr =  8.09E-06,  avg # of iterations =  1.0

     negative rho (up, down):  3.888E-06 1.291E-05
 
     Adding external electric field

     Computed dipole along edir(3) : 
        Dipole               -0.8669 Ry au,         -2.2035 Debye
        Dipole field         -0.0005 Ry au, 
 
        Potential amp.        0.0582 Ry
        Total length         54.2615 bohr
 
 
     Adding external electric field

     Computed dipole along edir(3) : 
        Dipole               -0.8669 Ry au,         -2.2035 Debye
        Dipole field         -0.0005 Ry au, 
 
        Potential amp.        0.0582 Ry
        Total length         54.2615 bohr
 

     total cpu time spent up to now is      578.4 secs

     total energy              =   -7398.03890476 Ry
     estimated scf accuracy    <       0.09208602 Ry

     total magnetization       =    80.26 Bohr mag/cell
     absolute magnetization    =    82.28 Bohr mag/cell

     iteration # 29     ecut=    50.00 Ry     beta= 0.10
     Davidson diagonalization with overlap
     ethr =  8.09E-06,  avg # of iterations =  1.0

     negative rho (up, down):  1.702E-05 5.002E-05
 
     Adding external electric field

     Computed dipole along edir(3) : 
        Dipole               -0.8156 Ry au,         -2.0732 Debye
        Dipole field         -0.0005 Ry au, 
 
        Potential amp.        0.0547 Ry
        Total length         54.2615 bohr
 
 
     Adding external electric field

     Computed dipole along edir(3) : 
        Dipole               -0.8156 Ry au,         -2.0732 Debye
        Dipole field         -0.0005 Ry au, 
 
        Potential amp.        0.0547 Ry
        Total length         54.2615 bohr
 

     total cpu time spent up to now is      594.3 secs

     total energy              =   -7398.03829945 Ry
     estimated scf accuracy    <       0.09107057 Ry

     total magnetization       =    80.33 Bohr mag/cell
     absolute magnetization    =    82.09 Bohr mag/cell

     iteration # 30     ecut=    50.00 Ry     beta= 0.10
     Davidson diagonalization with overlap
     ethr =  8.09E-06,  avg # of iterations =  1.0

     negative rho (up, down):  3.466E-05 1.071E-04
 
     Adding external electric field

     Computed dipole along edir(3) : 
        Dipole               -0.7823 Ry au,         -1.9885 Debye
        Dipole field         -0.0005 Ry au, 
 
        Potential amp.        0.0525 Ry
        Total length         54.2615 bohr
 
 
     Adding external electric field

     Computed dipole along edir(3) : 
        Dipole               -0.7823 Ry au,         -1.9885 Debye
        Dipole field         -0.0005 Ry au, 
 
        Potential amp.        0.0525 Ry
        Total length         54.2615 bohr
 

     total cpu time spent up to now is      609.9 secs

     total energy              =   -7398.03847740 Ry
     estimated scf accuracy    <       0.08400479 Ry

     total magnetization       =    80.39 Bohr mag/cell
     absolute magnetization    =    82.20 Bohr mag/cell

     iteration # 31     ecut=    50.00 Ry     beta= 0.10
     Davidson diagonalization with overlap
     ethr =  7.79E-06,  avg # of iterations =  1.5

     negative rho (up, down):  5.372E-05 1.695E-04
 
     Adding external electric field

     Computed dipole along edir(3) : 
        Dipole               -0.8136 Ry au,         -2.0681 Debye
        Dipole field         -0.0005 Ry au, 
 
        Potential amp.        0.0546 Ry
        Total length         54.2615 bohr
 
 
     Adding external electric field

     Computed dipole along edir(3) : 
        Dipole               -0.8136 Ry au,         -2.0681 Debye
        Dipole field         -0.0005 Ry au, 
 
        Potential amp.        0.0546 Ry
        Total length         54.2615 bohr
 

     total cpu time spent up to now is      626.1 secs

     total energy              =   -7398.03840054 Ry
     estimated scf accuracy    <       0.06874404 Ry

     total magnetization       =    80.37 Bohr mag/cell
     absolute magnetization    =    82.17 Bohr mag/cell

     iteration # 32     ecut=    50.00 Ry     beta= 0.10
     Davidson diagonalization with overlap
     ethr =  6.38E-06,  avg # of iterations =  1.5

     negative rho (up, down):  2.491E-04 4.980E-04
 
     Adding external electric field

     Computed dipole along edir(3) : 
        Dipole               -0.8085 Ry au,         -2.0551 Debye
        Dipole field         -0.0005 Ry au, 
 
        Potential amp.        0.0543 Ry
        Total length         54.2615 bohr
 
 
     Adding external electric field

     Computed dipole along edir(3) : 
        Dipole               -0.8085 Ry au,         -2.0551 Debye
        Dipole field         -0.0005 Ry au, 
 
        Potential amp.        0.0543 Ry
        Total length         54.2615 bohr
 

     total cpu time spent up to now is      642.8 secs

     total energy              =   -7398.04008573 Ry
     estimated scf accuracy    <       0.06502091 Ry

     total magnetization       =    80.37 Bohr mag/cell
     absolute magnetization    =    82.16 Bohr mag/cell

     iteration # 33     ecut=    50.00 Ry     beta= 0.10
     Davidson diagonalization with overlap
     ethr =  6.03E-06,  avg # of iterations =  1.5

     negative rho (up, down):  6.430E-05 1.521E-04
 
     Adding external electric field

     Computed dipole along edir(3) : 
        Dipole               -0.8199 Ry au,         -2.0840 Debye
        Dipole field         -0.0005 Ry au, 
 
        Potential amp.        0.0550 Ry
        Total length         54.2615 bohr
 
 
     Adding external electric field

     Computed dipole along edir(3) : 
        Dipole               -0.8199 Ry au,         -2.0840 Debye
        Dipole field         -0.0005 Ry au, 
 
        Potential amp.        0.0550 Ry
        Total length         54.2615 bohr
 

     total cpu time spent up to now is      659.9 secs

     total energy              =   -7398.04036491 Ry
     estimated scf accuracy    <       0.06440890 Ry

     total magnetization       =    80.33 Bohr mag/cell
     absolute magnetization    =    82.04 Bohr mag/cell

     iteration # 34     ecut=    50.00 Ry     beta= 0.10
     Davidson diagonalization with overlap
     ethr =  5.97E-06,  avg # of iterations =  1.0

     negative rho (up, down):  1.125E-04 3.562E-04
 
     Adding external electric field

     Computed dipole along edir(3) : 
        Dipole               -0.8032 Ry au,         -2.0415 Debye
        Dipole field         -0.0005 Ry au, 
 
        Potential amp.        0.0539 Ry
        Total length         54.2615 bohr
 
 
     Adding external electric field

     Computed dipole along edir(3) : 
        Dipole               -0.8032 Ry au,         -2.0415 Debye
        Dipole field         -0.0005 Ry au, 
 
        Potential amp.        0.0539 Ry
        Total length         54.2615 bohr
 

     total cpu time spent up to now is      675.4 secs

     total energy              =   -7398.03758221 Ry
     estimated scf accuracy    <       0.06509264 Ry

     total magnetization       =    80.37 Bohr mag/cell
     absolute magnetization    =    82.16 Bohr mag/cell

     iteration # 35     ecut=    50.00 Ry     beta= 0.10
     Davidson diagonalization with overlap
     ethr =  5.97E-06,  avg # of iterations =  1.5

     negative rho (up, down):  7.392E-04 1.333E-03
 
     Adding external electric field

     Computed dipole along edir(3) : 
        Dipole               -0.6449 Ry au,         -1.6392 Debye
        Dipole field         -0.0004 Ry au, 
 
        Potential amp.        0.0433 Ry
        Total length         54.2615 bohr
 
 
     Adding external electric field

     Computed dipole along edir(3) : 
        Dipole               -0.6449 Ry au,         -1.6392 Debye
        Dipole field         -0.0004 Ry au, 
 
        Potential amp.        0.0433 Ry
        Total length         54.2615 bohr
 

     total cpu time spent up to now is      691.3 secs

     total energy              =   -7398.03500761 Ry
     estimated scf accuracy    <       0.06150179 Ry

     total magnetization       =    80.30 Bohr mag/cell
     absolute magnetization    =    82.05 Bohr mag/cell

     iteration # 36     ecut=    50.00 Ry     beta= 0.10
     Davidson diagonalization with overlap
     ethr =  5.71E-06,  avg # of iterations =  2.0

     negative rho (up, down):  1.266E-04 3.986E-04
 
     Adding external electric field

     Computed dipole along edir(3) : 
        Dipole               -0.7572 Ry au,         -1.9246 Debye
        Dipole field         -0.0005 Ry au, 
 
        Potential amp.        0.0508 Ry
        Total length         54.2615 bohr
 
 
     Adding external electric field

     Computed dipole along edir(3) : 
        Dipole               -0.7572 Ry au,         -1.9246 Debye
        Dipole field         -0.0005 Ry au, 
 
        Potential amp.        0.0508 Ry
        Total length         54.2615 bohr
 

     total cpu time spent up to now is      708.3 secs

     total energy              =   -7398.03708355 Ry
     estimated scf accuracy    <       0.06987548 Ry

     total magnetization       =    80.35 Bohr mag/cell
     absolute magnetization    =    82.12 Bohr mag/cell

     iteration # 37     ecut=    50.00 Ry     beta= 0.10
     Davidson diagonalization with overlap
     ethr =  5.71E-06,  avg # of iterations =  1.0

     negative rho (up, down):  4.910E-05 1.974E-04
 
     Adding external electric field

     Computed dipole along edir(3) : 
        Dipole               -0.8039 Ry au,         -2.0432 Debye
        Dipole field         -0.0005 Ry au, 
 
        Potential amp.        0.0540 Ry
        Total length         54.2615 bohr
 
 
     Adding external electric field

     Computed dipole along edir(3) : 
        Dipole               -0.8039 Ry au,         -2.0432 Debye
        Dipole field         -0.0005 Ry au, 
 
        Potential amp.        0.0540 Ry
        Total length         54.2615 bohr
 

     total cpu time spent up to now is      723.2 secs

     total energy              =   -7398.03595046 Ry
     estimated scf accuracy    <       0.06854207 Ry

     total magnetization       =    80.31 Bohr mag/cell
     absolute magnetization    =    81.95 Bohr mag/cell

     iteration # 38     ecut=    50.00 Ry     beta= 0.10
     Davidson diagonalization with overlap
     ethr =  5.71E-06,  avg # of iterations =  1.0

     negative rho (up, down):  4.711E-05 1.894E-04
 
     Adding external electric field

     Computed dipole along edir(3) : 
        Dipole               -0.8175 Ry au,         -2.0779 Debye
        Dipole field         -0.0005 Ry au, 
 
        Potential amp.        0.0549 Ry
        Total length         54.2615 bohr
 
 
     Adding external electric field

     Computed dipole along edir(3) : 
        Dipole               -0.8175 Ry au,         -2.0779 Debye
        Dipole field         -0.0005 Ry au, 
 
        Potential amp.        0.0549 Ry
        Total length         54.2615 bohr
 

     total cpu time spent up to now is      738.3 secs

     total energy              =   -7398.03585953 Ry
     estimated scf accuracy    <       0.06258270 Ry

     total magnetization       =    80.28 Bohr mag/cell
     absolute magnetization    =    82.09 Bohr mag/cell

     iteration # 39     ecut=    50.00 Ry     beta= 0.10
     Davidson diagonalization with overlap
     ethr =  5.71E-06,  avg # of iterations =  1.0

     negative rho (up, down):  8.462E-05 2.455E-04
 
     Adding external electric field

     Computed dipole along edir(3) : 
        Dipole               -0.9182 Ry au,         -2.3340 Debye
        Dipole field         -0.0006 Ry au, 
 
        Potential amp.        0.0616 Ry
        Total length         54.2615 bohr
 
 
     Adding external electric field

     Computed dipole along edir(3) : 
        Dipole               -0.9182 Ry au,         -2.3340 Debye
        Dipole field         -0.0006 Ry au, 
 
        Potential amp.        0.0616 Ry
        Total length         54.2615 bohr
 

     total cpu time spent up to now is      753.5 secs

     total energy              =   -7398.03712785 Ry
     estimated scf accuracy    <       0.06312600 Ry

     total magnetization       =    80.27 Bohr mag/cell
     absolute magnetization    =    82.13 Bohr mag/cell

     iteration # 40     ecut=    50.00 Ry     beta= 0.10
     Davidson diagonalization with overlap
     ethr =  5.71E-06,  avg # of iterations =  1.0

     negative rho (up, down):  4.967E-05 2.043E-04
 
     Adding external electric field

     Computed dipole along edir(3) : 
        Dipole               -0.7918 Ry au,         -2.0126 Debye
        Dipole field         -0.0005 Ry au, 
 
        Potential amp.        0.0531 Ry
        Total length         54.2615 bohr
 
 
     Adding external electric field

     Computed dipole along edir(3) : 
        Dipole               -0.7918 Ry au,         -2.0126 Debye
        Dipole field         -0.0005 Ry au, 
 
        Potential amp.        0.0531 Ry
        Total length         54.2615 bohr
 

     total cpu time spent up to now is      768.9 secs

     total energy              =   -7398.03656564 Ry
     estimated scf accuracy    <       0.06573769 Ry

     total magnetization       =    80.29 Bohr mag/cell
     absolute magnetization    =    82.07 Bohr mag/cell

     iteration # 41     ecut=    50.00 Ry     beta= 0.10
     Davidson diagonalization with overlap
     ethr =  5.71E-06,  avg # of iterations =  1.5

     negative rho (up, down):  3.241E-04 6.670E-04
 
     Adding external electric field

     Computed dipole along edir(3) : 
        Dipole               -0.9026 Ry au,         -2.2942 Debye
        Dipole field         -0.0006 Ry au, 
 
        Potential amp.        0.0606 Ry
        Total length         54.2615 bohr
 
 
     Adding external electric field

     Computed dipole along edir(3) : 
        Dipole               -0.9026 Ry au,         -2.2942 Debye
        Dipole field         -0.0006 Ry au, 
 
        Potential amp.        0.0606 Ry
        Total length         54.2615 bohr
 

     total cpu time spent up to now is      785.4 secs

     total energy              =   -7398.03778909 Ry
     estimated scf accuracy    <       0.06596441 Ry

     total magnetization       =    80.30 Bohr mag/cell
     absolute magnetization    =    82.11 Bohr mag/cell

     iteration # 42     ecut=    50.00 Ry     beta= 0.10
     Davidson diagonalization with overlap
     ethr =  5.71E-06,  avg # of iterations =  1.0

     negative rho (up, down):  8.326E-05 1.604E-04
 
     Adding external electric field

     Computed dipole along edir(3) : 
        Dipole               -0.9207 Ry au,         -2.3402 Debye
        Dipole field         -0.0006 Ry au, 
 
        Potential amp.        0.0618 Ry
        Total length         54.2615 bohr
 
 
     Adding external electric field

     Computed dipole along edir(3) : 
        Dipole               -0.9207 Ry au,         -2.3402 Debye
        Dipole field         -0.0006 Ry au, 
 
        Potential amp.        0.0618 Ry
        Total length         54.2615 bohr
 

     total cpu time spent up to now is      800.6 secs

     total energy              =   -7398.03298755 Ry
     estimated scf accuracy    <       0.06867417 Ry

     total magnetization       =    80.24 Bohr mag/cell
     absolute magnetization    =    82.00 Bohr mag/cell

     iteration # 43     ecut=    50.00 Ry     beta= 0.10
     Davidson diagonalization with overlap
     ethr =  5.71E-06,  avg # of iterations =  1.0

     negative rho (up, down):  1.242E-04 1.697E-04
 
     Adding external electric field

     Computed dipole along edir(3) : 
        Dipole               -1.0003 Ry au,         -2.5424 Debye
        Dipole field         -0.0006 Ry au, 
 
        Potential amp.        0.0671 Ry
        Total length         54.2615 bohr
 
 
     Adding external electric field

     Computed dipole along edir(3) : 
        Dipole               -1.0003 Ry au,         -2.5424 Debye
        Dipole field         -0.0006 Ry au, 
 
        Potential amp.        0.0671 Ry
        Total length         54.2615 bohr
 

     total cpu time spent up to now is      815.9 secs

     total energy              =   -7398.03690780 Ry
     estimated scf accuracy    <       0.06655781 Ry

     total magnetization       =    80.30 Bohr mag/cell
     absolute magnetization    =    82.17 Bohr mag/cell

     iteration # 44     ecut=    50.00 Ry     beta= 0.10
     Davidson diagonalization with overlap
     ethr =  5.71E-06,  avg # of iterations =  1.0

     negative rho (up, down):  6.723E-05 1.400E-04
 
     Adding external electric field

     Computed dipole along edir(3) : 
        Dipole               -0.8961 Ry au,         -2.2776 Debye
        Dipole field         -0.0006 Ry au, 
 
        Potential amp.        0.0601 Ry
        Total length         54.2615 bohr
 
 
     Adding external electric field

     Computed dipole along edir(3) : 
        Dipole               -0.8961 Ry au,         -2.2776 Debye
        Dipole field         -0.0006 Ry au, 
 
        Potential amp.        0.0601 Ry
        Total length         54.2615 bohr
 

     total cpu time spent up to now is      831.2 secs

     total energy              =   -7398.03287243 Ry
     estimated scf accuracy    <       0.06877356 Ry

     total magnetization       =    80.34 Bohr mag/cell
     absolute magnetization    =    82.24 Bohr mag/cell

     iteration # 45     ecut=    50.00 Ry     beta= 0.10
     Davidson diagonalization with overlap
     ethr =  5.71E-06,  avg # of iterations =  1.0

     negative rho (up, down):  1.322E-04 2.299E-04
 
     Adding external electric field

     Computed dipole along edir(3) : 
        Dipole               -1.0085 Ry au,         -2.5634 Debye
        Dipole field         -0.0006 Ry au, 
 
        Potential amp.        0.0677 Ry
        Total length         54.2615 bohr
 
 
     Adding external electric field

     Computed dipole along edir(3) : 
        Dipole               -1.0085 Ry au,         -2.5634 Debye
        Dipole field         -0.0006 Ry au, 
 
        Potential amp.        0.0677 Ry
        Total length         54.2615 bohr
 

     total cpu time spent up to now is      846.8 secs

     total energy              =   -7398.03458419 Ry
     estimated scf accuracy    <       0.06740655 Ry

     total magnetization       =    80.29 Bohr mag/cell
     absolute magnetization    =    82.19 Bohr mag/cell

     iteration # 46     ecut=    50.00 Ry     beta= 0.10
     Davidson diagonalization with overlap
     ethr =  5.71E-06,  avg # of iterations =  1.0

     negative rho (up, down):  2.112E-04 3.891E-04
 
     Adding external electric field

     Computed dipole along edir(3) : 
        Dipole               -1.0128 Ry au,         -2.5744 Debye
        Dipole field         -0.0006 Ry au, 
 
        Potential amp.        0.0680 Ry
        Total length         54.2615 bohr
 
 
     Adding external electric field

     Computed dipole along edir(3) : 
        Dipole               -1.0128 Ry au,         -2.5744 Debye
        Dipole field         -0.0006 Ry au, 
 
        Potential amp.        0.0680 Ry
        Total length         54.2615 bohr
 

     total cpu time spent up to now is      862.0 secs

     total energy              =   -7398.03442891 Ry
     estimated scf accuracy    <       0.06769823 Ry

     total magnetization       =    80.28 Bohr mag/cell
     absolute magnetization    =    82.09 Bohr mag/cell

     iteration # 47     ecut=    50.00 Ry     beta= 0.10
     Davidson diagonalization with overlap
     ethr =  5.71E-06,  avg # of iterations =  1.0

     negative rho (up, down):  4.861E-04 1.041E-03
 
     Adding external electric field

     Computed dipole along edir(3) : 
        Dipole               -1.0499 Ry au,         -2.6686 Debye
        Dipole field         -0.0006 Ry au, 
 
        Potential amp.        0.0705 Ry
        Total length         54.2615 bohr
 
 
     Adding external electric field

     Computed dipole along edir(3) : 
        Dipole               -1.0499 Ry au,         -2.6686 Debye
        Dipole field         -0.0006 Ry au, 
 
        Potential amp.        0.0705 Ry
        Total length         54.2615 bohr
 

     total cpu time spent up to now is      877.4 secs

     total energy              =   -7398.03160338 Ry
     estimated scf accuracy    <       0.06760681 Ry

     total magnetization       =    80.33 Bohr mag/cell
     absolute magnetization    =    82.06 Bohr mag/cell

     iteration # 48     ecut=    50.00 Ry     beta= 0.10
     Davidson diagonalization with overlap
     ethr =  5.71E-06,  avg # of iterations =  1.0

     negative rho (up, down):  4.654E-04 8.654E-04
 
     Adding external electric field

     Computed dipole along edir(3) : 
        Dipole               -0.9293 Ry au,         -2.3620 Debye
        Dipole field         -0.0006 Ry au, 
 
        Potential amp.        0.0624 Ry
        Total length         54.2615 bohr
 
 
     Adding external electric field

     Computed dipole along edir(3) : 
        Dipole               -0.9293 Ry au,         -2.3620 Debye
        Dipole field         -0.0006 Ry au, 
 
        Potential amp.        0.0624 Ry
        Total length         54.2615 bohr
 

     total cpu time spent up to now is      892.8 secs

     total energy              =   -7398.03343323 Ry
     estimated scf accuracy    <       0.06870509 Ry

     total magnetization       =    80.35 Bohr mag/cell
     absolute magnetization    =    82.11 Bohr mag/cell

     iteration # 49     ecut=    50.00 Ry     beta= 0.10
     Davidson diagonalization with overlap
     ethr =  5.71E-06,  avg # of iterations =  1.0

     negative rho (up, down):  7.199E-04 1.319E-03
 
     Adding external electric field

     Computed dipole along edir(3) : 
        Dipole               -0.7277 Ry au,         -1.8496 Debye
        Dipole field         -0.0005 Ry au, 
 
        Potential amp.        0.0488 Ry
        Total length         54.2615 bohr
 
 
     Adding external electric field

     Computed dipole along edir(3) : 
        Dipole               -0.7277 Ry au,         -1.8496 Debye
        Dipole field         -0.0005 Ry au, 
 
        Potential amp.        0.0488 Ry
        Total length         54.2615 bohr
 

     total cpu time spent up to now is      908.3 secs

     total energy              =   -7398.03380569 Ry
     estimated scf accuracy    <       0.06703751 Ry

     total magnetization       =    80.42 Bohr mag/cell
     absolute magnetization    =    82.13 Bohr mag/cell

     iteration # 50     ecut=    50.00 Ry     beta= 0.10
     Davidson diagonalization with overlap
     ethr =  5.71E-06,  avg # of iterations =  2.0

     negative rho (up, down):  8.530E-04 1.397E-03
 
     Adding external electric field

     Computed dipole along edir(3) : 
        Dipole               -0.8976 Ry au,         -2.2816 Debye
        Dipole field         -0.0006 Ry au, 
 
        Potential amp.        0.0602 Ry
        Total length         54.2615 bohr
 
 
     Adding external electric field

     Computed dipole along edir(3) : 
        Dipole               -0.8976 Ry au,         -2.2816 Debye
        Dipole field         -0.0006 Ry au, 
 
        Potential amp.        0.0602 Ry
        Total length         54.2615 bohr
 

     total cpu time spent up to now is      925.7 secs

     total energy              =   -7398.03224347 Ry
     estimated scf accuracy    <       0.06719008 Ry

     total magnetization       =    80.45 Bohr mag/cell
     absolute magnetization    =    82.17 Bohr mag/cell

     iteration # 51     ecut=    50.00 Ry     beta= 0.10
     Davidson diagonalization with overlap
     ethr =  5.71E-06,  avg # of iterations =  1.0

     negative rho (up, down):  1.268E-03 1.930E-03
 
     Adding external electric field

     Computed dipole along edir(3) : 
        Dipole               -0.9025 Ry au,         -2.2939 Debye
        Dipole field         -0.0006 Ry au, 
 
        Potential amp.        0.0606 Ry
        Total length         54.2615 bohr
 
 
     Adding external electric field

     Computed dipole along edir(3) : 
        Dipole               -0.9025 Ry au,         -2.2939 Debye
        Dipole field         -0.0006 Ry au, 
 
        Potential amp.        0.0606 Ry
        Total length         54.2615 bohr
 

     total cpu time spent up to now is      941.2 secs

     total energy              =   -7398.02754378 Ry
     estimated scf accuracy    <       0.06501111 Ry

     total magnetization       =    80.42 Bohr mag/cell
     absolute magnetization    =    82.16 Bohr mag/cell

     iteration # 52     ecut=    50.00 Ry     beta= 0.10
     Davidson diagonalization with overlap
     ethr =  5.71E-06,  avg # of iterations =  1.0

     negative rho (up, down):  2.467E-03 3.295E-03
 
     Adding external electric field

     Computed dipole along edir(3) : 
        Dipole               -0.8740 Ry au,         -2.2216 Debye
        Dipole field         -0.0005 Ry au, 
 
        Potential amp.        0.0587 Ry
        Total length         54.2615 bohr
 
 
     Adding external electric field

     Computed dipole along edir(3) : 
        Dipole               -0.8740 Ry au,         -2.2216 Debye
        Dipole field         -0.0005 Ry au, 
 
        Potential amp.        0.0587 Ry
        Total length         54.2615 bohr
 

     total cpu time spent up to now is      956.9 secs

     total energy              =   -7398.03367911 Ry
     estimated scf accuracy    <       0.06912892 Ry

     total magnetization       =    80.41 Bohr mag/cell
     absolute magnetization    =    82.34 Bohr mag/cell

     iteration # 53     ecut=    50.00 Ry     beta= 0.10
     Davidson diagonalization with overlap
     ethr =  5.71E-06,  avg # of iterations =  2.0

     negative rho (up, down):  1.868E-03 2.859E-03
 
     Adding external electric field

     Computed dipole along edir(3) : 
        Dipole               -0.8186 Ry au,         -2.0807 Debye
        Dipole field         -0.0005 Ry au, 
 
        Potential amp.        0.0549 Ry
        Total length         54.2615 bohr
 
 
     Adding external electric field

     Computed dipole along edir(3) : 
        Dipole               -0.8186 Ry au,         -2.0807 Debye
        Dipole field         -0.0005 Ry au, 
 
        Potential amp.        0.0549 Ry
        Total length         54.2615 bohr
 

     total cpu time spent up to now is      974.5 secs

     total energy              =   -7398.03220280 Ry
     estimated scf accuracy    <       0.06314372 Ry

     total magnetization       =    80.35 Bohr mag/cell
     absolute magnetization    =    81.93 Bohr mag/cell

     iteration # 54     ecut=    50.00 Ry     beta= 0.10
     Davidson diagonalization with overlap
     ethr =  5.71E-06,  avg # of iterations =  1.0

     negative rho (up, down):  2.172E-03 2.601E-03
 
     Adding external electric field

     Computed dipole along edir(3) : 
        Dipole               -1.1093 Ry au,         -2.8196 Debye
        Dipole field         -0.0007 Ry au, 
 
        Potential amp.        0.0744 Ry
        Total length         54.2615 bohr
 
 
     Adding external electric field

     Computed dipole along edir(3) : 
        Dipole               -1.1093 Ry au,         -2.8196 Debye
        Dipole field         -0.0007 Ry au, 
 
        Potential amp.        0.0744 Ry
        Total length         54.2615 bohr
 

     total cpu time spent up to now is      989.5 secs

     total energy              =   -7398.03915515 Ry
     estimated scf accuracy    <       0.06293372 Ry

     total magnetization       =    80.35 Bohr mag/cell
     absolute magnetization    =    81.94 Bohr mag/cell

     iteration # 55     ecut=    50.00 Ry     beta= 0.10
     Davidson diagonalization with overlap
     ethr =  5.71E-06,  avg # of iterations =  2.0

     negative rho (up, down):  1.535E-03 1.899E-03
 
     Adding external electric field

     Computed dipole along edir(3) : 
        Dipole               -1.0183 Ry au,         -2.5883 Debye
        Dipole field         -0.0006 Ry au, 
 
        Potential amp.        0.0683 Ry
        Total length         54.2615 bohr
 
 
     Adding external electric field

     Computed dipole along edir(3) : 
        Dipole               -1.0183 Ry au,         -2.5883 Debye
        Dipole field         -0.0006 Ry au, 
 
        Potential amp.        0.0683 Ry
        Total length         54.2615 bohr
 

     total cpu time spent up to now is     1005.8 secs

     total energy              =   -7398.03800838 Ry
     estimated scf accuracy    <       0.06203430 Ry

     total magnetization       =    80.41 Bohr mag/cell
     absolute magnetization    =    82.04 Bohr mag/cell

     iteration # 56     ecut=    50.00 Ry     beta= 0.10
     Davidson diagonalization with overlap
     ethr =  5.71E-06,  avg # of iterations =  1.0

     negative rho (up, down):  2.655E-03 3.390E-03
 
     Adding external electric field

     Computed dipole along edir(3) : 
        Dipole               -0.9267 Ry au,         -2.3554 Debye
        Dipole field         -0.0006 Ry au, 
 
        Potential amp.        0.0622 Ry
        Total length         54.2615 bohr
 
 
     Adding external electric field

     Computed dipole along edir(3) : 
        Dipole               -0.9267 Ry au,         -2.3554 Debye
        Dipole field         -0.0006 Ry au, 
 
        Potential amp.        0.0622 Ry
        Total length         54.2615 bohr
 

     total cpu time spent up to now is     1020.6 secs

     total energy              =   -7398.03696475 Ry
     estimated scf accuracy    <       0.06041286 Ry

     total magnetization       =    80.39 Bohr mag/cell
     absolute magnetization    =    82.14 Bohr mag/cell

     iteration # 57     ecut=    50.00 Ry     beta= 0.10
     Davidson diagonalization with overlap
     ethr =  5.60E-06,  avg # of iterations =  1.5

     negative rho (up, down):  3.903E-03 4.729E-03
 
     Adding external electric field

     Computed dipole along edir(3) : 
        Dipole               -0.8413 Ry au,         -2.1383 Debye
        Dipole field         -0.0005 Ry au, 
 
        Potential amp.        0.0565 Ry
        Total length         54.2615 bohr
 
 
     Adding external electric field

     Computed dipole along edir(3) : 
        Dipole               -0.8413 Ry au,         -2.1383 Debye
        Dipole field         -0.0005 Ry au, 
 
        Potential amp.        0.0565 Ry
        Total length         54.2615 bohr
 

     total cpu time spent up to now is     1035.5 secs

     total energy              =   -7398.03675139 Ry
     estimated scf accuracy    <       0.05504643 Ry

     total magnetization       =    80.41 Bohr mag/cell
     absolute magnetization    =    82.08 Bohr mag/cell

     iteration # 58     ecut=    50.00 Ry     beta= 0.10
     Davidson diagonalization with overlap
     ethr =  5.11E-06,  avg # of iterations =  1.0

     negative rho (up, down):  6.501E-04 9.336E-04
 
     Adding external electric field

     Computed dipole along edir(3) : 
        Dipole               -0.7470 Ry au,         -1.8986 Debye
        Dipole field         -0.0005 Ry au, 
 
        Potential amp.        0.0501 Ry
[...]
    -5.9976  -5.9843  -5.9554  -5.9340  -5.9147  -5.8839  -5.8488  -5.8409
    -5.8180  -5.8048  -5.7580  -5.7341  -5.7303  -5.7128  -5.6949  -5.6862
    -5.6738  -5.6680  -5.6370  -5.6221  -5.6112  -5.5976  -5.5280  -5.5116
    -5.4596  -5.4498  -5.4053  -5.4041  -5.3869  -5.3511  -5.3068  -5.2845
    -5.2421  -5.2131  -5.1878  -5.1781  -5.1671  -5.0833  -5.0797  -5.0577
    -4.9964  -4.9644  -4.9533  -4.9140  -4.8904  -4.8697  -4.8487  -4.7984
    -4.7816  -4.7644  -4.7630  -4.7339  -4.6439  -4.6304  -4.5812  -4.5487
    -4.5350  -4.5198  -4.4969  -4.4502  -4.4215  -4.3970  -4.3815  -4.3715
    -4.3634  -4.2968  -4.2929  -4.2296  -4.1755  -4.1469  -4.1084  -4.0927
    -4.0780  -4.0446  -4.0388  -4.0039  -3.9611  -3.9543  -3.9101  -3.9013
    -3.8842  -3.8448  -3.8253  -3.8153  -3.8047  -3.7694  -3.7440  -3.7332
    -3.7071  -3.6846  -3.6660  -3.6542  -3.6417  -3.6303  -3.6029  -3.5784
    -3.5457  -3.5275  -3.5235  -3.5016  -3.5001  -3.4855  -3.4521  -3.4441
    -3.4142  -3.4046  -3.3848  -3.3520  -3.3439  -3.3060  -3.2761  -3.2582
    -3.2354  -3.2189  -3.2081  -3.1907  -3.1729  -3.1657  -3.1481  -3.1419
    -3.1192  -3.0845  -3.0411  -3.0278  -3.0133  -2.9939  -2.9651  -2.9562
    -2.9241  -2.9159  -2.8973  -2.8727  -2.8602  -2.8456  -2.8211  -2.8112
    -2.7977  -2.7893  -2.7837  -2.7753  -2.7537  -2.7450  -2.7244  -2.7048
    -2.6892  -2.6654  -2.6639  -2.6516  -2.6240  -2.6102  -2.5947  -2.5814
    -2.5493  -2.5351  -2.5211  -2.5113  -2.4914  -2.4875  -2.4687  -2.4442
    -2.4257  -2.4008  -2.3891  -2.3671  -2.3507  -2.3147  -2.3007  -2.2849
    -2.2634  -2.2498  -2.2366  -2.2078  -2.1695  -2.1623  -2.1317  -2.1279
    -2.1120  -2.0850  -2.0827  -2.0729  -2.0650  -2.0399  -2.0076  -1.9924
    -1.9757  -1.9633  -1.9543  -1.9375  -1.9338  -1.9158  -1.8998  -1.8706
    -1.8454  -1.8202  -1.7923  -1.7666  -1.7380  -1.7271  -1.7071  -1.6983
    -1.6765  -1.6562  -1.6448  -1.6304  -1.6127  -1.5991  -1.5751  -1.5479
    -1.5311  -1.5160  -1.4884  -1.4664  -1.4557  -1.4284  -1.4206  -1.4175
    -1.4084  -1.3733  -1.3429  -1.3102  -1.2980  -1.2466  -1.2225  -1.2050
    -1.1530  -1.0938  -1.0727  -1.0531  -1.0146  -0.9271  -0.8928  -0.8769
    -0.7656  -0.6610  -0.6142  -0.6127  -0.4639  -0.3675  -0.3387  -0.2598
     0.1018   0.1250   0.1542   0.1901   0.2242   0.2432   0.2594   0.2701
     0.2825   0.2907   0.2990   0.3061   0.3131   0.3319   0.3427   0.3430
     0.3555   0.3615   0.3712   0.3779   0.3862   0.3911   0.3982   0.4008
     0.4099   0.4122   0.4248   0.4358   0.4461   0.4541   0.4563   0.4598
     0.4646   0.4661   0.4750   0.4816   0.4927   0.4996   0.5033   0.5125
     0.5170   0.5339   0.5394   0.5471   0.5602   0.5620   0.5663   0.5743
     0.5808   0.5880   0.5941   0.5979   0.6054   0.6143   0.6255   0.6343
     0.6450   0.6553   0.6617   0.6626   0.6662   0.6748   0.6846   0.6867
     0.6951   0.7041   0.7102   0.7141   0.7196   0.7247   0.7429   0.7461
     0.7498   0.7546   0.7786   0.7863   0.7881   0.7970   0.8072   0.8248
     0.8393   0.8426   0.8441   0.8539   0.8636   0.8661   0.8791   0.8830
     0.8971   0.9004   0.9129   0.9182   0.9260   0.9860   1.0143   1.0193
     1.0713   1.1351   1.6084   1.6578   1.6974   1.7004   1.7135   1.7434
     1.7591   1.8396   1.8707   1.8742   1.8910   1.9193   1.9327   1.9631
     1.9902   1.9959   2.0130   2.0191   2.0568   2.0715   2.0798   2.1178
     2.1450   2.1578   2.1832   2.1903   2.1959   2.2149   2.2243   2.2375
     2.2516   2.2557   2.2662   2.2830   2.2912   2.2997   2.3048   2.3239
     2.3347   2.3422   2.3708   2.3840   2.4107   2.4159   2.4189   2.4388
     2.4539   2.4737   2.4968   2.5003   2.5150   2.5346   2.5395   2.5527
     2.5806   2.5922   2.6284   2.6456   2.6660   2.6896   2.7315   2.7563
     2.7867   2.8342   2.8425   2.8907   2.9042   3.5618   3.5905   3.6650
     3.7317   3.8196   3.8299   3.8440   3.8607   3.9982   4.0620   4.5590
     4.6420   4.7003   4.7739   4.9250   4.9459   5.0192   5.4150   6.2941
     6.3602   6.5419   6.5816   6.7389   6.8315   6.8435   6.8814   6.9246
     7.0275   7.0811   7.0906   7.1242   7.3189   7.3679   7.3901   7.4294
     7.5041   7.5435   7.6577   7.6773   7.6921   7.7278   7.7920   7.8066
     7.8504   7.9221   7.9629   7.9751   8.0097   8.0225   8.0492   8.0724
     8.0990   8.1186   8.1712   8.2031   8.2355   8.2524   8.2865   8.3214
     8.3786   8.4015   8.4156   8.4622   8.4746   8.4769   8.5004   8.5135
     8.5499   8.5538   8.5933   8.5971   8.6141   8.6364   8.6709   8.6804
     8.7168   8.7544   8.7715   8.7972   8.8338   8.8448   8.8621

     the Fermi energy is     1.5650 ev

!    total energy              =   -7398.03610719 Ry
     estimated scf accuracy    <       0.00000098 Ry
     smearing contrib. (-TS)   =      -0.01418700 Ry
     internal energy E=F+TS    =   -7398.02192019 Ry

     The total energy is F=E-TS. E is the sum of the following terms:
     one-electron contribution =  -91723.91267643 Ry
     hartree contribution      =   46509.73624238 Ry
     xc contribution           =   -2260.27979871 Ry
     ewald contribution        =   40078.26819107 Ry
     Dispersion Correction     =      -1.83389200 Ry
     electric field correction =       0.00001350 Ry

     total magnetization       =    80.45 Bohr mag/cell
     absolute magnetization    =    81.98 Bohr mag/cell

     convergence has been achieved in 149 iterations

     negative rho (up, down):  9.283E-04 5.460E-04

     Forces acting on atoms (cartesian axes, Ry/au):

     atom    1 type  2   force =     0.03094570   -0.01972931   -0.01595871
     atom    2 type  1   force =     0.00210735   -0.00397280   -0.01065566
     atom    3 type  1   force =    -0.02153842   -0.02056162    0.01840171
     atom    4 type  1   force =     0.00138386    0.01025593   -0.01260637
     atom    5 type  1   force =    -0.00468952    0.02887754   -0.01829891
     atom    6 type  1   force =     0.00582012    0.00060834   -0.00030109
     atom    7 type  1   force =     0.02690968   -0.02107112    0.01766612
     atom    8 type  1   force =    -0.00948912   -0.00306750   -0.01101058
     atom    9 type  1   force =    -0.02979541   -0.01812468    0.01637746
     atom   10 type  1   force =    -0.00114898    0.00812395   -0.01290087
     atom   11 type  1   force =    -0.01323757    0.03027364   -0.02051465
     atom   12 type  1   force =     0.00128650    0.00666124   -0.00396915
     atom   13 type  3   force =     0.05101252   -0.11003925    0.00914102
     atom   14 type  3   force =    -0.02903114    0.03593258   -0.06519454
     atom   15 type  3   force =    -0.00918910    0.17547771   -0.08317864
     atom   16 type  3   force =     0.06071247    0.00055370   -0.00441091
     atom   17 type  4   force =     0.01520862   -0.02182173   -0.00972172
     atom   18 type  4   force =    -0.00537278    0.00479399    0.02962532
     atom   19 type  4   force =     0.00213419    0.00098778    0.03073447
     atom   20 type  4   force =     0.00511777    0.00190477    0.00239943
     atom   21 type  4   force =     0.00059566   -0.01197149   -0.00007020
     atom   22 type  4   force =    -0.00093073    0.00388801    0.03247567
     atom   23 type  4   force =    -0.00605706    0.01469871    0.02736009
     atom   24 type  4   force =     0.00865885    0.00325739   -0.00432624
     atom   25 type  4   force =     0.00645904   -0.00329929    0.00155840
     atom   26 type  4   force =     0.03117616   -0.17834087    0.00725232
     atom   27 type  4   force =     0.00292845    0.00100229    0.00170060
     atom   28 type  4   force =    -0.01704064    0.00167304    0.00476352
     atom   29 type  4   force =     0.09130787    0.00314441    0.00807556
     atom   30 type  4   force =     0.01308036   -0.02513116   -0.00089099
     atom   31 type  4   force =    -0.03842997    0.13329534   -0.00018423
     atom   32 type  4   force =    -0.00558894   -0.01188846    0.00652013
     atom   33 type  3   force =     0.04158534   -0.11920141    0.00958453
     atom   34 type  3   force =    -0.10166760    0.04258193   -0.07575073
     atom   35 type  3   force =    -0.01350477    0.16598698   -0.08811675
     atom   36 type  3   force =    -0.00359721    0.00256545   -0.01046631
     atom   37 type  4   force =     0.00825648   -0.01467696   -0.00233286
     atom   38 type  4   force =    -0.00583042   -0.00173457    0.02737838
     atom   39 type  4   force =    -0.00468323    0.00723691    0.03216554
     atom   40 type  4   force =     0.00128862    0.00005667    0.00250774
     atom   41 type  4   force =    -0.00147671   -0.00962426   -0.00153566
     atom   42 type  4   force =     0.00541024   -0.00050664    0.02933315
     atom   43 type  4   force =    -0.01042517    0.01353744    0.02698273
     atom   44 type  4   force =     0.00443381    0.00350399   -0.00449205
     atom   45 type  4   force =    -0.00033721   -0.00067216    0.00201356
     atom   46 type  4   force =     0.02815460   -0.17059012    0.00541787
     atom   47 type  4   force =    -0.06547888   -0.00073255   -0.00310332
     atom   48 type  4   force =    -0.01987720    0.00390994    0.00531075
     atom   49 type  4   force =     0.01404080    0.00086471    0.00206504
     atom   50 type  4   force =     0.00795309   -0.02436020   -0.00014185
     atom   51 type  4   force =    -0.03973827    0.13331312   -0.00135354
     atom   52 type  4   force =    -0.00782763   -0.01068270    0.00876443
     atom   53 type  2   force =     0.00647910   -0.00741749    0.00565033
     atom   54 type  1   force =     0.00097243   -0.00402112    0.00715989
     atom   55 type  1   force =     0.00502686   -0.00622606    0.00669995
     atom   56 type  1   force =    -0.00084458    0.00726157   -0.00066024
     atom   57 type  1   force =     0.00057868    0.02202979   -0.01404285
     atom   58 type  1   force =     0.00162444   -0.00326757    0.00255463
     atom   59 type  1   force =     0.00248960   -0.01019845    0.00387077
     atom   60 type  1   force =    -0.00745144   -0.00364015    0.00396054
     atom   61 type  1   force =    -0.00473806   -0.00492255    0.00674463
     atom   62 type  1   force =    -0.00225848    0.00504209    0.00226006
     atom   63 type  1   force =    -0.01087183    0.02508689   -0.01736660
     atom   64 type  1   force =    -0.00230444    0.00122234   -0.00058396
     atom   65 type  3   force =     0.04666443   -0.11945782    0.01679983
     atom   66 type  3   force =     0.00155873   -0.00439650    0.00065167
     atom   67 type  3   force =    -0.04056230    0.12366778   -0.00694454
     atom   68 type  3   force =     0.06322979   -0.00245495    0.00828743
     atom   69 type  4   force =     0.01283253   -0.01732829   -0.00196202
     atom   70 type  4   force =    -0.00169378    0.00337434   -0.00074108
     atom   71 type  4   force =    -0.00193823    0.00333724    0.00516561
     atom   72 type  4   force =     0.00471184    0.00161550    0.00096288
     atom   73 type  4   force =     0.00680650   -0.01706717    0.01165026
     atom   74 type  4   force =    -0.00437640   -0.00338904    0.00942263
     atom   75 type  4   force =     0.00348143    0.00860620    0.00460551
     atom   76 type  4   force =     0.00531126    0.00022601    0.00088964
     atom   77 type  4   force =     0.00595248   -0.00144323   -0.00073838
     atom   78 type  4   force =     0.04522819   -0.14076803    0.00579798
     atom   79 type  4   force =     0.00044111    0.00030425   -0.00097136
     atom   80 type  4   force =     0.00158300    0.00183996    0.00227089
     atom   81 type  4   force =     0.06724897    0.00013548    0.00654820
     atom   82 type  4   force =     0.00023567    0.00248700    0.00131383
     atom   83 type  4   force =    -0.03953671    0.13722287   -0.00228516
     atom   84 type  4   force =    -0.00222928   -0.01050969    0.00358201
     atom   85 type  3   force =     0.03900838   -0.12282252    0.02652876
     atom   86 type  3   force =    -0.06321583   -0.00177548   -0.00386643
     atom   87 type  3   force =    -0.04620973    0.12090695   -0.01042002
     atom   88 type  3   force =     0.00007468   -0.00107607    0.00188700
     atom   89 type  4   force =     0.00871692   -0.01531201   -0.00501610
     atom   90 type  4   force =    -0.00444389    0.00104648   -0.00082527
     atom   91 type  4   force =    -0.00949036    0.00829878    0.00549005
     atom   92 type  4   force =     0.00021145    0.00008460    0.00000852
     atom   93 type  4   force =     0.00193053   -0.01179618    0.00081631
     atom   94 type  4   force =    -0.00900934   -0.00300220    0.00842289
     atom   95 type  4   force =    -0.00034400    0.00771864    0.00303748
     atom   96 type  4   force =    -0.00129070    0.00212823   -0.00210215
     atom   97 type  4   force =    -0.00103749    0.00150479   -0.00032120
     atom   98 type  4   force =     0.04062166   -0.13916938    0.00487304
     atom   99 type  4   force =    -0.06723149   -0.00066824   -0.00571965
     atom  100 type  4   force =    -0.00037715    0.00280658    0.00286443
     atom  101 type  4   force =    -0.00131669    0.00010818    0.00143893
     atom  102 type  4   force =    -0.00680418    0.00559561    0.00158368
     atom  103 type  4   force =    -0.03980144    0.13533163   -0.00467424
     atom  104 type  4   force =    -0.00550764   -0.01021933    0.00528626
     atom  105 type  2   force =     0.00012637    0.00014384   -0.00010064
     atom  106 type  1   force =    -0.00010152   -0.00049401   -0.00047685
     atom  107 type  1   force =    -0.00042273   -0.00065719   -0.00012245
     atom  108 type  1   force =    -0.00022710   -0.00046846   -0.00021558
     atom  109 type  1   force =     0.00023045   -0.00029401   -0.00069182
     atom  110 type  1   force =    -0.00005024   -0.00002446    0.00002878
     atom  111 type  1   force =    -0.00002614    0.00013417    0.00011500
     atom  112 type  1   force =     0.00015871   -0.00058592   -0.00026249
     atom  113 type  1   force =    -0.00042546   -0.00043491   -0.00065240
     atom  114 type  1   force =    -0.00033899    0.00092670   -0.00095344
     atom  115 type  1   force =     0.00006382    0.00010087   -0.00017061
     atom  116 type  1   force =     0.00008183    0.00000743   -0.00047036
     atom  117 type  3   force =     0.00043304    0.00035115   -0.00068123
     atom  118 type  3   force =    -0.00041132   -0.00025001   -0.00019404
     atom  119 type  3   force =    -0.00007171    0.00004290    0.00038205
     atom  120 type  3   force =     0.00051161   -0.00017799    0.00032239
     atom  121 type  4   force =     0.00008918   -0.00006760    0.00024761
     atom  122 type  4   force =    -0.00002403   -0.00002635   -0.00035432
     atom  123 type  4   force =     0.00016654   -0.00001229    0.00003113
     atom  124 type  4   force =     0.00028924   -0.00035098   -0.00016156
     atom  125 type  4   force =    -0.00017068   -0.00023981    0.00030291
     atom  126 type  4   force =     0.00023696   -0.00046760    0.00008754
     atom  127 type  4   force =    -0.00010602    0.00010737    0.00044808
     atom  128 type  4   force =     0.00001704    0.00040195   -0.00073426
     atom  129 type  4   force =    -0.00069462    0.00072623   -0.00041829
     atom  130 type  4   force =     0.00011395    0.00031082    0.00019079
     atom  131 type  4   force =     0.00013367   -0.00091043    0.00039382
     atom  132 type  4   force =     0.00018539   -0.00012562   -0.00022083
     atom  133 type  4   force =    -0.00030096   -0.00015773   -0.00018939
     atom  134 type  4   force =     0.00013901   -0.00004488    0.00001013
     atom  135 type  4   force =    -0.00014651   -0.00041425   -0.00000040
     atom  136 type  4   force =    -0.00020446   -0.00010882   -0.00009057
     atom  137 type  3   force =    -0.00064437   -0.00033312   -0.00025939
     atom  138 type  3   force =     0.00013260    0.00001420   -0.00008958
     atom  139 type  3   force =    -0.00003678   -0.00033512   -0.00030465
     atom  140 type  3   force =    -0.00005070   -0.00008389   -0.00051416
     atom  141 type  4   force =     0.00091348    0.00051262    0.00071843
     atom  142 type  4   force =    -0.00016645    0.00007531   -0.00018580
     atom  143 type  4   force =    -0.00003909   -0.00033138    0.00000146
     atom  144 type  4   force =    -0.00003492    0.00074435   -0.00063803
     atom  145 type  4   force =     0.00002503   -0.00009483    0.00009582
     atom  146 type  4   force =     0.00021678   -0.00029986    0.00037761
     atom  147 type  4   force =     0.00006966    0.00006025   -0.00008748
     atom  148 type  4   force =    -0.00062582    0.00018564    0.00018041
     atom  149 type  4   force =     0.00035899   -0.00025202   -0.00008133
     atom  150 type  4   force =     0.00012514   -0.00001768    0.00000118
     atom  151 type  4   force =     0.00009672    0.00022913   -0.00055811
     atom  152 type  4   force =     0.00044313   -0.00035969    0.00031134
     atom  153 type  4   force =    -0.00000471    0.00004733   -0.00004137
     atom  154 type  4   force =    -0.00033761   -0.00027886   -0.00005895
     atom  155 type  4   force =     0.00084195    0.00073766    0.00010315
     atom  156 type  4   force =    -0.00075312    0.00019464    0.00000910
     atom  157 type  4   force =    -0.00689610   -0.00774730   -0.00044414
     atom  158 type  5   force =     0.00699226    0.00658563    0.00213152

     Total force =     0.664605     Total SCF correction =     0.004326
 
     init_run     :     10.22s CPU     11.05s WALL (       1 calls)
     electrons    :   2422.06s CPU   2533.14s WALL (       1 calls)
     forces       :      6.17s CPU      6.68s WALL (       1 calls)
     force_london :      0.12s CPU      0.12s WALL (       1 calls)

     Called by init_run:
     wfcinit      :      5.89s CPU      6.08s WALL (       1 calls)
     potinit      :      0.76s CPU      0.97s WALL (       1 calls)
     hinit0       :      1.73s CPU      1.84s WALL (       1 calls)

     Called by electrons:
     c_bands      :   1811.92s CPU   1864.27s WALL (     149 calls)
     sum_band     :    381.56s CPU    412.94s WALL (     149 calls)
     v_of_rho     :     33.86s CPU     35.40s WALL (     150 calls)
     newd         :    139.00s CPU    164.55s WALL (     150 calls)
     mix_rho      :     52.45s CPU     52.75s WALL (     149 calls)
     energy_londo :      0.12s CPU      0.12s WALL (       1 calls)

     Called by c_bands:
     init_us_2    :      5.69s CPU      5.88s WALL (     600 calls)
     init_us_2:cp :      5.68s CPU      5.87s WALL (     600 calls)
     regterg      :   1764.96s CPU   1816.58s WALL (     302 calls)

     Called by *egterg:
     rdiaghg      :    399.42s CPU    420.19s WALL (     958 calls)
     h_psi        :    752.35s CPU    767.57s WALL (     960 calls)
     s_psi        :    132.68s CPU    132.80s WALL (     960 calls)
     g_psi        :      0.96s CPU      0.96s WALL (     656 calls)

     Called by h_psi:
     h_psi:calbec :    211.64s CPU    223.53s WALL (     960 calls)
     vloc_psi     :    405.45s CPU    407.29s WALL (     960 calls)
     add_vuspsi   :    133.43s CPU    134.89s WALL (     960 calls)

     General routines
     calbec       :    312.61s CPU    330.24s WALL (    1266 calls)
     fft          :     88.14s CPU     90.27s WALL (    2713 calls)
     ffts         :     28.48s CPU     28.54s WALL (   18653 calls)
     fftw         :    456.85s CPU    458.73s WALL (  495980 calls)
     interpolate  :      3.51s CPU      3.72s WALL (     300 calls)
 
     Parallel routines
 
     PWSCF        :  40m40.65s CPU  42m33.42s WALL

 
   This run was terminated on:  20:40: 6  19Nov2025            

=------------------------------------------------------------------------------=
   JOB DONE.
=------------------------------------------------------------------------------=
