
     Program PWSCF v.7.2 starts on 19Nov2025 at 23:19:17 

     This program is part of the open-source Quantum ESPRESSO suite
     for quantum simulation of materials; please cite
         "P. Giannozzi et al., J. Phys.:Condens. Matter 21 395502 (2009);
         "P. Giannozzi et al., J. Phys.:Condens. Matter 29 465901 (2017);
         "P. Giannozzi et al., J. Chem. Phys. 152 154105 (2020);
          URL http://www.quantum-espresso.org", 
     in publications or presentations arising from this work. More details at
     http://www.quantum-espresso.org/quote

     Parallel version (MPI), running on    64 processors

     MPI processes distributed on     4 nodes
     373846 MiB available memory on the printing compute node when the environment starts
 
     Reading input from PWINPUT_atm158_zp

     Current dimensions of program PWSCF are:
     Max number of different atomic species (ntypx) = 10
     Max number of k-points (npk) =  40000
     Max angular momentum in pseudopotentials (lmaxx) =  4
     Presently no symmetry can be used with electric field

     file Ni.pbe-n-rrkjus_psl.1.0.0.UPF: wavefunction(s)  3D renormalized
     file Mn.pbe-spn-rrkjus_psl.0.3.1.UPF: wavefunction(s)  3D renormalized
     file O.pbe-rrkjus.UPF: wavefunction(s)  2S renormalized
     file H.pbe-rrkjus.UPF: wavefunction(s)  1S renormalized

     gamma-point specific algorithms are used
 
     R & G space division:  proc/nbgrp/npool/nimage =      64
     Subspace diagonalization in iterative solution of the eigenvalue problem:
     one sub-group per band group will be used
     custom distributed-memory algorithm (size of sub-group:  6*  6 procs)

 
     Parallelization info
     --------------------
     sticks:   dense  smooth     PW     G-vecs:    dense   smooth      PW
     Min         208      82     20                59912    15118    1876
     Max         210      84     22                59974    15196    1926
     Sum       13399    5355   1345              3836275   970529  121367
 
     Using Slab Decomposition
 


     bravais-lattice index     =            0
     lattice parameter (alat)  =      17.7004  a.u.
     unit-cell volume          =   20319.7251 (a.u.)^3
     number of atoms/cell      =          158
     number of atomic types    =            5
     number of electrons       =      1078.00
     number of Kohn-Sham states=          647
     kinetic-energy cutoff     =      50.0000  Ry
     charge density cutoff     =     500.0000  Ry
     scf convergence threshold =      1.0E-06
     mixing beta               =       0.1000
     number of iterations used =            8  local-TF  mixing
     Exchange-correlation=  SLA  PW   PBE  PBE
                           (   1   4   3   4   0   0   0)

     celldm(1)=  17.700384  celldm(2)=   0.000000  celldm(3)=   0.000000
     celldm(4)=   0.000000  celldm(5)=   0.000000  celldm(6)=   0.000000

     crystal axes: (cart. coord. in units of alat)
               a(1) = (   1.000000   0.000000   0.000000 )  
               a(2) = (   0.000000   1.075730   0.000000 )  
               a(3) = (   0.000000   0.000000   3.406172 )  

     reciprocal axes: (cart. coord. in units 2 pi/alat)
               b(1) = (  1.000000  0.000000  0.000000 )  
               b(2) = (  0.000000  0.929602  0.000000 )  
               b(3) = (  0.000000  0.000000  0.293585 )  


     PseudoPot. # 1 for Ni read from file:
     ~/PSEUDO/Ni.pbe-n-rrkjus_psl.1.0.0.UPF
     MD5 check sum: Not computed, couldn't open file
     Pseudo is Ultrasoft + core correction, Zval = 10.0
     Generated using "atomic" code by A. Dal Corso  v.5.1.2
     Using radial grid of 1195 points,  6 beta functions with: 
                l(1) =   0
                l(2) =   0
                l(3) =   1
                l(4) =   1
                l(5) =   2
                l(6) =   2
     Q(r) pseudized with 0 coefficients 


     PseudoPot. # 2 for Mn read from file:
     ~/PSEUDO/Mn.pbe-spn-rrkjus_psl.0.3.1.UPF
     MD5 check sum: Not computed, couldn't open file
     Pseudo is Ultrasoft + core correction, Zval = 15.0
     Generated using &quot;atomic&quot; code by A. Dal Corso  v.6.2.2
     Using radial grid of 1187 points,  6 beta functions with: 
                l(1) =   0
                l(2) =   0
                l(3) =   1
                l(4) =   1
                l(5) =   2
                l(6) =   2
     Q(r) pseudized with 0 coefficients 


     PseudoPot. # 3 for P  read from file:
     ~/PSEUDO/P.pbe-n-rrkjus_psl.1.0.0.UPF
     MD5 check sum: Not computed, couldn't open file
     Pseudo is Ultrasoft + core correction, Zval =  5.0
     Generated using "atomic" code by A. Dal Corso  v.5.1
     Using radial grid of 1147 points,  6 beta functions with: 
                l(1) =   0
                l(2) =   0
                l(3) =   1
                l(4) =   1
                l(5) =   2
                l(6) =   2
     Q(r) pseudized with 0 coefficients 


     PseudoPot. # 4 for O  read from file:
     ~/PSEUDO/O.pbe-rrkjus.UPF
     MD5 check sum: Not computed, couldn't open file
     Pseudo is Ultrasoft, Zval =  6.0
     Generated by new atomic code, or converted to UPF format
     Using radial grid of 1269 points,  4 beta functions with: 
                l(1) =   0
                l(2) =   0
                l(3) =   1
                l(4) =   1
     Q(r) pseudized with 0 coefficients 


     PseudoPot. # 5 for H  read from file:
     ~/PSEUDO/H.pbe-rrkjus.UPF
     MD5 check sum: Not computed, couldn't open file
     Pseudo is Ultrasoft, Zval =  1.0
     Generated by new atomic code, or converted to UPF format
     Using radial grid of 1061 points,  2 beta functions with: 
                l(1) =   0
                l(2) =   0
     Q(r) pseudized with 0 coefficients 


     atomic species   valence    mass     pseudopotential
     Ni               10.00    58.69300     Ni( 1.00)
     Mn               15.00    54.93800     Mn( 1.00)
     P                 5.00    30.97300     P ( 1.00)
     O                 6.00    15.99900     O ( 1.00)
     H                 1.00     1.00790     H ( 1.00)

     Starting magnetic structure 
     atomic species   magnetization
     Ni              1.000
     Mn              1.000
     P               1.000
     O               1.000
     H               0.000

     No symmetry found



   Cartesian axes

     site n.     atom                  positions (alat units)
         1        Mn     tau(   1) = (   0.2404744   0.8371250   0.1168501  )
         2        Ni     tau(   2) = (   0.4968126   0.7726670   0.4415546  )
         3        Ni     tau(   3) = (   0.0066150   0.2936743   0.1241053  )
         4        Ni     tau(   4) = (   0.2585722   0.2355858   0.4448848  )
         5        Ni     tau(   5) = (   0.9987350   1.0696411   0.2854926  )
         6        Ni     tau(   6) = (   0.2517397   0.5330511   0.2829322  )
         7        Ni     tau(   7) = (   0.7451645   0.8337543   0.1221751  )
         8        Ni     tau(   8) = (   0.9939181   0.7738804   0.4407595  )
         9        Ni     tau(   9) = (   0.5111533   0.2924088   0.1251865  )
        10        Ni     tau(  10) = (   0.7606326   0.2319267   0.4451372  )
        11        Ni     tau(  11) = (   0.5024065   1.0688133   0.2870502  )
        12        Ni     tau(  12) = (   0.7529977   0.5317900   0.2845227  )
        13        P      tau(  13) = (   0.2092944   0.9731097   0.4345035  )
        14        P      tau(  14) = (   0.4655727   0.6359535   0.1274635  )
        15        P      tau(  15) = (   0.2910699   0.1027363   0.1296098  )
        16        P      tau(  16) = (   0.0396216   0.4288395   0.4398838  )
        17        O      tau(  17) = (   0.1294378   0.9013260   0.3010618  )
        18        O      tau(  18) = (   0.3874505   0.7054774   0.2637003  )
        19        O      tau(  19) = (   0.3702540   0.1714799   0.2660028  )
        20        O      tau(  20) = (   0.1184398   0.3582958   0.3038353  )
        21        O      tau(  21) = (   0.1451572   0.8850881   0.5587578  )
        22        O      tau(  22) = (   0.4048762   0.7245585   0.0017492  )
        23        O      tau(  23) = (   0.3523506   0.1900579   0.0035744  )
        24        O      tau(  24) = (   0.1017610   0.3410484   0.5656572  )
        25        O      tau(  25) = (   0.0975396   0.5849288   0.4357922  )
        26        O      tau(  26) = (   0.3483552   1.0314945   0.1270322  )
        27        O      tau(  27) = (   0.3784305   0.4225118   0.4308928  )
        28        O      tau(  28) = (   0.1268237   0.1067944   0.1392744  )
        29        O      tau(  29) = (   0.1212267   0.6424170   0.1362896  )
        30        O      tau(  30) = (   0.4053315   0.4809387   0.1300622  )
        31        O      tau(  31) = (   0.1536621   0.0446918   0.4373386  )
        32        O      tau(  32) = (   0.3732349   0.9631717   0.4256642  )
        33        P      tau(  33) = (   0.7119823   0.9695974   0.4373010  )
        34        P      tau(  34) = (   0.9615208   0.6363392   0.1262932  )
        35        P      tau(  35) = (   0.7927710   0.0970060   0.1292164  )
        36        P      tau(  36) = (   0.5426404   0.4269675   0.4410738  )
        37        O      tau(  37) = (   0.6326879   0.8991182   0.3013240  )
        38        O      tau(  38) = (   0.8842163   0.7083206   0.2625155  )
        39        O      tau(  39) = (   0.8716178   0.1677751   0.2653504  )
        40        O      tau(  40) = (   0.6212010   0.3558666   0.3051085  )
        41        O      tau(  41) = (   0.6507714   0.8812342   0.5631722  )
        42        O      tau(  42) = (   0.9014054   0.7264458   0.0010676  )
        43        O      tau(  43) = (   0.8548963   0.1847909   0.0035471  )
        44        O      tau(  44) = (   0.6044469   0.3378706   0.5660366  )
        45        O      tau(  45) = (   0.6024424   0.5823140   0.4379016  )
        46        O      tau(  46) = (   0.8498940   1.0254482   0.1275156  )
        47        O      tau(  47) = (   0.8798395   0.4205825   0.4305771  )
        48        O      tau(  48) = (   0.6286921   0.1034636   0.1397346  )
        49        O      tau(  49) = (   0.6294973   0.6427753   0.1372553  )
        50        O      tau(  50) = (   0.9024339   0.4810312   0.1296418  )
        51        O      tau(  51) = (   0.6547812   0.0410987   0.4396636  )
        52        O      tau(  52) = (   0.8760507   0.9632605   0.4264507  )
        53        Mn     tau(  53) = (   0.2404744   0.8246335   0.7367378  )
        54        Ni     tau(  54) = (   0.4968126   0.7601755   1.0614423  )
        55        Ni     tau(  55) = (   0.0066150   0.2811828   0.7439929  )
        56        Ni     tau(  56) = (   0.2585722   0.2230943   1.0647725  )
        57        Ni     tau(  57) = (   0.9987350   1.0571496   0.9053803  )
        58        Ni     tau(  58) = (   0.2517397   0.5205596   0.9028199  )
        59        Ni     tau(  59) = (   0.7451645   0.8212628   0.7420628  )
        60        Ni     tau(  60) = (   0.9939181   0.7613889   1.0606471  )
        61        Ni     tau(  61) = (   0.5111533   0.2799173   0.7450742  )
        62        Ni     tau(  62) = (   0.7606326   0.2194352   1.0650249  )
        63        Ni     tau(  63) = (   0.5024065   1.0563218   0.9069379  )
        64        Ni     tau(  64) = (   0.7529977   0.5192985   0.9044104  )
        65        P      tau(  65) = (   0.2092944   0.9606182   1.0543912  )
        66        P      tau(  66) = (   0.4655727   0.6234620   0.7473512  )
        67        P      tau(  67) = (   0.2910699   0.0902448   0.7494974  )
        68        P      tau(  68) = (   0.0396216   0.4163480   1.0597715  )
        69        O      tau(  69) = (   0.1294378   0.8888345   0.9209495  )
        70        O      tau(  70) = (   0.3874505   0.6929859   0.8835880  )
        71        O      tau(  71) = (   0.3702540   0.1589885   0.8858904  )
        72        O      tau(  72) = (   0.1184398   0.3458043   0.9237230  )
        73        O      tau(  73) = (   0.1451572   0.8725966   1.1786454  )
        74        O      tau(  74) = (   0.4048762   0.7120670   0.6216369  )
        75        O      tau(  75) = (   0.3523506   0.1775664   0.6234620  )
        76        O      tau(  76) = (   0.1017610   0.3285569   1.1855448  )
        77        O      tau(  77) = (   0.0975396   0.5724373   1.0556799  )
        78        O      tau(  78) = (   0.3483552   1.0190030   0.7469198  )
        79        O      tau(  79) = (   0.3784305   0.4100203   1.0507804  )
        80        O      tau(  80) = (   0.1268237   0.0943029   0.7591620  )
        81        O      tau(  81) = (   0.1212267   0.6299255   0.7561772  )
        82        O      tau(  82) = (   0.4053315   0.4684472   0.7499499  )
        83        O      tau(  83) = (   0.1536621   0.0322003   1.0572263  )
        84        O      tau(  84) = (   0.3732349   0.9506802   1.0455518  )
        85        P      tau(  85) = (   0.7119823   0.9571059   1.0571887  )
        86        P      tau(  86) = (   0.9615208   0.6238477   0.7461808  )
        87        P      tau(  87) = (   0.7927710   0.0845145   0.7491041  )
        88        P      tau(  88) = (   0.5426404   0.4144760   1.0609615  )
        89        O      tau(  89) = (   0.6326879   0.8866267   0.9212117  )
        90        O      tau(  90) = (   0.8842163   0.6958291   0.8824032  )
        91        O      tau(  91) = (   0.8716178   0.1552836   0.8852381  )
        92        O      tau(  92) = (   0.6212010   0.3433751   0.9249961  )
        93        O      tau(  93) = (   0.6507714   0.8687427   1.1830599  )
        94        O      tau(  94) = (   0.9014054   0.7139543   0.6209553  )
        95        O      tau(  95) = (   0.8548963   0.1722994   0.6234348  )
        96        O      tau(  96) = (   0.6044469   0.3253792   1.1859242  )
        97        O      tau(  97) = (   0.6024424   0.5698225   1.0577892  )
        98        O      tau(  98) = (   0.8498940   1.0129567   0.7474033  )
        99        O      tau(  99) = (   0.8798395   0.4080910   1.0504647  )
       100        O      tau( 100) = (   0.6286921   0.0909721   0.7596222  )
       101        O      tau( 101) = (   0.6294973   0.6302838   0.7571429  )
       102        O      tau( 102) = (   0.9024339   0.4685397   0.7495295  )
       103        O      tau( 103) = (   0.6547812   0.0286072   1.0595512  )
       104        O      tau( 104) = (   0.8760507   0.9507690   1.0463383  )
       105        Mn     tau( 105) = (   0.2350290   0.8103679   1.3650506  )
       106        Ni     tau( 106) = (   0.5049839   0.7430999   1.6752764  )
       107        Ni     tau( 107) = (   0.0085805   0.2677647   1.3705110  )
       108        Ni     tau( 108) = (   0.2524821   0.2108176   1.6762258  )
       109        Ni     tau( 109) = (   1.0031726   1.0464924   1.5386166  )
       110        Ni     tau( 110) = (   0.2502641   0.5060972   1.5295441  )
       111        Ni     tau( 111) = (   0.7425850   0.8051724   1.3682278  )
       112        Ni     tau( 112) = (   1.0032085   0.7480271   1.6782163  )
       113        Ni     tau( 113) = (   0.5109976   0.2668978   1.3695351  )
       114        Ni     tau( 114) = (   0.7617415   0.2002392   1.7047113  )
       115        Ni     tau( 115) = (   0.5060216   1.0426794   1.5329327  )
       116        Ni     tau( 116) = (   0.7493328   0.5030112   1.5332002  )
       117        P      tau( 117) = (   0.2170385   0.9354274   1.6987551  )
       118        P      tau( 118) = (   0.4625170   0.6079979   1.3696033  )
       119        P      tau( 119) = (   0.2922201   0.0744200   1.3728508  )
       120        P      tau( 120) = (   0.0400598   0.4013821   1.6923063  )
       121        O      tau( 121) = (   0.1369468   0.8734395   1.5544031  )
       122        O      tau( 122) = (   0.3851774   0.6777302   1.5062583  )
       123        O      tau( 123) = (   0.3716472   0.1429275   1.5084559  )
       124        O      tau( 124) = (   0.1157488   0.3366312   1.5473574  )
       125        O      tau( 125) = (   0.1542130   0.8393226   1.8134166  )
       126        O      tau( 126) = (   0.4021706   0.6983945   1.2446547  )
       127        O      tau( 127) = (   0.3533289   0.1594101   1.2454731  )
       128        O      tau( 128) = (   0.1044058   0.3070241   1.8090384  )
       129        O      tau( 129) = (   0.0976985   0.5582927   1.6881977  )
       130        O      tau( 130) = (   0.3494544   0.9934681   1.3765809  )
       131        O      tau( 131) = (   0.3735391   0.3921348   1.6747224  )
       132        O      tau( 132) = (   0.1284883   0.0801717   1.3861992  )
       133        O      tau( 133) = (   0.1217502   0.6189932   1.3813335  )
       134        O      tau( 134) = (   0.4008873   0.4536035   1.3710220  )
       135        O      tau( 135) = (   0.1634732   0.0183502   1.6943209  )
       136        O      tau( 136) = (   0.3813891   0.9276213   1.6801305  )
       137        P      tau( 137) = (   0.7150844   0.9302027   1.6925865  )
       138        P      tau( 138) = (   0.9571586   0.6099361   1.3701799  )
       139        P      tau( 139) = (   0.7928795   0.0723778   1.3749960  )
       140        P      tau( 140) = (   0.5392015   0.3933707   1.6872906  )
       141        O      tau( 141) = (   0.6358909   0.8683612   1.5460897  )
       142        O      tau( 142) = (   0.8820169   0.6809509   1.5070208  )
       143        O      tau( 143) = (   0.8692965   0.1456252   1.5103227  )
       144        O      tau( 144) = (   0.6167143   0.3328777   1.5445489  )
       145        O      tau( 145) = (   0.6564412   0.8305094   1.8065650  )
       146        O      tau( 146) = (   0.8979416   0.6984778   1.2436101  )
       147        O      tau( 147) = (   0.8543451   0.1588252   1.2476080  )
       148        O      tau( 148) = (   0.5965398   0.2964012   1.8048314  )
       149        O      tau( 149) = (   0.5954090   0.5513693   1.6890606  )
       150        O      tau( 150) = (   0.8526781   0.9929277   1.3790312  )
       151        O      tau( 151) = (   0.8754039   0.3968396   1.6819451  )
       152        O      tau( 152) = (   0.6285753   0.0773142   1.3832806  )
       153        O      tau( 153) = (   0.6263328   0.6141238   1.3811389  )
       154        O      tau( 154) = (   0.9000707   0.4545516   1.3742938  )
       155        O      tau( 155) = (   0.6544929   0.0100088   1.6874901  )
       156        O      tau( 156) = (   0.8797765   0.9265630   1.6764488  )
       157        O      tau( 157) = (   0.8764291   0.1176518   1.8379936  )
       158        H      tau( 158) = (   0.9617023   0.1762767   1.8613912  )

     -------------------------------------------------
     Parameters for Dispersion (Grimme-D2) Correction:
     -------------------------------------------------
       atom      VdW radius       C_6     

        Ni         2.952        374.666
        Mn         2.952        374.666
        P          3.222        271.980
        O          2.536         24.284
        H          1.892          4.857

     number of k points=     1  Gaussian smearing, width (Ry)=  0.0100
                       cart. coord. in units 2pi/alat
        k(    1) = (   0.0000000   0.0000000   0.0000000), wk =   1.0000000

     Dense  grid:  1918138 G-vectors     FFT dimensions: ( 125, 135, 432)

     Smooth grid:   485265 G-vectors     FFT dimensions: (  80,  90, 288)

     Estimated max dynamical RAM per process >     320.12 MB

     Estimated total dynamical RAM >      20.01 GB
     Generating pointlists ...
     new r_m :   0.0801 (alat units)  1.4184 (a.u.) for type    1
     new r_m :   0.0869 (alat units)  1.5388 (a.u.) for type    2
     new r_m :   0.0650 (alat units)  1.1499 (a.u.) for type    3
     new r_m :   0.0438 (alat units)  0.7746 (a.u.) for type    4
     new r_m :   0.0438 (alat units)  0.7746 (a.u.) for type    5

     Initial potential from superposition of free atoms

     starting charge    1077.8900, renormalised to    1078.0000

     negative rho (up, down):  1.236E-03 4.528E-04
 
     Adding external electric field

     Computed dipole along edir(3) : 
        Dipole                1.6187 Ry au,          4.1144 Debye
        Dipole field          0.0010 Ry au, 
 
        Potential amp.       -0.1086 Ry
        Total length         54.2615 bohr
 
 
     Adding external electric field

     Computed dipole along edir(3) : 
        Dipole                1.6187 Ry au,          4.1144 Debye
        Dipole field          0.0010 Ry au, 
 
        Potential amp.       -0.1086 Ry
        Total length         54.2615 bohr
 
     Starting wfcs are  812 randomized atomic wfcs

     total cpu time spent up to now is       13.2 secs

     Self-consistent Calculation

     iteration #  1     ecut=    50.00 Ry     beta= 0.10
     Davidson diagonalization with overlap
     ethr =  1.00E-02,  avg # of iterations =  6.0

     negative rho (up, down):  3.647E-01 1.057E-05
 
     Adding external electric field

     Computed dipole along edir(3) : 
        Dipole               -2.7574 Ry au,         -7.0085 Debye
        Dipole field         -0.0017 Ry au, 
 
        Potential amp.        0.1851 Ry
        Total length         54.2615 bohr
 
 
     Adding external electric field

     Computed dipole along edir(3) : 
        Dipole               -2.7574 Ry au,         -7.0085 Debye
        Dipole field         -0.0017 Ry au, 
 
        Potential amp.        0.1851 Ry
        Total length         54.2615 bohr
 

     total cpu time spent up to now is       48.3 secs

     total energy              =   -7183.11203702 Ry
     estimated scf accuracy    <     757.27203243 Ry

     total magnetization       =   216.00 Bohr mag/cell
     absolute magnetization    =   296.70 Bohr mag/cell

     iteration #  2     ecut=    50.00 Ry     beta= 0.10
     Davidson diagonalization with overlap
     ethr =  1.00E-02,  avg # of iterations =  2.0

     negative rho (up, down):  3.243E-01 1.307E-05
 
     Adding external electric field

     Computed dipole along edir(3) : 
        Dipole               -2.3220 Ry au,         -5.9019 Debye
        Dipole field         -0.0014 Ry au, 
 
        Potential amp.        0.1558 Ry
        Total length         54.2615 bohr
 
 
     Adding external electric field

     Computed dipole along edir(3) : 
        Dipole               -2.3220 Ry au,         -5.9019 Debye
        Dipole field         -0.0014 Ry au, 
 
        Potential amp.        0.1558 Ry
        Total length         54.2615 bohr
 

     total cpu time spent up to now is       68.5 secs

     total energy              =   -7268.33463987 Ry
     estimated scf accuracy    <     121.39496214 Ry

     total magnetization       =   139.08 Bohr mag/cell
     absolute magnetization    =   193.57 Bohr mag/cell

     iteration #  3     ecut=    50.00 Ry     beta= 0.10
     Davidson diagonalization with overlap
     ethr =  1.00E-02,  avg # of iterations =  1.5

     negative rho (up, down):  2.698E-01 1.401E-05
 
     Adding external electric field

     Computed dipole along edir(3) : 
        Dipole               -1.8014 Ry au,         -4.5787 Debye
        Dipole field         -0.0011 Ry au, 
 
        Potential amp.        0.1209 Ry
        Total length         54.2615 bohr
 
 
     Adding external electric field

     Computed dipole along edir(3) : 
        Dipole               -1.8014 Ry au,         -4.5787 Debye
        Dipole field         -0.0011 Ry au, 
 
        Potential amp.        0.1209 Ry
        Total length         54.2615 bohr
 

     total cpu time spent up to now is       84.4 secs

     total energy              =   -7306.08736165 Ry
     estimated scf accuracy    <      94.93916199 Ry

     total magnetization       =   118.26 Bohr mag/cell
     absolute magnetization    =   172.98 Bohr mag/cell

     iteration #  4     ecut=    50.00 Ry     beta= 0.10
     Davidson diagonalization with overlap
     ethr =  8.81E-03,  avg # of iterations =  1.5

     negative rho (up, down):  2.038E-01 1.617E-06
 
     Adding external electric field

     Computed dipole along edir(3) : 
        Dipole               -1.8473 Ry au,         -4.6953 Debye
        Dipole field         -0.0011 Ry au, 
 
        Potential amp.        0.1240 Ry
        Total length         54.2615 bohr
 
 
     Adding external electric field

     Computed dipole along edir(3) : 
        Dipole               -1.8473 Ry au,         -4.6953 Debye
        Dipole field         -0.0011 Ry au, 
 
        Potential amp.        0.1240 Ry
        Total length         54.2615 bohr
 

     total cpu time spent up to now is       99.6 secs

     total energy              =   -7335.06419185 Ry
     estimated scf accuracy    <      73.64346565 Ry

     total magnetization       =    97.79 Bohr mag/cell
     absolute magnetization    =   155.96 Bohr mag/cell

     iteration #  5     ecut=    50.00 Ry     beta= 0.10
     Davidson diagonalization with overlap
     ethr =  6.83E-03,  avg # of iterations =  1.0

     negative rho (up, down):  1.178E-03 3.357E-07
 
     Adding external electric field

     Computed dipole along edir(3) : 
        Dipole               -1.1583 Ry au,         -2.9442 Debye
        Dipole field         -0.0007 Ry au, 
 
        Potential amp.        0.0777 Ry
        Total length         54.2615 bohr
 
 
     Adding external electric field

     Computed dipole along edir(3) : 
        Dipole               -1.1583 Ry au,         -2.9442 Debye
        Dipole field         -0.0007 Ry au, 
 
        Potential amp.        0.0777 Ry
        Total length         54.2615 bohr
 

     total cpu time spent up to now is      114.6 secs

     total energy              =   -7390.81214238 Ry
     estimated scf accuracy    <      55.81516515 Ry

     total magnetization       =    88.00 Bohr mag/cell
     absolute magnetization    =   141.85 Bohr mag/cell

     iteration #  6     ecut=    50.00 Ry     beta= 0.10
     Davidson diagonalization with overlap
     ethr =  5.18E-03,  avg # of iterations =  1.5

     negative rho (up, down):  6.849E-06 2.157E-05
 
     Adding external electric field

     Computed dipole along edir(3) : 
        Dipole               -0.9177 Ry au,         -2.3326 Debye
        Dipole field         -0.0006 Ry au, 
 
        Potential amp.        0.0616 Ry
        Total length         54.2615 bohr
 
 
     Adding external electric field

     Computed dipole along edir(3) : 
        Dipole               -0.9177 Ry au,         -2.3326 Debye
        Dipole field         -0.0006 Ry au, 
 
        Potential amp.        0.0616 Ry
        Total length         54.2615 bohr
 

     total cpu time spent up to now is      130.4 secs

     total energy              =   -7396.36878551 Ry
     estimated scf accuracy    <       9.03190772 Ry

     total magnetization       =    76.38 Bohr mag/cell
     absolute magnetization    =   105.10 Bohr mag/cell

     iteration #  7     ecut=    50.00 Ry     beta= 0.10
     Davidson diagonalization with overlap
     ethr =  8.38E-04,  avg # of iterations =  5.0

     negative rho (up, down):  6.913E-06 1.853E-05
 
     Adding external electric field

     Computed dipole along edir(3) : 
        Dipole               -0.9137 Ry au,         -2.3225 Debye
        Dipole field         -0.0006 Ry au, 
 
        Potential amp.        0.0613 Ry
        Total length         54.2615 bohr
 
 
     Adding external electric field

     Computed dipole along edir(3) : 
        Dipole               -0.9137 Ry au,         -2.3225 Debye
        Dipole field         -0.0006 Ry au, 
 
        Potential amp.        0.0613 Ry
        Total length         54.2615 bohr
 

     total cpu time spent up to now is      154.2 secs

     total energy              =   -7397.50819856 Ry
     estimated scf accuracy    <       8.91304249 Ry

     total magnetization       =    72.01 Bohr mag/cell
     absolute magnetization    =    89.76 Bohr mag/cell

     iteration #  8     ecut=    50.00 Ry     beta= 0.10
     Davidson diagonalization with overlap
     ethr =  8.27E-04,  avg # of iterations =  1.0

     negative rho (up, down):  3.143E-05 1.356E-04
 
     Adding external electric field

     Computed dipole along edir(3) : 
        Dipole               -0.9653 Ry au,         -2.4534 Debye
        Dipole field         -0.0006 Ry au, 
 
        Potential amp.        0.0648 Ry
        Total length         54.2615 bohr
 
 
     Adding external electric field

     Computed dipole along edir(3) : 
        Dipole               -0.9653 Ry au,         -2.4534 Debye
        Dipole field         -0.0006 Ry au, 
 
        Potential amp.        0.0648 Ry
        Total length         54.2615 bohr
 

     total cpu time spent up to now is      168.0 secs

     total energy              =   -7397.18137098 Ry
     estimated scf accuracy    <       9.31577664 Ry

     total magnetization       =    72.00 Bohr mag/cell
     absolute magnetization    =    89.37 Bohr mag/cell

     iteration #  9     ecut=    50.00 Ry     beta= 0.10
     Davidson diagonalization with overlap
     ethr =  8.27E-04,  avg # of iterations =  1.5

     negative rho (up, down):  2.592E-05 8.419E-05
 
     Adding external electric field

     Computed dipole along edir(3) : 
        Dipole               -1.0295 Ry au,         -2.6166 Debye
        Dipole field         -0.0006 Ry au, 
 
        Potential amp.        0.0691 Ry
        Total length         54.2615 bohr
 
 
     Adding external electric field

     Computed dipole along edir(3) : 
        Dipole               -1.0295 Ry au,         -2.6166 Debye
        Dipole field         -0.0006 Ry au, 
 
        Potential amp.        0.0691 Ry
        Total length         54.2615 bohr
 

     total cpu time spent up to now is      183.3 secs

     total energy              =   -7397.56183249 Ry
     estimated scf accuracy    <       1.83131149 Ry

     total magnetization       =    79.93 Bohr mag/cell
     absolute magnetization    =    93.05 Bohr mag/cell

     iteration # 10     ecut=    50.00 Ry     beta= 0.10
     Davidson diagonalization with overlap
     ethr =  1.70E-04,  avg # of iterations = 12.0

     negative rho (up, down):  1.982E-05 6.163E-05
 
     Adding external electric field

     Computed dipole along edir(3) : 
        Dipole               -1.0546 Ry au,         -2.6805 Debye
        Dipole field         -0.0007 Ry au, 
 
        Potential amp.        0.0708 Ry
        Total length         54.2615 bohr
 
 
     Adding external electric field

     Computed dipole along edir(3) : 
        Dipole               -1.0546 Ry au,         -2.6805 Debye
        Dipole field         -0.0007 Ry au, 
 
        Potential amp.        0.0708 Ry
        Total length         54.2615 bohr
 

     total cpu time spent up to now is      214.1 secs

     total energy              =   -7397.69540519 Ry
     estimated scf accuracy    <       1.05999027 Ry

     total magnetization       =    80.63 Bohr mag/cell
     absolute magnetization    =    92.22 Bohr mag/cell

     iteration # 11     ecut=    50.00 Ry     beta= 0.10
     Davidson diagonalization with overlap
     ethr =  9.83E-05,  avg # of iterations =  2.0

     negative rho (up, down):  6.613E-06 1.770E-05
 
     Adding external electric field

     Computed dipole along edir(3) : 
        Dipole               -1.0179 Ry au,         -2.5872 Debye
        Dipole field         -0.0006 Ry au, 
 
        Potential amp.        0.0683 Ry
        Total length         54.2615 bohr
 
 
     Adding external electric field

     Computed dipole along edir(3) : 
        Dipole               -1.0179 Ry au,         -2.5872 Debye
        Dipole field         -0.0006 Ry au, 
 
        Potential amp.        0.0683 Ry
        Total length         54.2615 bohr
 

     total cpu time spent up to now is      230.8 secs

     total energy              =   -7397.90718578 Ry
     estimated scf accuracy    <       0.81792493 Ry

     total magnetization       =    81.16 Bohr mag/cell
     absolute magnetization    =    91.08 Bohr mag/cell

     iteration # 12     ecut=    50.00 Ry     beta= 0.10
     Davidson diagonalization with overlap
     ethr =  7.59E-05,  avg # of iterations = 10.0

     negative rho (up, down):  2.612E-06 6.187E-06
 
     Adding external electric field

     Computed dipole along edir(3) : 
        Dipole               -0.9872 Ry au,         -2.5093 Debye
        Dipole field         -0.0006 Ry au, 
 
        Potential amp.        0.0663 Ry
        Total length         54.2615 bohr
 
 
     Adding external electric field

     Computed dipole along edir(3) : 
        Dipole               -0.9872 Ry au,         -2.5093 Debye
        Dipole field         -0.0006 Ry au, 
 
        Potential amp.        0.0663 Ry
        Total length         54.2615 bohr
 

     total cpu time spent up to now is      257.3 secs

     total energy              =   -7398.00835300 Ry
     estimated scf accuracy    <       0.64446104 Ry

     total magnetization       =    81.24 Bohr mag/cell
     absolute magnetization    =    87.22 Bohr mag/cell

     iteration # 13     ecut=    50.00 Ry     beta= 0.10
     Davidson diagonalization with overlap
     ethr =  5.98E-05,  avg # of iterations =  2.0

     negative rho (up, down):  6.157E-07 1.415E-06
 
     Adding external electric field

     Computed dipole along edir(3) : 
        Dipole               -0.9471 Ry au,         -2.4073 Debye
        Dipole field         -0.0006 Ry au, 
 
        Potential amp.        0.0636 Ry
        Total length         54.2615 bohr
 
 
     Adding external electric field

     Computed dipole along edir(3) : 
        Dipole               -0.9471 Ry au,         -2.4073 Debye
        Dipole field         -0.0006 Ry au, 
 
        Potential amp.        0.0636 Ry
        Total length         54.2615 bohr
 

     total cpu time spent up to now is      274.0 secs

     total energy              =   -7398.01243469 Ry
     estimated scf accuracy    <       0.53617874 Ry

     total magnetization       =    81.05 Bohr mag/cell
     absolute magnetization    =    85.00 Bohr mag/cell

     iteration # 14     ecut=    50.00 Ry     beta= 0.10
     Davidson diagonalization with overlap
     ethr =  4.97E-05,  avg # of iterations =  1.5

     negative rho (up, down):  4.013E-07 2.084E-06
 
     Adding external electric field

     Computed dipole along edir(3) : 
        Dipole               -0.9040 Ry au,         -2.2979 Debye
        Dipole field         -0.0006 Ry au, 
 
        Potential amp.        0.0607 Ry
        Total length         54.2615 bohr
 
 
     Adding external electric field

     Computed dipole along edir(3) : 
        Dipole               -0.9040 Ry au,         -2.2979 Debye
        Dipole field         -0.0006 Ry au, 
 
        Potential amp.        0.0607 Ry
        Total length         54.2615 bohr
 

     total cpu time spent up to now is      290.1 secs

     total energy              =   -7398.03080810 Ry
     estimated scf accuracy    <       0.18759807 Ry

     total magnetization       =    80.88 Bohr mag/cell
     absolute magnetization    =    84.02 Bohr mag/cell

     iteration # 15     ecut=    50.00 Ry     beta= 0.10
     Davidson diagonalization with overlap
     ethr =  1.74E-05,  avg # of iterations = 12.0

     negative rho (up, down):  4.422E-07 1.427E-06
 
     Adding external electric field

     Computed dipole along edir(3) : 
        Dipole               -0.8845 Ry au,         -2.2482 Debye
        Dipole field         -0.0005 Ry au, 
 
        Potential amp.        0.0594 Ry
        Total length         54.2615 bohr
 
 
     Adding external electric field

     Computed dipole along edir(3) : 
        Dipole               -0.8845 Ry au,         -2.2482 Debye
        Dipole field         -0.0005 Ry au, 
 
        Potential amp.        0.0594 Ry
        Total length         54.2615 bohr
 

     total cpu time spent up to now is      321.8 secs

     total energy              =   -7398.03768079 Ry
     estimated scf accuracy    <       0.08162974 Ry

     total magnetization       =    80.32 Bohr mag/cell
     absolute magnetization    =    82.55 Bohr mag/cell

     iteration # 16     ecut=    50.00 Ry     beta= 0.10
     Davidson diagonalization with overlap
     ethr =  7.57E-06,  avg # of iterations =  2.0

     negative rho (up, down):  1.514E-05 1.141E-05
 
     Adding external electric field

     Computed dipole along edir(3) : 
        Dipole               -0.8085 Ry au,         -2.0550 Debye
        Dipole field         -0.0005 Ry au, 
 
        Potential amp.        0.0543 Ry
        Total length         54.2615 bohr
 
 
     Adding external electric field

     Computed dipole along edir(3) : 
        Dipole               -0.8085 Ry au,         -2.0550 Debye
        Dipole field         -0.0005 Ry au, 
 
        Potential amp.        0.0543 Ry
        Total length         54.2615 bohr
 

     total cpu time spent up to now is      338.4 secs

     total energy              =   -7398.03597609 Ry
     estimated scf accuracy    <       0.11091564 Ry

     total magnetization       =    80.90 Bohr mag/cell
     absolute magnetization    =    83.00 Bohr mag/cell

     iteration # 17     ecut=    50.00 Ry     beta= 0.10
     Davidson diagonalization with overlap
     ethr =  7.57E-06,  avg # of iterations =  2.0

     negative rho (up, down):  1.737E-05 8.861E-06
 
     Adding external electric field

     Computed dipole along edir(3) : 
        Dipole               -0.8075 Ry au,         -2.0524 Debye
        Dipole field         -0.0005 Ry au, 
 
        Potential amp.        0.0542 Ry
        Total length         54.2615 bohr
 
 
     Adding external electric field

     Computed dipole along edir(3) : 
        Dipole               -0.8075 Ry au,         -2.0524 Debye
        Dipole field         -0.0005 Ry au, 
 
        Potential amp.        0.0542 Ry
        Total length         54.2615 bohr
 

     total cpu time spent up to now is      355.0 secs

     total energy              =   -7398.04062421 Ry
     estimated scf accuracy    <       0.08764859 Ry

     total magnetization       =    80.51 Bohr mag/cell
     absolute magnetization    =    82.12 Bohr mag/cell

     iteration # 18     ecut=    50.00 Ry     beta= 0.10
     Davidson diagonalization with overlap
     ethr =  7.57E-06,  avg # of iterations =  1.5

     negative rho (up, down):  1.831E-05 1.448E-05
 
     Adding external electric field

     Computed dipole along edir(3) : 
        Dipole               -0.7897 Ry au,         -2.0072 Debye
        Dipole field         -0.0005 Ry au, 
 
        Potential amp.        0.0530 Ry
        Total length         54.2615 bohr
 
 
     Adding external electric field

     Computed dipole along edir(3) : 
        Dipole               -0.7897 Ry au,         -2.0072 Debye
        Dipole field         -0.0005 Ry au, 
 
        Potential amp.        0.0530 Ry
        Total length         54.2615 bohr
 

     total cpu time spent up to now is      370.3 secs

     total energy              =   -7398.04044112 Ry
     estimated scf accuracy    <       0.11545555 Ry

     total magnetization       =    80.62 Bohr mag/cell
     absolute magnetization    =    82.18 Bohr mag/cell

     iteration # 19     ecut=    50.00 Ry     beta= 0.10
     Davidson diagonalization with overlap
     ethr =  7.57E-06,  avg # of iterations =  1.5

     negative rho (up, down):  7.018E-05 9.435E-05
 
     Adding external electric field

     Computed dipole along edir(3) : 
        Dipole               -0.7163 Ry au,         -1.8206 Debye
        Dipole field         -0.0004 Ry au, 
 
        Potential amp.        0.0481 Ry
        Total length         54.2615 bohr
 
 
     Adding external electric field

     Computed dipole along edir(3) : 
        Dipole               -0.7163 Ry au,         -1.8206 Debye
        Dipole field         -0.0004 Ry au, 
 
        Potential amp.        0.0481 Ry
        Total length         54.2615 bohr
 

     total cpu time spent up to now is      385.9 secs

     total energy              =   -7398.03827759 Ry
     estimated scf accuracy    <       0.07687592 Ry

     total magnetization       =    80.59 Bohr mag/cell
     absolute magnetization    =    82.10 Bohr mag/cell

     iteration # 20     ecut=    50.00 Ry     beta= 0.10
     Davidson diagonalization with overlap
     ethr =  7.13E-06,  avg # of iterations =  1.5

     negative rho (up, down):  7.871E-05 1.013E-04
 
     Adding external electric field

     Computed dipole along edir(3) : 
        Dipole               -0.7136 Ry au,         -1.8139 Debye
        Dipole field         -0.0004 Ry au, 
 
        Potential amp.        0.0479 Ry
        Total length         54.2615 bohr
 
 
     Adding external electric field

     Computed dipole along edir(3) : 
        Dipole               -0.7136 Ry au,         -1.8139 Debye
        Dipole field         -0.0004 Ry au, 
 
        Potential amp.        0.0479 Ry
        Total length         54.2615 bohr
 

     total cpu time spent up to now is      401.2 secs

     total energy              =   -7398.03933810 Ry
     estimated scf accuracy    <       0.03718729 Ry

     total magnetization       =    80.26 Bohr mag/cell
     absolute magnetization    =    81.69 Bohr mag/cell

     iteration # 21     ecut=    50.00 Ry     beta= 0.10
     Davidson diagonalization with overlap
     ethr =  3.45E-06,  avg # of iterations =  1.5

     negative rho (up, down):  1.257E-04 1.897E-04
 
     Adding external electric field

     Computed dipole along edir(3) : 
        Dipole               -0.7035 Ry au,         -1.7881 Debye
        Dipole field         -0.0004 Ry au, 
 
        Potential amp.        0.0472 Ry
        Total length         54.2615 bohr
 
 
     Adding external electric field

     Computed dipole along edir(3) : 
        Dipole               -0.7035 Ry au,         -1.7881 Debye
        Dipole field         -0.0004 Ry au, 
 
        Potential amp.        0.0472 Ry
        Total length         54.2615 bohr
 

     total cpu time spent up to now is      416.8 secs

     total energy              =   -7398.03835428 Ry
     estimated scf accuracy    <       0.03584755 Ry

     total magnetization       =    80.24 Bohr mag/cell
     absolute magnetization    =    81.66 Bohr mag/cell

     iteration # 22     ecut=    50.00 Ry     beta= 0.10
     Davidson diagonalization with overlap
     c_bands:  2 eigenvalues not converged
     ethr =  3.33E-06,  avg # of iterations = 11.0

     negative rho (up, down):  1.526E-04 1.832E-04
 
     Adding external electric field

     Computed dipole along edir(3) : 
        Dipole               -0.6936 Ry au,         -1.7630 Debye
        Dipole field         -0.0004 Ry au, 
 
        Potential amp.        0.0466 Ry
        Total length         54.2615 bohr
 
 
     Adding external electric field

     Computed dipole along edir(3) : 
        Dipole               -0.6936 Ry au,         -1.7630 Debye
        Dipole field         -0.0004 Ry au, 
 
        Potential amp.        0.0466 Ry
        Total length         54.2615 bohr
 

     total cpu time spent up to now is      438.5 secs

     total energy              =   -7398.03956207 Ry
     estimated scf accuracy    <       0.03425617 Ry

     total magnetization       =    80.11 Bohr mag/cell
     absolute magnetization    =    81.46 Bohr mag/cell

     iteration # 23     ecut=    50.00 Ry     beta= 0.10
     Davidson diagonalization with overlap
     ethr =  3.18E-06,  avg # of iterations = 20.5

     negative rho (up, down):  9.895E-05 1.254E-04
 
     Adding external electric field

     Computed dipole along edir(3) : 
        Dipole               -0.7348 Ry au,         -1.8676 Debye
        Dipole field         -0.0005 Ry au, 
 
        Potential amp.        0.0493 Ry
        Total length         54.2615 bohr
 
 
     Adding external electric field

     Computed dipole along edir(3) : 
        Dipole               -0.7348 Ry au,         -1.8676 Debye
        Dipole field         -0.0005 Ry au, 
 
        Potential amp.        0.0493 Ry
        Total length         54.2615 bohr
 

     total cpu time spent up to now is      472.1 secs

     total energy              =   -7398.04017195 Ry
     estimated scf accuracy    <       0.04091750 Ry

     total magnetization       =    80.09 Bohr mag/cell
     absolute magnetization    =    81.51 Bohr mag/cell

     iteration # 24     ecut=    50.00 Ry     beta= 0.10
     Davidson diagonalization with overlap
     ethr =  3.18E-06,  avg # of iterations =  2.0

     negative rho (up, down):  1.163E-04 1.394E-04
 
     Adding external electric field

     Computed dipole along edir(3) : 
        Dipole               -0.7421 Ry au,         -1.8863 Debye
        Dipole field         -0.0005 Ry au, 
 
        Potential amp.        0.0498 Ry
        Total length         54.2615 bohr
 
 
     Adding external electric field

     Computed dipole along edir(3) : 
        Dipole               -0.7421 Ry au,         -1.8863 Debye
        Dipole field         -0.0005 Ry au, 
 
        Potential amp.        0.0498 Ry
        Total length         54.2615 bohr
 

     total cpu time spent up to now is      488.3 secs

     total energy              =   -7398.04062792 Ry
     estimated scf accuracy    <       0.03985221 Ry

     total magnetization       =    80.13 Bohr mag/cell
     absolute magnetization    =    81.63 Bohr mag/cell

     iteration # 25     ecut=    50.00 Ry     beta= 0.10
     Davidson diagonalization with overlap
     ethr =  3.18E-06,  avg # of iterations =  1.0

     negative rho (up, down):  5.246E-05 7.980E-05
 
     Adding external electric field

     Computed dipole along edir(3) : 
        Dipole               -0.7326 Ry au,         -1.8622 Debye
        Dipole field         -0.0005 Ry au, 
 
        Potential amp.        0.0492 Ry
        Total length         54.2615 bohr
 
 
     Adding external electric field

     Computed dipole along edir(3) : 
        Dipole               -0.7326 Ry au,         -1.8622 Debye
        Dipole field         -0.0005 Ry au, 
 
        Potential amp.        0.0492 Ry
        Total length         54.2615 bohr
 

     total cpu time spent up to now is      502.7 secs

     total energy              =   -7398.03958886 Ry
     estimated scf accuracy    <       0.05753278 Ry

     total magnetization       =    80.05 Bohr mag/cell
     absolute magnetization    =    81.56 Bohr mag/cell

     iteration # 26     ecut=    50.00 Ry     beta= 0.10
     Davidson diagonalization with overlap
     ethr =  3.18E-06,  avg # of iterations =  1.5

     negative rho (up, down):  1.222E-04 1.020E-04
 
     Adding external electric field

     Computed dipole along edir(3) : 
        Dipole               -0.6848 Ry au,         -1.7405 Debye
        Dipole field         -0.0004 Ry au, 
 
        Potential amp.        0.0460 Ry
        Total length         54.2615 bohr
 
 
     Adding external electric field

     Computed dipole along edir(3) : 
        Dipole               -0.6848 Ry au,         -1.7405 Debye
        Dipole field         -0.0004 Ry au, 
 
        Potential amp.        0.0460 Ry
        Total length         54.2615 bohr
 

     total cpu time spent up to now is      518.4 secs

     total energy              =   -7398.03844075 Ry
     estimated scf accuracy    <       0.02697048 Ry

     total magnetization       =    80.28 Bohr mag/cell
     absolute magnetization    =    81.87 Bohr mag/cell

     iteration # 27     ecut=    50.00 Ry     beta= 0.10
     Davidson diagonalization with overlap
     ethr =  2.50E-06,  avg # of iterations =  2.0

     negative rho (up, down):  2.766E-04 1.902E-04
 
     Adding external electric field

     Computed dipole along edir(3) : 
        Dipole               -0.6421 Ry au,         -1.6320 Debye
        Dipole field         -0.0004 Ry au, 
 
        Potential amp.        0.0431 Ry
        Total length         54.2615 bohr
 
 
     Adding external electric field

     Computed dipole along edir(3) : 
        Dipole               -0.6421 Ry au,         -1.6320 Debye
        Dipole field         -0.0004 Ry au, 
 
        Potential amp.        0.0431 Ry
        Total length         54.2615 bohr
 

     total cpu time spent up to now is      535.0 secs

     total energy              =   -7398.03758034 Ry
     estimated scf accuracy    <       0.02244541 Ry

     total magnetization       =    80.36 Bohr mag/cell
     absolute magnetization    =    81.81 Bohr mag/cell

     iteration # 28     ecut=    50.00 Ry     beta= 0.10
     Davidson diagonalization with overlap
     ethr =  2.08E-06,  avg # of iterations =  2.0

     negative rho (up, down):  4.303E-04 3.333E-04
 
     Adding external electric field

     Computed dipole along edir(3) : 
        Dipole               -0.6219 Ry au,         -1.5806 Debye
        Dipole field         -0.0004 Ry au, 
 
        Potential amp.        0.0417 Ry
        Total length         54.2615 bohr
 
 
     Adding external electric field

     Computed dipole along edir(3) : 
        Dipole               -0.6219 Ry au,         -1.5806 Debye
        Dipole field         -0.0004 Ry au, 
 
        Potential amp.        0.0417 Ry
        Total length         54.2615 bohr
 

     total cpu time spent up to now is      551.6 secs

     total energy              =   -7398.03763652 Ry
     estimated scf accuracy    <       0.02537007 Ry

     total magnetization       =    80.52 Bohr mag/cell
     absolute magnetization    =    81.95 Bohr mag/cell

     iteration # 29     ecut=    50.00 Ry     beta= 0.10
     Davidson diagonalization with overlap
     ethr =  2.08E-06,  avg # of iterations =  2.0

     negative rho (up, down):  1.584E-03 1.546E-03
 
     Adding external electric field

     Computed dipole along edir(3) : 
        Dipole               -0.5567 Ry au,         -1.4151 Debye
        Dipole field         -0.0003 Ry au, 
 
        Potential amp.        0.0374 Ry
        Total length         54.2615 bohr
 
 
     Adding external electric field

     Computed dipole along edir(3) : 
        Dipole               -0.5567 Ry au,         -1.4151 Debye
        Dipole field         -0.0003 Ry au, 
 
        Potential amp.        0.0374 Ry
        Total length         54.2615 bohr
 

     total cpu time spent up to now is      568.2 secs

     total energy              =   -7398.03696209 Ry
     estimated scf accuracy    <       0.02464730 Ry

     total magnetization       =    80.50 Bohr mag/cell
     absolute magnetization    =    82.02 Bohr mag/cell

     iteration # 30     ecut=    50.00 Ry     beta= 0.10
     Davidson diagonalization with overlap
     ethr =  2.08E-06,  avg # of iterations = 13.5

     negative rho (up, down):  1.782E-03 1.980E-03
 
     Adding external electric field

     Computed dipole along edir(3) : 
        Dipole               -0.5353 Ry au,         -1.3606 Debye
        Dipole field         -0.0003 Ry au, 
 
        Potential amp.        0.0359 Ry
        Total length         54.2615 bohr
 
 
     Adding external electric field

     Computed dipole along edir(3) : 
        Dipole               -0.5353 Ry au,         -1.3606 Debye
        Dipole field         -0.0003 Ry au, 
 
        Potential amp.        0.0359 Ry
        Total length         54.2615 bohr
 

     total cpu time spent up to now is      593.0 secs

     total energy              =   -7398.03647951 Ry
     estimated scf accuracy    <       0.01212983 Ry

     total magnetization       =    80.39 Bohr mag/cell
     absolute magnetization    =    81.96 Bohr mag/cell

     iteration # 31     ecut=    50.00 Ry     beta= 0.10
     Davidson diagonalization with overlap
     ethr =  1.13E-06,  avg # of iterations =  2.0

     negative rho (up, down):  1.338E-03 1.481E-03
 
     Adding external electric field

     Computed dipole along edir(3) : 
        Dipole               -0.5371 Ry au,         -1.3652 Debye
        Dipole field         -0.0003 Ry au, 
 
        Potential amp.        0.0360 Ry
        Total length         54.2615 bohr
 
 
     Adding external electric field

     Computed dipole along edir(3) : 
        Dipole               -0.5371 Ry au,         -1.3652 Debye
        Dipole field         -0.0003 Ry au, 
 
        Potential amp.        0.0360 Ry
        Total length         54.2615 bohr
 

     total cpu time spent up to now is      609.5 secs

     total energy              =   -7398.03651022 Ry
     estimated scf accuracy    <       0.01137629 Ry

     total magnetization       =    80.43 Bohr mag/cell
     absolute magnetization    =    82.00 Bohr mag/cell

     iteration # 32     ecut=    50.00 Ry     beta= 0.10
     Davidson diagonalization with overlap
     ethr =  1.06E-06,  avg # of iterations =  1.5

     negative rho (up, down):  3.067E-03 2.888E-03
 
     Adding external electric field

     Computed dipole along edir(3) : 
        Dipole               -0.4455 Ry au,         -1.1322 Debye
        Dipole field         -0.0003 Ry au, 
 
        Potential amp.        0.0299 Ry
        Total length         54.2615 bohr
 
 
     Adding external electric field

     Computed dipole along edir(3) : 
        Dipole               -0.4455 Ry au,         -1.1322 Debye
        Dipole field         -0.0003 Ry au, 
 
        Potential amp.        0.0299 Ry
        Total length         54.2615 bohr
 

     total cpu time spent up to now is      624.9 secs

     total energy              =   -7398.03618511 Ry
     estimated scf accuracy    <       0.01197959 Ry

     total magnetization       =    80.45 Bohr mag/cell
     absolute magnetization    =    82.00 Bohr mag/cell

     iteration # 33     ecut=    50.00 Ry     beta= 0.10
     Davidson diagonalization with overlap
     c_bands:  3 eigenvalues not converged
     ethr =  1.06E-06,  avg # of iterations = 22.0

     negative rho (up, down):  2.845E-03 2.710E-03
 
     Adding external electric field

     Computed dipole along edir(3) : 
        Dipole               -0.4510 Ry au,         -1.1464 Debye
        Dipole field         -0.0003 Ry au, 
 
        Potential amp.        0.0303 Ry
        Total length         54.2615 bohr
 
 
     Adding external electric field

     Computed dipole along edir(3) : 
        Dipole               -0.4510 Ry au,         -1.1464 Debye
        Dipole field         -0.0003 Ry au, 
 
        Potential amp.        0.0303 Ry
        Total length         54.2615 bohr
 

     total cpu time spent up to now is      659.4 secs

     total energy              =   -7398.03635248 Ry
     estimated scf accuracy    <       0.01085939 Ry

     total magnetization       =    80.50 Bohr mag/cell
     absolute magnetization    =    81.99 Bohr mag/cell

     iteration # 34     ecut=    50.00 Ry     beta= 0.10
     Davidson diagonalization with overlap
     ethr =  1.01E-06,  avg # of iterations =  1.5

     negative rho (up, down):  2.941E-03 2.768E-03
 
     Adding external electric field

     Computed dipole along edir(3) : 
        Dipole               -0.4464 Ry au,         -1.1347 Debye
        Dipole field         -0.0003 Ry au, 
 
        Potential amp.        0.0300 Ry
        Total length         54.2615 bohr
 
 
     Adding external electric field

     Computed dipole along edir(3) : 
        Dipole               -0.4464 Ry au,         -1.1347 Debye
        Dipole field         -0.0003 Ry au, 
 
        Potential amp.        0.0300 Ry
        Total length         54.2615 bohr
 

     total cpu time spent up to now is      674.7 secs

     total energy              =   -7398.03637168 Ry
     estimated scf accuracy    <       0.01097522 Ry

     total magnetization       =    80.49 Bohr mag/cell
     absolute magnetization    =    81.97 Bohr mag/cell

     iteration # 35     ecut=    50.00 Ry     beta= 0.10
     Davidson diagonalization with overlap
     ethr =  1.01E-06,  avg # of iterations =  2.0

     negative rho (up, down):  3.152E-03 2.955E-03
 
     Adding external electric field

     Computed dipole along edir(3) : 
        Dipole               -0.4395 Ry au,         -1.1170 Debye
        Dipole field         -0.0003 Ry au, 
 
        Potential amp.        0.0295 Ry
        Total length         54.2615 bohr
 
 
     Adding external electric field

     Computed dipole along edir(3) : 
        Dipole               -0.4395 Ry au,         -1.1170 Debye
        Dipole field         -0.0003 Ry au, 
 
        Potential amp.        0.0295 Ry
        Total length         54.2615 bohr
 

     total cpu time spent up to now is      691.7 secs

     total energy              =   -7398.03628263 Ry
     estimated scf accuracy    <       0.01020312 Ry

     total magnetization       =    80.48 Bohr mag/cell
     absolute magnetization    =    81.96 Bohr mag/cell

     iteration # 36     ecut=    50.00 Ry     beta= 0.10
     Davidson diagonalization with overlap
     ethr =  9.46E-07,  avg # of iterations =  2.0

     negative rho (up, down):  2.475E-03 2.332E-03
 
     Adding external electric field

     Computed dipole along edir(3) : 
        Dipole               -0.4444 Ry au,         -1.1295 Debye
        Dipole field         -0.0003 Ry au, 
 
        Potential amp.        0.0298 Ry
        Total length         54.2615 bohr
 
 
     Adding external electric field

     Computed dipole along edir(3) : 
        Dipole               -0.4444 Ry au,         -1.1295 Debye
        Dipole field         -0.0003 Ry au, 
 
        Potential amp.        0.0298 Ry
        Total length         54.2615 bohr
 

     total cpu time spent up to now is      708.4 secs

     total energy              =   -7398.03626624 Ry
     estimated scf accuracy    <       0.00921452 Ry

     total magnetization       =    80.48 Bohr mag/cell
     absolute magnetization    =    81.95 Bohr mag/cell

     iteration # 37     ecut=    50.00 Ry     beta= 0.10
     Davidson diagonalization with overlap
     ethr =  8.55E-07,  avg # of iterations =  1.5

     negative rho (up, down):  3.102E-03 2.922E-03
 
     Adding external electric field

     Computed dipole along edir(3) : 
        Dipole               -0.4451 Ry au,         -1.1313 Debye
        Dipole field         -0.0003 Ry au, 
 
        Potential amp.        0.0299 Ry
        Total length         54.2615 bohr
 
 
     Adding external electric field

     Computed dipole along edir(3) : 
        Dipole               -0.4451 Ry au,         -1.1313 Debye
        Dipole field         -0.0003 Ry au, 
 
        Potential amp.        0.0299 Ry
        Total length         54.2615 bohr
 

     total cpu time spent up to now is      724.6 secs

     total energy              =   -7398.03628233 Ry
     estimated scf accuracy    <       0.00967328 Ry

     total magnetization       =    80.47 Bohr mag/cell
     absolute magnetization    =    81.95 Bohr mag/cell

     iteration # 38     ecut=    50.00 Ry     beta= 0.10
     Davidson diagonalization with overlap
     ethr =  8.55E-07,  avg # of iterations =  2.0

     negative rho (up, down):  1.820E-03 1.617E-03
 
     Adding external electric field

     Computed dipole along edir(3) : 
        Dipole               -0.4550 Ry au,         -1.1566 Debye
        Dipole field         -0.0003 Ry au, 
 
        Potential amp.        0.0305 Ry
        Total length         54.2615 bohr
 
 
     Adding external electric field

     Computed dipole along edir(3) : 
        Dipole               -0.4550 Ry au,         -1.1566 Debye
        Dipole field         -0.0003 Ry au, 
 
        Potential amp.        0.0305 Ry
        Total length         54.2615 bohr
 

     total cpu time spent up to now is      741.7 secs

     total energy              =   -7398.03614565 Ry
     estimated scf accuracy    <       0.00965614 Ry

     total magnetization       =    80.49 Bohr mag/cell
     absolute magnetization    =    81.95 Bohr mag/cell

     iteration # 39     ecut=    50.00 Ry     beta= 0.10
     Davidson diagonalization with overlap
     ethr =  8.55E-07,  avg # of iterations =  1.5

     negative rho (up, down):  1.888E-03 1.738E-03
 
     Adding external electric field

     Computed dipole along edir(3) : 
        Dipole               -0.4493 Ry au,         -1.1420 Debye
        Dipole field         -0.0003 Ry au, 
 
        Potential amp.        0.0302 Ry
        Total length         54.2615 bohr
 
 
     Adding external electric field

     Computed dipole along edir(3) : 
        Dipole               -0.4493 Ry au,         -1.1420 Debye
        Dipole field         -0.0003 Ry au, 
 
        Potential amp.        0.0302 Ry
        Total length         54.2615 bohr
 

     total cpu time spent up to now is      757.4 secs

     total energy              =   -7398.03611380 Ry
     estimated scf accuracy    <       0.01044892 Ry

     total magnetization       =    80.50 Bohr mag/cell
     absolute magnetization    =    81.94 Bohr mag/cell

     iteration # 40     ecut=    50.00 Ry     beta= 0.10
     Davidson diagonalization with overlap
     ethr =  8.55E-07,  avg # of iterations =  1.0

     negative rho (up, down):  1.596E-03 1.283E-03
 
     Adding external electric field

     Computed dipole along edir(3) : 
        Dipole               -0.4478 Ry au,         -1.1383 Debye
        Dipole field         -0.0003 Ry au, 
 
        Potential amp.        0.0301 Ry
        Total length         54.2615 bohr
 
 
     Adding external electric field

     Computed dipole along edir(3) : 
        Dipole               -0.4478 Ry au,         -1.1383 Debye
        Dipole field         -0.0003 Ry au, 
 
        Potential amp.        0.0301 Ry
        Total length         54.2615 bohr
 

     total cpu time spent up to now is      772.7 secs

     total energy              =   -7398.03604790 Ry
     estimated scf accuracy    <       0.01013269 Ry

     total magnetization       =    80.50 Bohr mag/cell
     absolute magnetization    =    81.93 Bohr mag/cell

     iteration # 41     ecut=    50.00 Ry     beta= 0.10
     Davidson diagonalization with overlap
     ethr =  8.55E-07,  avg # of iterations =  2.0

     negative rho (up, down):  3.133E-03 2.800E-03
 
     Adding external electric field

     Computed dipole along edir(3) : 
        Dipole               -0.4061 Ry au,         -1.0323 Debye
        Dipole field         -0.0003 Ry au, 
 
        Potential amp.        0.0273 Ry
        Total length         54.2615 bohr
 
 
     Adding external electric field

     Computed dipole along edir(3) : 
        Dipole               -0.4061 Ry au,         -1.0323 Debye
        Dipole field         -0.0003 Ry au, 
 
        Potential amp.        0.0273 Ry
        Total length         54.2615 bohr
 

     total cpu time spent up to now is      789.6 secs

     total energy              =   -7398.03578884 Ry
     estimated scf accuracy    <       0.01107151 Ry

     total magnetization       =    80.51 Bohr mag/cell
     absolute magnetization    =    81.93 Bohr mag/cell

     iteration # 42     ecut=    50.00 Ry     beta= 0.10
     Davidson diagonalization with overlap
     ethr =  8.55E-07,  avg # of iterations =  2.0

     negative rho (up, down):  1.619E-03 1.379E-03
 
     Adding external electric field

     Computed dipole along edir(3) : 
        Dipole               -0.4657 Ry au,         -1.1838 Debye
        Dipole field         -0.0003 Ry au, 
 
        Potential amp.        0.0313 Ry
        Total length         54.2615 bohr
 
 
     Adding external electric field

     Computed dipole along edir(3) : 
        Dipole               -0.4657 Ry au,         -1.1838 Debye
        Dipole field         -0.0003 Ry au, 
 
        Potential amp.        0.0313 Ry
        Total length         54.2615 bohr
 

     total cpu time spent up to now is      806.6 secs

     total energy              =   -7398.03612448 Ry
     estimated scf accuracy    <       0.01054425 Ry

     total magnetization       =    80.51 Bohr mag/cell
     absolute magnetization    =    81.90 Bohr mag/cell

     iteration # 43     ecut=    50.00 Ry     beta= 0.10
     Davidson diagonalization with overlap
     ethr =  8.55E-07,  avg # of iterations =  2.0

     negative rho (up, down):  1.882E-03 1.687E-03
 
     Adding external electric field

     Computed dipole along edir(3) : 
        Dipole               -0.2780 Ry au,         -0.7066 Debye
        Dipole field         -0.0002 Ry au, 
 
        Potential amp.        0.0187 Ry
        Total length         54.2615 bohr
 
 
     Adding external electric field

     Computed dipole along edir(3) : 
        Dipole               -0.2780 Ry au,         -0.7066 Debye
        Dipole field         -0.0002 Ry au, 
 
        Potential amp.        0.0187 Ry
        Total length         54.2615 bohr
 

     total cpu time spent up to now is      823.8 secs

     total energy              =   -7398.03595841 Ry
     estimated scf accuracy    <       0.01043484 Ry

     total magnetization       =    80.50 Bohr mag/cell
     absolute magnetization    =    81.92 Bohr mag/cell

     iteration # 44     ecut=    50.00 Ry     beta= 0.10
     Davidson diagonalization with overlap
     ethr =  8.55E-07,  avg # of iterations =  2.0

     negative rho (up, down):  2.324E-03 2.272E-03
 
     Adding external electric field

     Computed dipole along edir(3) : 
        Dipole               -0.2365 Ry au,         -0.6012 Debye
        Dipole field         -0.0001 Ry au, 
 
        Potential amp.        0.0159 Ry
        Total length         54.2615 bohr
 
 
     Adding external electric field

     Computed dipole along edir(3) : 
        Dipole               -0.2365 Ry au,         -0.6012 Debye
        Dipole field         -0.0001 Ry au, 
 
        Potential amp.        0.0159 Ry
        Total length         54.2615 bohr
 

     total cpu time spent up to now is      841.3 secs

     total energy              =   -7398.03615913 Ry
     estimated scf accuracy    <       0.00802116 Ry

     total magnetization       =    80.45 Bohr mag/cell
     absolute magnetization    =    81.94 Bohr mag/cell

     iteration # 45     ecut=    50.00 Ry     beta= 0.10
     Davidson diagonalization with overlap
     ethr =  7.44E-07,  avg # of iterations =  2.0

     negative rho (up, down):  4.408E-03 4.485E-03
 
     Adding external electric field

     Computed dipole along edir(3) : 
        Dipole               -0.1784 Ry au,         -0.4535 Debye
        Dipole field         -0.0001 Ry au, 
 
        Potential amp.        0.0120 Ry
        Total length         54.2615 bohr
 
 
     Adding external electric field

     Computed dipole along edir(3) : 
        Dipole               -0.1784 Ry au,         -0.4535 Debye
        Dipole field         -0.0001 Ry au, 
 
        Potential amp.        0.0120 Ry
        Total length         54.2615 bohr
 

     total cpu time spent up to now is      858.2 secs

     total energy              =   -7398.03610531 Ry
     estimated scf accuracy    <       0.00703243 Ry

     total magnetization       =    80.46 Bohr mag/cell
     absolute magnetization    =    81.97 Bohr mag/cell

     iteration # 46     ecut=    50.00 Ry     beta= 0.10
     Davidson diagonalization with overlap
     ethr =  6.52E-07,  avg # of iterations =  6.5

     negative rho (up, down):  4.946E-03 5.138E-03
 
     Adding external electric field

     Computed dipole along edir(3) : 
        Dipole               -0.1725 Ry au,         -0.4384 Debye
        Dipole field         -0.0001 Ry au, 
 
        Potential amp.        0.0116 Ry
        Total length         54.2615 bohr
 
 
     Adding external electric field

     Computed dipole along edir(3) : 
        Dipole               -0.1725 Ry au,         -0.4384 Debye
        Dipole field         -0.0001 Ry au, 
 
        Potential amp.        0.0116 Ry
        Total length         54.2615 bohr
 

     total cpu time spent up to now is      878.7 secs

     total energy              =   -7398.03598775 Ry
     estimated scf accuracy    <       0.00544325 Ry

     total magnetization       =    80.48 Bohr mag/cell
     absolute magnetization    =    82.01 Bohr mag/cell

     iteration # 47     ecut=    50.00 Ry     beta= 0.10
     Davidson diagonalization with overlap
     ethr =  5.05E-07,  avg # of iterations =  2.0

     negative rho (up, down):  5.113E-03 5.275E-03
 
     Adding external electric field

     Computed dipole along edir(3) : 
        Dipole               -0.1713 Ry au,         -0.4353 Debye
        Dipole field         -0.0001 Ry au, 
 
        Potential amp.        0.0115 Ry
        Total length         54.2615 bohr
 
 
     Adding external electric field

     Computed dipole along edir(3) : 
        Dipole               -0.1713 Ry au,         -0.4353 Debye
        Dipole field         -0.0001 Ry au, 
 
        Potential amp.        0.0115 Ry
        Total length         54.2615 bohr
 

     total cpu time spent up to now is      896.0 secs

     total energy              =   -7398.03609801 Ry
     estimated scf accuracy    <       0.00529653 Ry

     total magnetization       =    80.47 Bohr mag/cell
     absolute magnetization    =    82.04 Bohr mag/cell

     iteration # 48     ecut=    50.00 Ry     beta= 0.10
     Davidson diagonalization with overlap
     ethr =  4.91E-07,  avg # of iterations =  1.5

     negative rho (up, down):  5.396E-03 5.496E-03
 
     Adding external electric field

     Computed dipole along edir(3) : 
        Dipole               -0.1631 Ry au,         -0.4145 Debye
        Dipole field         -0.0001 Ry au, 
 
        Potential amp.        0.0109 Ry
        Total length         54.2615 bohr
 
 
     Adding external electric field

     Computed dipole along edir(3) : 
        Dipole               -0.1631 Ry au,         -0.4145 Debye
        Dipole field         -0.0001 Ry au, 
 
        Potential amp.        0.0109 Ry
        Total length         54.2615 bohr
 

     total cpu time spent up to now is      912.3 secs

     total energy              =   -7398.03605054 Ry
     estimated scf accuracy    <       0.00526364 Ry

     total magnetization       =    80.47 Bohr mag/cell
     absolute magnetization    =    82.02 Bohr mag/cell

     iteration # 49     ecut=    50.00 Ry     beta= 0.10
     Davidson diagonalization with overlap
     ethr =  4.88E-07,  avg # of iterations =  2.0

     negative rho (up, down):  4.853E-03 4.809E-03
 
     Adding external electric field

     Computed dipole along edir(3) : 
        Dipole               -0.1736 Ry au,         -0.4413 Debye
        Dipole field         -0.0001 Ry au, 
 
        Potential amp.        0.0117 Ry
        Total length         54.2615 bohr
 
 
     Adding external electric field

     Computed dipole along edir(3) : 
        Dipole               -0.1736 Ry au,         -0.4413 Debye
        Dipole field         -0.0001 Ry au, 
 
        Potential amp.        0.0117 Ry
        Total length         54.2615 bohr
 

     total cpu time spent up to now is      929.2 secs

     total energy              =   -7398.03614248 Ry
     estimated scf accuracy    <       0.00464691 Ry

     total magnetization       =    80.48 Bohr mag/cell
     absolute magnetization    =    82.09 Bohr mag/cell

     iteration # 50     ecut=    50.00 Ry     beta= 0.10
     Davidson diagonalization with overlap
     ethr =  4.31E-07,  avg # of iterations =  1.5

     negative rho (up, down):  3.095E-03 3.040E-03
 
     Adding external electric field

     Computed dipole along edir(3) : 
        Dipole               -0.2079 Ry au,         -0.5285 Debye
        Dipole field         -0.0001 Ry au, 
 
        Potential amp.        0.0140 Ry
        Total length         54.2615 bohr
 
 
     Adding external electric field

     Computed dipole along edir(3) : 
        Dipole               -0.2079 Ry au,         -0.5285 Debye
        Dipole field         -0.0001 Ry au, 
 
        Potential amp.        0.0140 Ry
        Total length         54.2615 bohr
 

     total cpu time spent up to now is      945.3 secs

     total energy              =   -7398.03611091 Ry
     estimated scf accuracy    <       0.00471700 Ry

     total magnetization       =    80.49 Bohr mag/cell
     absolute magnetization    =    82.10 Bohr mag/cell

     iteration # 51     ecut=    50.00 Ry     beta= 0.10
     Davidson diagonalization with overlap
     ethr =  4.31E-07,  avg # of iterations =  2.0

     negative rho (up, down):  3.869E-03 3.781E-03
 
     Adding external electric field

     Computed dipole along edir(3) : 
        Dipole               -0.1916 Ry au,         -0.4871 Debye
        Dipole field         -0.0001 Ry au, 
 
        Potential amp.        0.0129 Ry
        Total length         54.2615 bohr
 
 
     Adding external electric field

     Computed dipole along edir(3) : 
        Dipole               -0.1916 Ry au,         -0.4871 Debye
        Dipole field         -0.0001 Ry au, 
 
        Potential amp.        0.0129 Ry
        Total length         54.2615 bohr
 

     total cpu time spent up to now is      962.8 secs

     total energy              =   -7398.03621438 Ry
     estimated scf accuracy    <       0.00473461 Ry

     total magnetization       =    80.49 Bohr mag/cell
     absolute magnetization    =    82.08 Bohr mag/cell

     iteration # 52     ecut=    50.00 Ry     beta= 0.10
     Davidson diagonalization with overlap
     ethr =  4.31E-07,  avg # of iterations =  2.0

     negative rho (up, down):  4.892E-03 4.763E-03
 
     Adding external electric field

     Computed dipole along edir(3) : 
        Dipole               -0.1718 Ry au,         -0.4367 Debye
        Dipole field         -0.0001 Ry au, 
 
        Potential amp.        0.0115 Ry
        Total length         54.2615 bohr
 
 
     Adding external electric field

     Computed dipole along edir(3) : 
        Dipole               -0.1718 Ry au,         -0.4367 Debye
        Dipole field         -0.0001 Ry au, 
 
        Potential amp.        0.0115 Ry
        Total length         54.2615 bohr
 

     total cpu time spent up to now is      979.8 secs

     total energy              =   -7398.03630404 Ry
     estimated scf accuracy    <       0.00452163 Ry

     total magnetization       =    80.49 Bohr mag/cell
     absolute magnetization    =    82.07 Bohr mag/cell

     iteration # 53     ecut=    50.00 Ry     beta= 0.10
     Davidson diagonalization with overlap
     ethr =  4.19E-07,  avg # of iterations =  2.0

     negative rho (up, down):  4.751E-03 4.629E-03
 
     Adding external electric field

     Computed dipole along edir(3) : 
        Dipole               -0.1791 Ry au,         -0.4552 Debye
        Dipole field         -0.0001 Ry au, 
 
        Potential amp.        0.0120 Ry
        Total length         54.2615 bohr
 
 
     Adding external electric field

     Computed dipole along edir(3) : 
        Dipole               -0.1791 Ry au,         -0.4552 Debye
        Dipole field         -0.0001 Ry au, 
 
        Potential amp.        0.0120 Ry
        Total length         54.2615 bohr
 

     total cpu time spent up to now is      997.1 secs

     total energy              =   -7398.03629913 Ry
     estimated scf accuracy    <       0.00440707 Ry

     total magnetization       =    80.50 Bohr mag/cell
     absolute magnetization    =    82.07 Bohr mag/cell

     iteration # 54     ecut=    50.00 Ry     beta= 0.10
     Davidson diagonalization with overlap
     ethr =  4.09E-07,  avg # of iterations =  2.0

     negative rho (up, down):  5.753E-03 5.551E-03
 
     Adding external electric field

     Computed dipole along edir(3) : 
        Dipole               -0.1554 Ry au,         -0.3949 Debye
        Dipole field         -0.0001 Ry au, 
 
        Potential amp.        0.0104 Ry
        Total length         54.2615 bohr
 
 
     Adding external electric field

     Computed dipole along edir(3) : 
        Dipole               -0.1554 Ry au,         -0.3949 Debye
        Dipole field         -0.0001 Ry au, 
 
        Potential amp.        0.0104 Ry
        Total length         54.2615 bohr
 

     total cpu time spent up to now is     1014.2 secs

     total energy              =   -7398.03635032 Ry
     estimated scf accuracy    <       0.00444344 Ry

     total magnetization       =    80.50 Bohr mag/cell
     absolute magnetization    =    82.06 Bohr mag/cell

     iteration # 55     ecut=    50.00 Ry     beta= 0.10
     Davidson diagonalization with overlap
     ethr =  4.09E-07,  avg # of iterations =  2.0

     negative rho (up, down):  6.788E-03 6.559E-03
 
     Adding external electric field

     Computed dipole along edir(3) : 
        Dipole               -0.1288 Ry au,         -0.3275 Debye
        Dipole field         -0.0001 Ry au, 
 
        Potential amp.        0.0086 Ry
        Total length         54.2615 bohr
 
 
     Adding external electric field

     Computed dipole along edir(3) : 
        Dipole               -0.1288 Ry au,         -0.3275 Debye
        Dipole field         -0.0001 Ry au, 
 
        Potential amp.        0.0086 Ry
        Total length         54.2615 bohr
 

     total cpu time spent up to now is     1031.0 secs

     total energy              =   -7398.03639709 Ry
     estimated scf accuracy    <       0.00409198 Ry

     total magnetization       =    80.51 Bohr mag/cell
     absolute magnetization    =    82.07 Bohr mag/cell

     iteration # 56     ecut=    50.00 Ry     beta= 0.10
     Davidson diagonalization with overlap
     ethr =  3.80E-07,  avg # of iterations =  2.0

     negative rho (up, down):  6.450E-03 6.203E-03
 
     Adding external electric field

     Computed dipole along edir(3) : 
        Dipole               -0.0857 Ry au,         -0.2178 Debye
        Dipole field         -0.0001 Ry au, 
 
        Potential amp.        0.0058 Ry
        Total length         54.2615 bohr
 
 
     Adding external electric field

     Computed dipole along edir(3) : 
        Dipole               -0.0857 Ry au,         -0.2178 Debye
        Dipole field         -0.0001 Ry au, 
 
        Potential amp.        0.0058 Ry
        Total length         54.2615 bohr
 

     total cpu time spent up to now is     1047.6 secs

     total energy              =   -7398.03631428 Ry
     estimated scf accuracy    <       0.00358073 Ry

     total magnetization       =    80.51 Bohr mag/cell
     absolute magnetization    =    82.09 Bohr mag/cell

     iteration # 57     ecut=    50.00 Ry     beta= 0.10
     Davidson diagonalization with overlap
     ethr =  3.32E-07,  avg # of iterations =  2.0

     negative rho (up, down):  8.510E-03 8.338E-03
 
     Adding external electric field

     Computed dipole along edir(3) : 
        Dipole               -0.0611 Ry au,         -0.1554 Debye
        Dipole field         -0.0000 Ry au, 
 
        Potential amp.        0.0041 Ry
        Total length         54.2615 bohr
 
 
     Adding external electric field

     Computed dipole along edir(3) : 
        Dipole               -0.0611 Ry au,         -0.1554 Debye
        Dipole field         -0.0000 Ry au, 
 
        Potential amp.        0.0041 Ry
        Total length         54.2615 bohr
 

     total cpu time spent up to now is     1064.4 secs

     total energy              =   -7398.03635993 Ry
     estimated scf accuracy    <       0.00230649 Ry

     total magnetization       =    80.50 Bohr mag/cell
     absolute magnetization    =    82.07 Bohr mag/cell

     iteration # 58     ecut=    50.00 Ry     beta= 0.10
     Davidson diagonalization with overlap
     ethr =  2.14E-07,  avg # of iterations =  2.0

     negative rho (up, down):  3.620E-03 3.678E-03
 
     Adding external electric field

     Computed dipole along edir(3) : 
        Dipole               -0.1190 Ry au,         -0.3026 Debye
        Dipole field         -0.0001 Ry au, 
 
        Potential amp.        0.0080 Ry
        Total length         54.2615 bohr
 
 
[...]
    -5.9992  -5.9860  -5.9570  -5.9356  -5.9163  -5.8854  -5.8504  -5.8424
    -5.8195  -5.8065  -5.7596  -5.7355  -5.7319  -5.7144  -5.6965  -5.6878
    -5.6753  -5.6696  -5.6387  -5.6236  -5.6129  -5.5995  -5.5297  -5.5131
    -5.4611  -5.4513  -5.4068  -5.4055  -5.3884  -5.3527  -5.3084  -5.2861
    -5.2435  -5.2147  -5.1894  -5.1798  -5.1686  -5.0847  -5.0812  -5.0591
    -4.9976  -4.9658  -4.9544  -4.9153  -4.8920  -4.8709  -4.8503  -4.7997
    -4.7831  -4.7657  -4.7626  -4.7354  -4.6453  -4.6318  -4.5828  -4.5502
    -4.5310  -4.5213  -4.4975  -4.4512  -4.4182  -4.3975  -4.3822  -4.3730
    -4.3639  -4.2952  -4.2926  -4.2310  -4.1770  -4.1483  -4.1097  -4.0940
    -4.0796  -4.0461  -4.0403  -4.0047  -3.9623  -3.9558  -3.9115  -3.9028
    -3.8850  -3.8463  -3.8267  -3.8167  -3.8061  -3.7709  -3.7453  -3.7347
    -3.7086  -3.6851  -3.6673  -3.6558  -3.6433  -3.6317  -3.6045  -3.5798
    -3.5472  -3.5286  -3.5250  -3.5029  -3.5010  -3.4869  -3.4536  -3.4457
    -3.4158  -3.4062  -3.3862  -3.3536  -3.3454  -3.3075  -3.2768  -3.2592
    -3.2371  -3.2205  -3.2097  -3.1922  -3.1742  -3.1673  -3.1496  -3.1434
    -3.1203  -3.0861  -3.0428  -3.0292  -3.0148  -2.9954  -2.9668  -2.9577
    -2.9256  -2.9173  -2.8988  -2.8743  -2.8618  -2.8471  -2.8226  -2.8128
    -2.7990  -2.7905  -2.7851  -2.7768  -2.7553  -2.7463  -2.7258  -2.7065
    -2.6907  -2.6671  -2.6654  -2.6531  -2.6256  -2.6115  -2.5962  -2.5828
    -2.5506  -2.5367  -2.5225  -2.5120  -2.4927  -2.4891  -2.4702  -2.4456
    -2.4272  -2.4023  -2.3906  -2.3686  -2.3522  -2.3160  -2.3022  -2.2865
    -2.2650  -2.2511  -2.2381  -2.2092  -2.1709  -2.1638  -2.1333  -2.1292
    -2.1135  -2.0865  -2.0842  -2.0744  -2.0666  -2.0412  -2.0092  -1.9939
    -1.9772  -1.9649  -1.9559  -1.9389  -1.9346  -1.9174  -1.9008  -1.8720
    -1.8471  -1.8218  -1.7939  -1.7682  -1.7396  -1.7288  -1.7085  -1.6999
    -1.6784  -1.6578  -1.6465  -1.6319  -1.6142  -1.6006  -1.5769  -1.5494
    -1.5325  -1.5174  -1.4901  -1.4681  -1.4570  -1.4298  -1.4222  -1.4187
    -1.4097  -1.3747  -1.3445  -1.3117  -1.2995  -1.2482  -1.2240  -1.2062
    -1.1546  -1.0953  -1.0717  -1.0543  -1.0159  -0.9284  -0.8908  -0.8783
    -0.7658  -0.6608  -0.6155  -0.6138  -0.4652  -0.3689  -0.3250  -0.2612
     0.1002   0.1234   0.1526   0.1885   0.2225   0.2416   0.2577   0.2685
     0.2808   0.2889   0.2972   0.3043   0.3114   0.3302   0.3410   0.3413
     0.3537   0.3597   0.3693   0.3761   0.3845   0.3893   0.3964   0.3994
     0.4082   0.4105   0.4231   0.4342   0.4443   0.4523   0.4546   0.4581
     0.4629   0.4644   0.4733   0.4797   0.4910   0.4982   0.5016   0.5108
     0.5153   0.5322   0.5377   0.5453   0.5587   0.5602   0.5644   0.5727
     0.5788   0.5863   0.5927   0.5962   0.6037   0.6126   0.6237   0.6321
     0.6433   0.6535   0.6598   0.6610   0.6645   0.6731   0.6828   0.6850
     0.6933   0.7016   0.7083   0.7124   0.7175   0.7226   0.7413   0.7444
     0.7480   0.7524   0.7768   0.7845   0.7862   0.7953   0.8053   0.8230
     0.8374   0.8407   0.8413   0.8519   0.8617   0.8643   0.8772   0.8811
     0.8952   0.8987   0.9111   0.9165   0.9242   0.9843   1.0125   1.0169
     1.0696   1.1333   1.6067   1.6561   1.6955   1.6987   1.7118   1.7418
     1.7572   1.8380   1.8690   1.8726   1.8893   1.9180   1.9311   1.9615
     1.9885   1.9943   2.0116   2.0175   2.0555   2.0698   2.0781   2.1161
     2.1434   2.1562   2.1815   2.1888   2.1942   2.2131   2.2226   2.2358
     2.2499   2.2542   2.2646   2.2814   2.2896   2.2982   2.3032   2.3223
     2.3330   2.3405   2.3694   2.3819   2.4088   2.4144   2.4174   2.4372
     2.4522   2.4722   2.4951   2.4984   2.5134   2.5327   2.5379   2.5508
     2.5788   2.5905   2.6267   2.6439   2.6644   2.6876   2.7298   2.7545
     2.7849   2.8326   2.8401   2.8889   2.9025   3.5593   3.5881   3.6627
     3.7293   3.8170   3.8275   3.8417   3.8585   3.9960   4.0596   4.5559
     4.6403   4.6981   4.7717   4.9233   4.9436   5.0172   5.4132   6.2925
     6.3588   6.5407   6.5799   6.7372   6.8300   6.8419   6.8792   6.9233
     7.0259   7.0796   7.0888   7.1227   7.3174   7.3665   7.3883   7.4274
     7.5026   7.5419   7.6561   7.6752   7.6900   7.7263   7.7906   7.8051
     7.8481   7.9199   7.9611   7.9729   8.0075   8.0204   8.0475   8.0707
     8.0974   8.1168   8.1696   8.2014   8.2339   8.2499   8.2840   8.3198
     8.3765   8.3997   8.4141   8.4607   8.4730   8.4749   8.4987   8.5119
     8.5484   8.5522   8.5911   8.5956   8.6121   8.6346   8.6693   8.6789
     8.7148   8.7533   8.7719   8.7947   8.8363   8.8456   8.8587

     the Fermi energy is     1.5632 ev

!    total energy              =   -7398.03617434 Ry
     estimated scf accuracy    <       0.00000092 Ry
     smearing contrib. (-TS)   =      -0.01418741 Ry
     internal energy E=F+TS    =   -7398.02198693 Ry

     The total energy is F=E-TS. E is the sum of the following terms:
     one-electron contribution =  -91723.27308309 Ry
     hartree contribution      =   46509.51295191 Ry
     xc contribution           =   -2260.27241579 Ry
     ewald contribution        =   40077.84442916 Ry
     Dispersion Correction     =      -1.83388311 Ry
     electric field correction =       0.00001400 Ry

     total magnetization       =    80.45 Bohr mag/cell
     absolute magnetization    =    81.98 Bohr mag/cell

     convergence has been achieved in  71 iterations

     negative rho (up, down):  9.281E-04 5.459E-04

     Forces acting on atoms (cartesian axes, Ry/au):

     atom    1 type  2   force =     0.03092979   -0.01974589   -0.01620917
     atom    2 type  1   force =     0.00216951   -0.00393061   -0.01071164
     atom    3 type  1   force =    -0.02157718   -0.02052294    0.01818842
     atom    4 type  1   force =     0.00140489    0.01021611   -0.01267049
     atom    5 type  1   force =    -0.00475797    0.02879327   -0.01834069
     atom    6 type  1   force =     0.00583909    0.00064646   -0.00040487
     atom    7 type  1   force =     0.02691839   -0.02111496    0.01750434
     atom    8 type  1   force =    -0.00956227   -0.00303123   -0.01105223
     atom    9 type  1   force =    -0.02977707   -0.01806298    0.01616941
     atom   10 type  1   force =    -0.00115859    0.00805557   -0.01297403
     atom   11 type  1   force =    -0.01316164    0.03018259   -0.02051808
     atom   12 type  1   force =     0.00129243    0.00676742   -0.00410226
     atom   13 type  3   force =     0.05102438   -0.11003770    0.00916800
     atom   14 type  3   force =    -0.02902993    0.03593968   -0.06519034
     atom   15 type  3   force =    -0.00919299    0.17548432   -0.08317100
     atom   16 type  3   force =     0.06071034    0.00055291   -0.00438255
     atom   17 type  4   force =     0.01521424   -0.02181266   -0.00971163
     atom   18 type  4   force =    -0.00535989    0.00478247    0.02960843
     atom   19 type  4   force =     0.00213418    0.00098240    0.03072661
     atom   20 type  4   force =     0.00511079    0.00190918    0.00240222
     atom   21 type  4   force =     0.00058434   -0.01197650   -0.00005766
     atom   22 type  4   force =    -0.00090123    0.00383884    0.03258566
     atom   23 type  4   force =    -0.00609017    0.01465552    0.02743350
     atom   24 type  4   force =     0.00866728    0.00325226   -0.00429913
     atom   25 type  4   force =     0.00646040   -0.00329208    0.00156201
     atom   26 type  4   force =     0.03116029   -0.17830904    0.00724935
     atom   27 type  4   force =     0.00290811    0.00101013    0.00170621
     atom   28 type  4   force =    -0.01701354    0.00167300    0.00475104
     atom   29 type  4   force =     0.09126333    0.00314498    0.00806759
     atom   30 type  4   force =     0.01309860   -0.02508737   -0.00089796
     atom   31 type  4   force =    -0.03844374    0.13330502   -0.00017509
     atom   32 type  4   force =    -0.00557639   -0.01188825    0.00653050
     atom   33 type  3   force =     0.04159088   -0.11920586    0.00961378
     atom   34 type  3   force =    -0.10166529    0.04258972   -0.07574708
     atom   35 type  3   force =    -0.01350903    0.16599428   -0.08811209
     atom   36 type  3   force =    -0.00359799    0.00256470   -0.01043855
     atom   37 type  4   force =     0.00828501   -0.01465235   -0.00230609
     atom   38 type  4   force =    -0.00583278   -0.00174684    0.02732680
     atom   39 type  4   force =    -0.00469220    0.00722235    0.03214367
     atom   40 type  4   force =     0.00128890    0.00006745    0.00251661
     atom   41 type  4   force =    -0.00146574   -0.00961327   -0.00155193
     atom   42 type  4   force =     0.00543270   -0.00057202    0.02947429
     atom   43 type  4   force =    -0.01046031    0.01348635    0.02708116
     atom   44 type  4   force =     0.00444481    0.00349968   -0.00446942
     atom   45 type  4   force =    -0.00033046   -0.00066508    0.00201295
     atom   46 type  4   force =     0.02810336   -0.17053032    0.00542567
     atom   47 type  4   force =    -0.06549855   -0.00072358   -0.00310026
     atom   48 type  4   force =    -0.01982951    0.00389857    0.00530159
     atom   49 type  4   force =     0.01398443    0.00087541    0.00206193
     atom   50 type  4   force =     0.00797579   -0.02429955   -0.00014036
     atom   51 type  4   force =    -0.03973895    0.13330385   -0.00135003
     atom   52 type  4   force =    -0.00784194   -0.01068579    0.00876321
     atom   53 type  2   force =     0.00644557   -0.00733587    0.00538739
     atom   54 type  1   force =     0.00105109   -0.00392626    0.00686995
     atom   55 type  1   force =     0.00503385   -0.00623779    0.00662560
     atom   56 type  1   force =    -0.00084667    0.00719204   -0.00078638
     atom   57 type  1   force =     0.00055311    0.02203192   -0.01417906
     atom   58 type  1   force =     0.00159902   -0.00331148    0.00235739
     atom   59 type  1   force =     0.00247225   -0.01017934    0.00367959
     atom   60 type  1   force =    -0.00754486   -0.00363160    0.00371150
     atom   61 type  1   force =    -0.00473418   -0.00492764    0.00664375
     atom   62 type  1   force =    -0.00224195    0.00497753    0.00212442
     atom   63 type  1   force =    -0.01083874    0.02507786   -0.01750361
     atom   64 type  1   force =    -0.00228971    0.00123875   -0.00078017
     atom   65 type  3   force =     0.04666664   -0.11944866    0.01682755
     atom   66 type  3   force =     0.00156466   -0.00439621    0.00067810
     atom   67 type  3   force =    -0.04056954    0.12366268   -0.00691790
     atom   68 type  3   force =     0.06322062   -0.00245443    0.00831566
     atom   69 type  4   force =     0.01279849   -0.01736279   -0.00203748
     atom   70 type  4   force =    -0.00172037    0.00340848   -0.00070995
     atom   71 type  4   force =    -0.00191650    0.00335530    0.00518864
     atom   72 type  4   force =     0.00473442    0.00158299    0.00090892
     atom   73 type  4   force =     0.00669021   -0.01712924    0.01177342
     atom   74 type  4   force =    -0.00438325   -0.00337645    0.00939516
     atom   75 type  4   force =     0.00350103    0.00860492    0.00459852
     atom   76 type  4   force =     0.00537565    0.00015738    0.00098950
     atom   77 type  4   force =     0.00600778   -0.00134044   -0.00073662
     atom   78 type  4   force =     0.04525069   -0.14082014    0.00577436
     atom   79 type  4   force =     0.00030809    0.00030675   -0.00096998
     atom   80 type  4   force =     0.00153554    0.00183343    0.00226067
     atom   81 type  4   force =     0.06731943    0.00013638    0.00652648
     atom   82 type  4   force =     0.00021120    0.00244355    0.00130030
     atom   83 type  4   force =    -0.03959302    0.13733465   -0.00227583
     atom   84 type  4   force =    -0.00211193   -0.01049773    0.00358213
     atom   85 type  3   force =     0.03901609   -0.12281308    0.02655860
     atom   86 type  3   force =    -0.06320673   -0.00177444   -0.00383986
     atom   87 type  3   force =    -0.04621598    0.12090118   -0.01039261
     atom   88 type  3   force =     0.00007024   -0.00107554    0.00191119
     atom   89 type  4   force =     0.00870145   -0.01532982   -0.00506779
     atom   90 type  4   force =    -0.00446478    0.00106667   -0.00080855
     atom   91 type  4   force =    -0.00946979    0.00831968    0.00551200
     atom   92 type  4   force =     0.00023618    0.00005218   -0.00004483
     atom   93 type  4   force =     0.00186455   -0.01184352    0.00091010
     atom   94 type  4   force =    -0.00901306   -0.00300216    0.00842388
     atom   95 type  4   force =    -0.00032848    0.00771405    0.00302967
     atom   96 type  4   force =    -0.00121891    0.00205450   -0.00199734
     atom   97 type  4   force =    -0.00097291    0.00161428   -0.00031457
     atom   98 type  4   force =     0.04063707   -0.13919651    0.00485618
     atom   99 type  4   force =    -0.06735296   -0.00066878   -0.00571972
     atom  100 type  4   force =    -0.00041763    0.00279564    0.00285160
     atom  101 type  4   force =    -0.00126632    0.00010552    0.00142009
     atom  102 type  4   force =    -0.00682515    0.00556128    0.00157347
     atom  103 type  4   force =    -0.03984791    0.13542920   -0.00466580
     atom  104 type  4   force =    -0.00540417   -0.01020460    0.00528667
     atom  105 type  2   force =     0.00011220    0.00033264   -0.00020858
     atom  106 type  1   force =    -0.00000044   -0.00042519   -0.00003712
     atom  107 type  1   force =    -0.00041382   -0.00075448   -0.00024990
     atom  108 type  1   force =    -0.00017552   -0.00060446    0.00002775
     atom  109 type  1   force =     0.00015964   -0.00019703   -0.00050740
     atom  110 type  1   force =    -0.00007835   -0.00016984    0.00015711
     atom  111 type  1   force =    -0.00001965    0.00027235    0.00001602
     atom  112 type  1   force =     0.00005220   -0.00045400    0.00010386
     atom  113 type  1   force =    -0.00040335   -0.00056154   -0.00076569
     atom  114 type  1   force =     0.00083420   -0.00044096    0.00083044
     atom  115 type  1   force =     0.00015070    0.00019402   -0.00007257
     atom  116 type  1   force =     0.00005527   -0.00004481   -0.00035836
     atom  117 type  3   force =     0.00040966    0.00041165   -0.00064656
     atom  118 type  3   force =    -0.00041313   -0.00024216   -0.00017660
     atom  119 type  3   force =    -0.00008894    0.00002570    0.00040992
     atom  120 type  3   force =     0.00045260   -0.00027694    0.00029033
     atom  121 type  4   force =     0.00001329   -0.00014502    0.00013755
     atom  122 type  4   force =    -0.00011848    0.00007715   -0.00015451
     atom  123 type  4   force =     0.00025624    0.00007770    0.00016797
     atom  124 type  4   force =     0.00031577   -0.00039166   -0.00024445
     atom  125 type  4   force =    -0.00020688   -0.00033941    0.00048484
     atom  126 type  4   force =     0.00014298   -0.00037022   -0.00012150
     atom  127 type  4   force =    -0.00002422    0.00017550    0.00032493
     atom  128 type  4   force =    -0.00022063    0.00012021   -0.00022755
     atom  129 type  4   force =    -0.00060799    0.00084624   -0.00030731
     atom  130 type  4   force =     0.00023105    0.00015830    0.00015818
     atom  131 type  4   force =    -0.00004445   -0.00087669    0.00047640
     atom  132 type  4   force =    -0.00000641   -0.00013170   -0.00024402
     atom  133 type  4   force =    -0.00007456   -0.00021371   -0.00020413
     atom  134 type  4   force =     0.00003059   -0.00024941   -0.00002946
     atom  135 type  4   force =    -0.00016724   -0.00030041    0.00006619
     atom  136 type  4   force =    -0.00001228   -0.00009797   -0.00002190
     atom  137 type  3   force =    -0.00052826   -0.00029028   -0.00020170
     atom  138 type  3   force =     0.00013254    0.00002004   -0.00007466
     atom  139 type  3   force =    -0.00003111   -0.00032413   -0.00022426
     atom  140 type  3   force =    -0.00001177   -0.00012432   -0.00046622
     atom  141 type  4   force =     0.00086116    0.00046034    0.00060397
     atom  142 type  4   force =    -0.00023661    0.00015382   -0.00001138
     atom  143 type  4   force =     0.00004203   -0.00022024    0.00015473
     atom  144 type  4   force =     0.00008900    0.00069913   -0.00071396
     atom  145 type  4   force =    -0.00001971   -0.00020204    0.00028117
     atom  146 type  4   force =     0.00013269   -0.00022628    0.00021344
     atom  147 type  4   force =     0.00014503    0.00012078   -0.00022131
     atom  148 type  4   force =    -0.00052314    0.00008011    0.00043540
     atom  149 type  4   force =     0.00044896   -0.00012903    0.00002629
     atom  150 type  4   force =     0.00021279   -0.00017649   -0.00003708
     atom  151 type  4   force =    -0.00012408    0.00002537   -0.00030852
     atom  152 type  4   force =     0.00025680   -0.00036912    0.00027346
     atom  153 type  4   force =     0.00023008    0.00001924   -0.00006704
     atom  154 type  4   force =    -0.00043448   -0.00048247   -0.00009072
     atom  155 type  4   force =     0.00063215    0.00089062    0.00005027
     atom  156 type  4   force =    -0.00061557    0.00001791   -0.00005902
     atom  157 type  4   force =     0.00258121    0.00157316    0.00111123
     atom  158 type  5   force =    -0.00338001   -0.00078189   -0.00114273

     Total force =     0.664513     Total SCF correction =     0.003189
 
     init_run     :     10.19s CPU     10.93s WALL (       1 calls)
     electrons    :   1231.56s CPU   1287.45s WALL (       1 calls)
     forces       :      6.27s CPU      6.70s WALL (       1 calls)
     force_london :      0.11s CPU      0.11s WALL (       1 calls)

     Called by init_run:
     wfcinit      :      5.77s CPU      5.98s WALL (       1 calls)
     potinit      :      0.67s CPU      0.86s WALL (       1 calls)
     hinit0       :      1.77s CPU      1.86s WALL (       1 calls)

     Called by electrons:
     c_bands      :    947.53s CPU    976.10s WALL (      71 calls)
     sum_band     :    177.58s CPU    192.26s WALL (      71 calls)
     v_of_rho     :     16.90s CPU     17.87s WALL (      72 calls)
     newd         :     64.87s CPU     76.62s WALL (      72 calls)
     mix_rho      :     23.98s CPU     24.15s WALL (      71 calls)
     energy_londo :      0.10s CPU      0.10s WALL (       1 calls)

     Called by c_bands:
     init_us_2    :      2.55s CPU      2.65s WALL (     288 calls)
     init_us_2:cp :      2.55s CPU      2.65s WALL (     288 calls)
     regterg      :    926.03s CPU    954.24s WALL (     146 calls)

     Called by *egterg:
     rdiaghg      :    220.44s CPU    233.18s WALL (     612 calls)
     h_psi        :    355.13s CPU    362.24s WALL (     614 calls)
     s_psi        :     62.20s CPU     62.24s WALL (     614 calls)
     g_psi        :      0.45s CPU      0.46s WALL (     466 calls)

     Called by h_psi:
     h_psi:calbec :    104.27s CPU    109.86s WALL (     614 calls)
     vloc_psi     :    187.54s CPU    188.30s WALL (     614 calls)
     add_vuspsi   :     62.47s CPU     63.20s WALL (     614 calls)

     General routines
     calbec       :    152.96s CPU    161.42s WALL (     764 calls)
     fft          :     43.49s CPU     44.67s WALL (    1309 calls)
     ffts         :     12.94s CPU     12.99s WALL (    8825 calls)
     fftw         :    211.65s CPU    212.46s WALL (  242608 calls)
     interpolate  :      1.66s CPU      1.73s WALL (     144 calls)
 
     Parallel routines
 
     PWSCF        :  20m50.22s CPU  21m47.58s WALL

 
   This run was terminated on:  23:41: 4  19Nov2025            

=------------------------------------------------------------------------------=
   JOB DONE.
=------------------------------------------------------------------------------=
