
     Program PWSCF v.7.2 starts on 19Nov2025 at 23: 1:40 

     This program is part of the open-source Quantum ESPRESSO suite
     for quantum simulation of materials; please cite
         "P. Giannozzi et al., J. Phys.:Condens. Matter 21 395502 (2009);
         "P. Giannozzi et al., J. Phys.:Condens. Matter 29 465901 (2017);
         "P. Giannozzi et al., J. Chem. Phys. 152 154105 (2020);
          URL http://www.quantum-espresso.org", 
     in publications or presentations arising from this work. More details at
     http://www.quantum-espresso.org/quote

     Parallel version (MPI), running on    64 processors

     MPI processes distributed on     4 nodes
     367573 MiB available memory on the printing compute node when the environment starts
 
     Reading input from PWINPUT_atm158_ym

     Current dimensions of program PWSCF are:
     Max number of different atomic species (ntypx) = 10
     Max number of k-points (npk) =  40000
     Max angular momentum in pseudopotentials (lmaxx) =  4
     Presently no symmetry can be used with electric field

     file Ni.pbe-n-rrkjus_psl.1.0.0.UPF: wavefunction(s)  3D renormalized
     file Mn.pbe-spn-rrkjus_psl.0.3.1.UPF: wavefunction(s)  3D renormalized
     file O.pbe-rrkjus.UPF: wavefunction(s)  2S renormalized
     file H.pbe-rrkjus.UPF: wavefunction(s)  1S renormalized

     gamma-point specific algorithms are used
 
     R & G space division:  proc/nbgrp/npool/nimage =      64
     Subspace diagonalization in iterative solution of the eigenvalue problem:
     one sub-group per band group will be used
     custom distributed-memory algorithm (size of sub-group:  6*  6 procs)

 
     Parallelization info
     --------------------
     sticks:   dense  smooth     PW     G-vecs:    dense   smooth      PW
     Min         208      82     20                59912    15118    1876
     Max         210      84     22                59974    15196    1926
     Sum       13399    5355   1345              3836275   970529  121367
 
     Using Slab Decomposition
 


     bravais-lattice index     =            0
     lattice parameter (alat)  =      17.7004  a.u.
     unit-cell volume          =   20319.7251 (a.u.)^3
     number of atoms/cell      =          158
     number of atomic types    =            5
     number of electrons       =      1078.00
     number of Kohn-Sham states=          647
     kinetic-energy cutoff     =      50.0000  Ry
     charge density cutoff     =     500.0000  Ry
     scf convergence threshold =      1.0E-06
     mixing beta               =       0.1000
     number of iterations used =            8  local-TF  mixing
     Exchange-correlation=  SLA  PW   PBE  PBE
                           (   1   4   3   4   0   0   0)

     celldm(1)=  17.700384  celldm(2)=   0.000000  celldm(3)=   0.000000
     celldm(4)=   0.000000  celldm(5)=   0.000000  celldm(6)=   0.000000

     crystal axes: (cart. coord. in units of alat)
               a(1) = (   1.000000   0.000000   0.000000 )  
               a(2) = (   0.000000   1.075730   0.000000 )  
               a(3) = (   0.000000   0.000000   3.406172 )  

     reciprocal axes: (cart. coord. in units 2 pi/alat)
               b(1) = (  1.000000  0.000000  0.000000 )  
               b(2) = (  0.000000  0.929602  0.000000 )  
               b(3) = (  0.000000  0.000000  0.293585 )  


     PseudoPot. # 1 for Ni read from file:
     ~/PSEUDO/Ni.pbe-n-rrkjus_psl.1.0.0.UPF
     MD5 check sum: Not computed, couldn't open file
     Pseudo is Ultrasoft + core correction, Zval = 10.0
     Generated using "atomic" code by A. Dal Corso  v.5.1.2
     Using radial grid of 1195 points,  6 beta functions with: 
                l(1) =   0
                l(2) =   0
                l(3) =   1
                l(4) =   1
                l(5) =   2
                l(6) =   2
     Q(r) pseudized with 0 coefficients 


     PseudoPot. # 2 for Mn read from file:
     ~/PSEUDO/Mn.pbe-spn-rrkjus_psl.0.3.1.UPF
     MD5 check sum: Not computed, couldn't open file
     Pseudo is Ultrasoft + core correction, Zval = 15.0
     Generated using &quot;atomic&quot; code by A. Dal Corso  v.6.2.2
     Using radial grid of 1187 points,  6 beta functions with: 
                l(1) =   0
                l(2) =   0
                l(3) =   1
                l(4) =   1
                l(5) =   2
                l(6) =   2
     Q(r) pseudized with 0 coefficients 


     PseudoPot. # 3 for P  read from file:
     ~/PSEUDO/P.pbe-n-rrkjus_psl.1.0.0.UPF
     MD5 check sum: Not computed, couldn't open file
     Pseudo is Ultrasoft + core correction, Zval =  5.0
     Generated using "atomic" code by A. Dal Corso  v.5.1
     Using radial grid of 1147 points,  6 beta functions with: 
                l(1) =   0
                l(2) =   0
                l(3) =   1
                l(4) =   1
                l(5) =   2
                l(6) =   2
     Q(r) pseudized with 0 coefficients 


     PseudoPot. # 4 for O  read from file:
     ~/PSEUDO/O.pbe-rrkjus.UPF
     MD5 check sum: Not computed, couldn't open file
     Pseudo is Ultrasoft, Zval =  6.0
     Generated by new atomic code, or converted to UPF format
     Using radial grid of 1269 points,  4 beta functions with: 
                l(1) =   0
                l(2) =   0
                l(3) =   1
                l(4) =   1
     Q(r) pseudized with 0 coefficients 


     PseudoPot. # 5 for H  read from file:
     ~/PSEUDO/H.pbe-rrkjus.UPF
     MD5 check sum: Not computed, couldn't open file
     Pseudo is Ultrasoft, Zval =  1.0
     Generated by new atomic code, or converted to UPF format
     Using radial grid of 1061 points,  2 beta functions with: 
                l(1) =   0
                l(2) =   0
     Q(r) pseudized with 0 coefficients 


     atomic species   valence    mass     pseudopotential
     Ni               10.00    58.69300     Ni( 1.00)
     Mn               15.00    54.93800     Mn( 1.00)
     P                 5.00    30.97300     P ( 1.00)
     O                 6.00    15.99900     O ( 1.00)
     H                 1.00     1.00790     H ( 1.00)

     Starting magnetic structure 
     atomic species   magnetization
     Ni              1.000
     Mn              1.000
     P               1.000
     O               1.000
     H               0.000

     No symmetry found



   Cartesian axes

     site n.     atom                  positions (alat units)
         1        Mn     tau(   1) = (   0.2404744   0.8371250   0.1168501  )
         2        Ni     tau(   2) = (   0.4968126   0.7726670   0.4415546  )
         3        Ni     tau(   3) = (   0.0066150   0.2936743   0.1241053  )
         4        Ni     tau(   4) = (   0.2585722   0.2355858   0.4448848  )
         5        Ni     tau(   5) = (   0.9987350   1.0696411   0.2854926  )
         6        Ni     tau(   6) = (   0.2517397   0.5330511   0.2829322  )
         7        Ni     tau(   7) = (   0.7451645   0.8337543   0.1221751  )
         8        Ni     tau(   8) = (   0.9939181   0.7738804   0.4407595  )
         9        Ni     tau(   9) = (   0.5111533   0.2924088   0.1251865  )
        10        Ni     tau(  10) = (   0.7606326   0.2319267   0.4451372  )
        11        Ni     tau(  11) = (   0.5024065   1.0688133   0.2870502  )
        12        Ni     tau(  12) = (   0.7529977   0.5317900   0.2845227  )
        13        P      tau(  13) = (   0.2092944   0.9731097   0.4345035  )
        14        P      tau(  14) = (   0.4655727   0.6359535   0.1274635  )
        15        P      tau(  15) = (   0.2910699   0.1027363   0.1296098  )
        16        P      tau(  16) = (   0.0396216   0.4288395   0.4398838  )
        17        O      tau(  17) = (   0.1294378   0.9013260   0.3010618  )
        18        O      tau(  18) = (   0.3874505   0.7054774   0.2637003  )
        19        O      tau(  19) = (   0.3702540   0.1714799   0.2660028  )
        20        O      tau(  20) = (   0.1184398   0.3582958   0.3038353  )
        21        O      tau(  21) = (   0.1451572   0.8850881   0.5587578  )
        22        O      tau(  22) = (   0.4048762   0.7245585   0.0017492  )
        23        O      tau(  23) = (   0.3523506   0.1900579   0.0035744  )
        24        O      tau(  24) = (   0.1017610   0.3410484   0.5656572  )
        25        O      tau(  25) = (   0.0975396   0.5849288   0.4357922  )
        26        O      tau(  26) = (   0.3483552   1.0314945   0.1270322  )
        27        O      tau(  27) = (   0.3784305   0.4225118   0.4308928  )
        28        O      tau(  28) = (   0.1268237   0.1067944   0.1392744  )
        29        O      tau(  29) = (   0.1212267   0.6424170   0.1362896  )
        30        O      tau(  30) = (   0.4053315   0.4809387   0.1300622  )
        31        O      tau(  31) = (   0.1536621   0.0446918   0.4373386  )
        32        O      tau(  32) = (   0.3732349   0.9631717   0.4256642  )
        33        P      tau(  33) = (   0.7119823   0.9695974   0.4373010  )
        34        P      tau(  34) = (   0.9615208   0.6363392   0.1262932  )
        35        P      tau(  35) = (   0.7927710   0.0970060   0.1292164  )
        36        P      tau(  36) = (   0.5426404   0.4269675   0.4410738  )
        37        O      tau(  37) = (   0.6326879   0.8991182   0.3013240  )
        38        O      tau(  38) = (   0.8842163   0.7083206   0.2625155  )
        39        O      tau(  39) = (   0.8716178   0.1677751   0.2653504  )
        40        O      tau(  40) = (   0.6212010   0.3558666   0.3051085  )
        41        O      tau(  41) = (   0.6507714   0.8812342   0.5631722  )
        42        O      tau(  42) = (   0.9014054   0.7264458   0.0010676  )
        43        O      tau(  43) = (   0.8548963   0.1847909   0.0035471  )
        44        O      tau(  44) = (   0.6044469   0.3378706   0.5660366  )
        45        O      tau(  45) = (   0.6024424   0.5823140   0.4379016  )
        46        O      tau(  46) = (   0.8498940   1.0254482   0.1275156  )
        47        O      tau(  47) = (   0.8798395   0.4205825   0.4305771  )
        48        O      tau(  48) = (   0.6286921   0.1034636   0.1397346  )
        49        O      tau(  49) = (   0.6294973   0.6427753   0.1372553  )
        50        O      tau(  50) = (   0.9024339   0.4810312   0.1296418  )
        51        O      tau(  51) = (   0.6547812   0.0410987   0.4396636  )
        52        O      tau(  52) = (   0.8760507   0.9632605   0.4264507  )
        53        Mn     tau(  53) = (   0.2404744   0.8246335   0.7367378  )
        54        Ni     tau(  54) = (   0.4968126   0.7601755   1.0614423  )
        55        Ni     tau(  55) = (   0.0066150   0.2811828   0.7439929  )
        56        Ni     tau(  56) = (   0.2585722   0.2230943   1.0647725  )
        57        Ni     tau(  57) = (   0.9987350   1.0571496   0.9053803  )
        58        Ni     tau(  58) = (   0.2517397   0.5205596   0.9028199  )
        59        Ni     tau(  59) = (   0.7451645   0.8212628   0.7420628  )
        60        Ni     tau(  60) = (   0.9939181   0.7613889   1.0606471  )
        61        Ni     tau(  61) = (   0.5111533   0.2799173   0.7450742  )
        62        Ni     tau(  62) = (   0.7606326   0.2194352   1.0650249  )
        63        Ni     tau(  63) = (   0.5024065   1.0563218   0.9069379  )
        64        Ni     tau(  64) = (   0.7529977   0.5192985   0.9044104  )
        65        P      tau(  65) = (   0.2092944   0.9606182   1.0543912  )
        66        P      tau(  66) = (   0.4655727   0.6234620   0.7473512  )
        67        P      tau(  67) = (   0.2910699   0.0902448   0.7494974  )
        68        P      tau(  68) = (   0.0396216   0.4163480   1.0597715  )
        69        O      tau(  69) = (   0.1294378   0.8888345   0.9209495  )
        70        O      tau(  70) = (   0.3874505   0.6929859   0.8835880  )
        71        O      tau(  71) = (   0.3702540   0.1589885   0.8858904  )
        72        O      tau(  72) = (   0.1184398   0.3458043   0.9237230  )
        73        O      tau(  73) = (   0.1451572   0.8725966   1.1786454  )
        74        O      tau(  74) = (   0.4048762   0.7120670   0.6216369  )
        75        O      tau(  75) = (   0.3523506   0.1775664   0.6234620  )
        76        O      tau(  76) = (   0.1017610   0.3285569   1.1855448  )
        77        O      tau(  77) = (   0.0975396   0.5724373   1.0556799  )
        78        O      tau(  78) = (   0.3483552   1.0190030   0.7469198  )
        79        O      tau(  79) = (   0.3784305   0.4100203   1.0507804  )
        80        O      tau(  80) = (   0.1268237   0.0943029   0.7591620  )
        81        O      tau(  81) = (   0.1212267   0.6299255   0.7561772  )
        82        O      tau(  82) = (   0.4053315   0.4684472   0.7499499  )
        83        O      tau(  83) = (   0.1536621   0.0322003   1.0572263  )
        84        O      tau(  84) = (   0.3732349   0.9506802   1.0455518  )
        85        P      tau(  85) = (   0.7119823   0.9571059   1.0571887  )
        86        P      tau(  86) = (   0.9615208   0.6238477   0.7461808  )
        87        P      tau(  87) = (   0.7927710   0.0845145   0.7491041  )
        88        P      tau(  88) = (   0.5426404   0.4144760   1.0609615  )
        89        O      tau(  89) = (   0.6326879   0.8866267   0.9212117  )
        90        O      tau(  90) = (   0.8842163   0.6958291   0.8824032  )
        91        O      tau(  91) = (   0.8716178   0.1552836   0.8852381  )
        92        O      tau(  92) = (   0.6212010   0.3433751   0.9249961  )
        93        O      tau(  93) = (   0.6507714   0.8687427   1.1830599  )
        94        O      tau(  94) = (   0.9014054   0.7139543   0.6209553  )
        95        O      tau(  95) = (   0.8548963   0.1722994   0.6234348  )
        96        O      tau(  96) = (   0.6044469   0.3253792   1.1859242  )
        97        O      tau(  97) = (   0.6024424   0.5698225   1.0577892  )
        98        O      tau(  98) = (   0.8498940   1.0129567   0.7474033  )
        99        O      tau(  99) = (   0.8798395   0.4080910   1.0504647  )
       100        O      tau( 100) = (   0.6286921   0.0909721   0.7596222  )
       101        O      tau( 101) = (   0.6294973   0.6302838   0.7571429  )
       102        O      tau( 102) = (   0.9024339   0.4685397   0.7495295  )
       103        O      tau( 103) = (   0.6547812   0.0286072   1.0595512  )
       104        O      tau( 104) = (   0.8760507   0.9507690   1.0463383  )
       105        Mn     tau( 105) = (   0.2350290   0.8103679   1.3650506  )
       106        Ni     tau( 106) = (   0.5049839   0.7430999   1.6752764  )
       107        Ni     tau( 107) = (   0.0085805   0.2677647   1.3705110  )
       108        Ni     tau( 108) = (   0.2524821   0.2108176   1.6762258  )
       109        Ni     tau( 109) = (   1.0031726   1.0464924   1.5386166  )
       110        Ni     tau( 110) = (   0.2502641   0.5060972   1.5295441  )
       111        Ni     tau( 111) = (   0.7425850   0.8051724   1.3682278  )
       112        Ni     tau( 112) = (   1.0032085   0.7480271   1.6782163  )
       113        Ni     tau( 113) = (   0.5109976   0.2668978   1.3695351  )
       114        Ni     tau( 114) = (   0.7617415   0.2002392   1.7047113  )
       115        Ni     tau( 115) = (   0.5060216   1.0426794   1.5329327  )
       116        Ni     tau( 116) = (   0.7493328   0.5030112   1.5332002  )
       117        P      tau( 117) = (   0.2170385   0.9354274   1.6987551  )
       118        P      tau( 118) = (   0.4625170   0.6079979   1.3696033  )
       119        P      tau( 119) = (   0.2922201   0.0744200   1.3728508  )
       120        P      tau( 120) = (   0.0400598   0.4013821   1.6923063  )
       121        O      tau( 121) = (   0.1369468   0.8734395   1.5544031  )
       122        O      tau( 122) = (   0.3851774   0.6777302   1.5062583  )
       123        O      tau( 123) = (   0.3716472   0.1429275   1.5084559  )
       124        O      tau( 124) = (   0.1157488   0.3366312   1.5473574  )
       125        O      tau( 125) = (   0.1542130   0.8393226   1.8134166  )
       126        O      tau( 126) = (   0.4021706   0.6983945   1.2446547  )
       127        O      tau( 127) = (   0.3533289   0.1594101   1.2454731  )
       128        O      tau( 128) = (   0.1044058   0.3070241   1.8090384  )
       129        O      tau( 129) = (   0.0976985   0.5582927   1.6881977  )
       130        O      tau( 130) = (   0.3494544   0.9934681   1.3765809  )
       131        O      tau( 131) = (   0.3735391   0.3921348   1.6747224  )
       132        O      tau( 132) = (   0.1284883   0.0801717   1.3861992  )
       133        O      tau( 133) = (   0.1217502   0.6189932   1.3813335  )
       134        O      tau( 134) = (   0.4008873   0.4536035   1.3710220  )
       135        O      tau( 135) = (   0.1634732   0.0183502   1.6943209  )
       136        O      tau( 136) = (   0.3813891   0.9276213   1.6801305  )
       137        P      tau( 137) = (   0.7150844   0.9302027   1.6925865  )
       138        P      tau( 138) = (   0.9571586   0.6099361   1.3701799  )
       139        P      tau( 139) = (   0.7928795   0.0723778   1.3749960  )
       140        P      tau( 140) = (   0.5392015   0.3933707   1.6872906  )
       141        O      tau( 141) = (   0.6358909   0.8683612   1.5460897  )
       142        O      tau( 142) = (   0.8820169   0.6809509   1.5070208  )
       143        O      tau( 143) = (   0.8692965   0.1456252   1.5103227  )
       144        O      tau( 144) = (   0.6167143   0.3328777   1.5445489  )
       145        O      tau( 145) = (   0.6564412   0.8305094   1.8065650  )
       146        O      tau( 146) = (   0.8979416   0.6984778   1.2436101  )
       147        O      tau( 147) = (   0.8543451   0.1588252   1.2476080  )
       148        O      tau( 148) = (   0.5965398   0.2964012   1.8048314  )
       149        O      tau( 149) = (   0.5954090   0.5513693   1.6890606  )
       150        O      tau( 150) = (   0.8526781   0.9929277   1.3790312  )
       151        O      tau( 151) = (   0.8754039   0.3968396   1.6819451  )
       152        O      tau( 152) = (   0.6285753   0.0773142   1.3832806  )
       153        O      tau( 153) = (   0.6263328   0.6141238   1.3811389  )
       154        O      tau( 154) = (   0.9000707   0.4545516   1.3742938  )
       155        O      tau( 155) = (   0.6544929   0.0100088   1.6874901  )
       156        O      tau( 156) = (   0.8797765   0.9265630   1.6764488  )
       157        O      tau( 157) = (   0.8764291   0.1176518   1.8379936  )
       158        H      tau( 158) = (   0.9617023   0.1752091   1.8603235  )

     -------------------------------------------------
     Parameters for Dispersion (Grimme-D2) Correction:
     -------------------------------------------------
       atom      VdW radius       C_6     

        Ni         2.952        374.666
        Mn         2.952        374.666
        P          3.222        271.980
        O          2.536         24.284
        H          1.892          4.857

     number of k points=     1  Gaussian smearing, width (Ry)=  0.0100
                       cart. coord. in units 2pi/alat
        k(    1) = (   0.0000000   0.0000000   0.0000000), wk =   1.0000000

     Dense  grid:  1918138 G-vectors     FFT dimensions: ( 125, 135, 432)

     Smooth grid:   485265 G-vectors     FFT dimensions: (  80,  90, 288)

     Estimated max dynamical RAM per process >     320.12 MB

     Estimated total dynamical RAM >      20.01 GB
     Generating pointlists ...
     new r_m :   0.0801 (alat units)  1.4184 (a.u.) for type    1
     new r_m :   0.0869 (alat units)  1.5388 (a.u.) for type    2
     new r_m :   0.0650 (alat units)  1.1499 (a.u.) for type    3
     new r_m :   0.0434 (alat units)  0.7687 (a.u.) for type    4
     new r_m :   0.0434 (alat units)  0.7687 (a.u.) for type    5

     Initial potential from superposition of free atoms

     starting charge    1077.8900, renormalised to    1078.0000

     negative rho (up, down):  1.237E-03 4.519E-04
 
     Adding external electric field

     Computed dipole along edir(3) : 
        Dipole                1.6169 Ry au,          4.1098 Debye
        Dipole field          0.0010 Ry au, 
 
        Potential amp.       -0.1085 Ry
        Total length         54.2615 bohr
 
 
     Adding external electric field

     Computed dipole along edir(3) : 
        Dipole                1.6169 Ry au,          4.1098 Debye
        Dipole field          0.0010 Ry au, 
 
        Potential amp.       -0.1085 Ry
        Total length         54.2615 bohr
 
     Starting wfcs are  812 randomized atomic wfcs

     total cpu time spent up to now is       12.8 secs

     Self-consistent Calculation

     iteration #  1     ecut=    50.00 Ry     beta= 0.10
     Davidson diagonalization with overlap
     ethr =  1.00E-02,  avg # of iterations =  6.0

     negative rho (up, down):  3.335E-01 7.695E-07
 
     Adding external electric field

     Computed dipole along edir(3) : 
        Dipole               -3.3235 Ry au,         -8.4475 Debye
        Dipole field         -0.0021 Ry au, 
 
        Potential amp.        0.2231 Ry
        Total length         54.2615 bohr
 
 
     Adding external electric field

     Computed dipole along edir(3) : 
        Dipole               -3.3235 Ry au,         -8.4475 Debye
        Dipole field         -0.0021 Ry au, 
 
        Potential amp.        0.2231 Ry
        Total length         54.2615 bohr
 

     total cpu time spent up to now is       47.4 secs

     total energy              =   -7177.66209396 Ry
     estimated scf accuracy    <     756.93729507 Ry

     total magnetization       =   216.00 Bohr mag/cell
     absolute magnetization    =   296.62 Bohr mag/cell

     iteration #  2     ecut=    50.00 Ry     beta= 0.10
     Davidson diagonalization with overlap
     ethr =  1.00E-02,  avg # of iterations =  2.0

     negative rho (up, down):  3.151E-01 4.819E-07
 
     Adding external electric field

     Computed dipole along edir(3) : 
        Dipole               -2.2391 Ry au,         -5.6913 Debye
        Dipole field         -0.0014 Ry au, 
 
        Potential amp.        0.1503 Ry
        Total length         54.2615 bohr
 
 
     Adding external electric field

     Computed dipole along edir(3) : 
        Dipole               -2.2391 Ry au,         -5.6913 Debye
        Dipole field         -0.0014 Ry au, 
 
        Potential amp.        0.1503 Ry
        Total length         54.2615 bohr
 

     total cpu time spent up to now is       68.7 secs

     total energy              =   -7262.36254212 Ry
     estimated scf accuracy    <     196.06094584 Ry

     total magnetization       =   152.93 Bohr mag/cell
     absolute magnetization    =   202.05 Bohr mag/cell

     iteration #  3     ecut=    50.00 Ry     beta= 0.10
     Davidson diagonalization with overlap
     ethr =  1.00E-02,  avg # of iterations =  1.5

     negative rho (up, down):  2.794E-01 3.354E-07
 
     Adding external electric field

     Computed dipole along edir(3) : 
        Dipole               -1.9900 Ry au,         -5.0580 Debye
        Dipole field         -0.0012 Ry au, 
 
        Potential amp.        0.1336 Ry
        Total length         54.2615 bohr
 
 
     Adding external electric field

     Computed dipole along edir(3) : 
        Dipole               -1.9900 Ry au,         -5.0580 Debye
        Dipole field         -0.0012 Ry au, 
 
        Potential amp.        0.1336 Ry
        Total length         54.2615 bohr
 

     total cpu time spent up to now is       85.3 secs

     total energy              =   -7291.24904188 Ry
     estimated scf accuracy    <      95.73494841 Ry

     total magnetization       =   126.95 Bohr mag/cell
     absolute magnetization    =   180.24 Bohr mag/cell

     iteration #  4     ecut=    50.00 Ry     beta= 0.10
     Davidson diagonalization with overlap
     ethr =  8.88E-03,  avg # of iterations =  1.5

     negative rho (up, down):  2.054E-01 1.347E-08
 
     Adding external electric field

     Computed dipole along edir(3) : 
        Dipole               -1.8542 Ry au,         -4.7129 Debye
        Dipole field         -0.0011 Ry au, 
 
        Potential amp.        0.1244 Ry
        Total length         54.2615 bohr
 
 
     Adding external electric field

     Computed dipole along edir(3) : 
        Dipole               -1.8542 Ry au,         -4.7129 Debye
        Dipole field         -0.0011 Ry au, 
 
        Potential amp.        0.1244 Ry
        Total length         54.2615 bohr
 

     total cpu time spent up to now is      101.6 secs

     total energy              =   -7327.83048031 Ry
     estimated scf accuracy    <      79.48904559 Ry

     total magnetization       =   111.99 Bohr mag/cell
     absolute magnetization    =   166.14 Bohr mag/cell

     iteration #  5     ecut=    50.00 Ry     beta= 0.10
     Davidson diagonalization with overlap
     ethr =  7.37E-03,  avg # of iterations =  1.5

     negative rho (up, down):  1.069E-02 1.309E-06
 
     Adding external electric field

     Computed dipole along edir(3) : 
        Dipole               -1.3808 Ry au,         -3.5097 Debye
        Dipole field         -0.0009 Ry au, 
 
        Potential amp.        0.0927 Ry
        Total length         54.2615 bohr
 
 
     Adding external electric field

     Computed dipole along edir(3) : 
        Dipole               -1.3808 Ry au,         -3.5097 Debye
        Dipole field         -0.0009 Ry au, 
 
        Potential amp.        0.0927 Ry
        Total length         54.2615 bohr
 

     total cpu time spent up to now is      118.5 secs

     total energy              =   -7386.61743114 Ry
     estimated scf accuracy    <      60.59019096 Ry

     total magnetization       =    88.01 Bohr mag/cell
     absolute magnetization    =   145.86 Bohr mag/cell

     iteration #  6     ecut=    50.00 Ry     beta= 0.10
     Davidson diagonalization with overlap
     ethr =  5.62E-03,  avg # of iterations =  1.5

     negative rho (up, down):  4.922E-04 7.917E-04
 
     Adding external electric field

     Computed dipole along edir(3) : 
        Dipole               -1.0833 Ry au,         -2.7535 Debye
        Dipole field         -0.0007 Ry au, 
 
        Potential amp.        0.0727 Ry
        Total length         54.2615 bohr
 
 
     Adding external electric field

     Computed dipole along edir(3) : 
        Dipole               -1.0833 Ry au,         -2.7535 Debye
        Dipole field         -0.0007 Ry au, 
 
        Potential amp.        0.0727 Ry
        Total length         54.2615 bohr
 

     total cpu time spent up to now is      134.9 secs

     total energy              =   -7395.51153008 Ry
     estimated scf accuracy    <       9.17088167 Ry

     total magnetization       =    81.42 Bohr mag/cell
     absolute magnetization    =   114.64 Bohr mag/cell

     iteration #  7     ecut=    50.00 Ry     beta= 0.10
     Davidson diagonalization with overlap
     ethr =  8.51E-04,  avg # of iterations =  6.0

     negative rho (up, down):  5.049E-04 7.926E-04
 
     Adding external electric field

     Computed dipole along edir(3) : 
        Dipole               -1.0797 Ry au,         -2.7444 Debye
        Dipole field         -0.0007 Ry au, 
 
        Potential amp.        0.0725 Ry
        Total length         54.2615 bohr
 
 
     Adding external electric field

     Computed dipole along edir(3) : 
        Dipole               -1.0797 Ry au,         -2.7444 Debye
        Dipole field         -0.0007 Ry au, 
 
        Potential amp.        0.0725 Ry
        Total length         54.2615 bohr
 

     total cpu time spent up to now is      164.6 secs

     total energy              =   -7397.67096553 Ry
     estimated scf accuracy    <      11.62090323 Ry

     total magnetization       =    70.97 Bohr mag/cell
     absolute magnetization    =    88.24 Bohr mag/cell

     iteration #  8     ecut=    50.00 Ry     beta= 0.10
     Davidson diagonalization with overlap
     ethr =  8.51E-04,  avg # of iterations =  1.0

     negative rho (up, down):  3.292E-04 5.935E-04
 
     Adding external electric field

     Computed dipole along edir(3) : 
        Dipole               -1.0900 Ry au,         -2.7705 Debye
        Dipole field         -0.0007 Ry au, 
 
        Potential amp.        0.0732 Ry
        Total length         54.2615 bohr
 
 
     Adding external electric field

     Computed dipole along edir(3) : 
        Dipole               -1.0900 Ry au,         -2.7705 Debye
        Dipole field         -0.0007 Ry au, 
 
        Potential amp.        0.0732 Ry
        Total length         54.2615 bohr
 

     total cpu time spent up to now is      180.2 secs

     total energy              =   -7397.63934052 Ry
     estimated scf accuracy    <      11.93453844 Ry

     total magnetization       =    70.84 Bohr mag/cell
     absolute magnetization    =    87.80 Bohr mag/cell

     iteration #  9     ecut=    50.00 Ry     beta= 0.10
     Davidson diagonalization with overlap
     ethr =  8.51E-04,  avg # of iterations =  1.0

     negative rho (up, down):  2.180E-04 3.788E-04
 
     Adding external electric field

     Computed dipole along edir(3) : 
        Dipole               -1.0991 Ry au,         -2.7936 Debye
        Dipole field         -0.0007 Ry au, 
 
        Potential amp.        0.0738 Ry
        Total length         54.2615 bohr
 
 
     Adding external electric field

     Computed dipole along edir(3) : 
        Dipole               -1.0991 Ry au,         -2.7936 Debye
        Dipole field         -0.0007 Ry au, 
 
        Potential amp.        0.0738 Ry
        Total length         54.2615 bohr
 

     total cpu time spent up to now is      195.2 secs

     total energy              =   -7397.56302431 Ry
     estimated scf accuracy    <       9.24818917 Ry

     total magnetization       =    71.86 Bohr mag/cell
     absolute magnetization    =    87.95 Bohr mag/cell

     iteration # 10     ecut=    50.00 Ry     beta= 0.10
     Davidson diagonalization with overlap
     ethr =  8.51E-04,  avg # of iterations =  1.0

     negative rho (up, down):  2.347E-04 4.542E-04
 
     Adding external electric field

     Computed dipole along edir(3) : 
        Dipole               -1.2130 Ry au,         -3.0830 Debye
        Dipole field         -0.0008 Ry au, 
 
        Potential amp.        0.0814 Ry
        Total length         54.2615 bohr
 
 
     Adding external electric field

     Computed dipole along edir(3) : 
        Dipole               -1.2130 Ry au,         -3.0830 Debye
        Dipole field         -0.0008 Ry au, 
 
        Potential amp.        0.0814 Ry
        Total length         54.2615 bohr
 

     total cpu time spent up to now is      210.1 secs

     total energy              =   -7397.60293407 Ry
     estimated scf accuracy    <       6.65456139 Ry

     total magnetization       =    73.06 Bohr mag/cell
     absolute magnetization    =    87.58 Bohr mag/cell

     iteration # 11     ecut=    50.00 Ry     beta= 0.10
     Davidson diagonalization with overlap
     ethr =  6.17E-04,  avg # of iterations =  1.5

     negative rho (up, down):  1.698E-03 2.590E-03
 
     Adding external electric field

     Computed dipole along edir(3) : 
        Dipole               -1.3171 Ry au,         -3.3478 Debye
        Dipole field         -0.0008 Ry au, 
 
        Potential amp.        0.0884 Ry
        Total length         54.2615 bohr
 
 
     Adding external electric field

     Computed dipole along edir(3) : 
        Dipole               -1.3171 Ry au,         -3.3478 Debye
        Dipole field         -0.0008 Ry au, 
 
        Potential amp.        0.0884 Ry
        Total length         54.2615 bohr
 

     total cpu time spent up to now is      226.1 secs

     total energy              =   -7397.57360603 Ry
     estimated scf accuracy    <       5.07048837 Ry

     total magnetization       =    73.57 Bohr mag/cell
     absolute magnetization    =    87.17 Bohr mag/cell

     iteration # 12     ecut=    50.00 Ry     beta= 0.10
     Davidson diagonalization with overlap
     ethr =  4.70E-04,  avg # of iterations =  1.0

     negative rho (up, down):  1.821E-03 3.050E-03
 
     Adding external electric field

     Computed dipole along edir(3) : 
        Dipole               -1.3089 Ry au,         -3.3270 Debye
        Dipole field         -0.0008 Ry au, 
 
        Potential amp.        0.0878 Ry
        Total length         54.2615 bohr
 
 
     Adding external electric field

     Computed dipole along edir(3) : 
        Dipole               -1.3089 Ry au,         -3.3270 Debye
        Dipole field         -0.0008 Ry au, 
 
        Potential amp.        0.0878 Ry
        Total length         54.2615 bohr
 

     total cpu time spent up to now is      241.4 secs

     total energy              =   -7397.65881348 Ry
     estimated scf accuracy    <       2.23959426 Ry

     total magnetization       =    77.59 Bohr mag/cell
     absolute magnetization    =    88.82 Bohr mag/cell

     iteration # 13     ecut=    50.00 Ry     beta= 0.10
     Davidson diagonalization with overlap
     ethr =  2.08E-04,  avg # of iterations =  1.5

     negative rho (up, down):  4.950E-03 6.779E-03
 
     Adding external electric field

     Computed dipole along edir(3) : 
        Dipole               -1.4171 Ry au,         -3.6018 Debye
        Dipole field         -0.0009 Ry au, 
 
        Potential amp.        0.0951 Ry
        Total length         54.2615 bohr
 
 
     Adding external electric field

     Computed dipole along edir(3) : 
        Dipole               -1.4171 Ry au,         -3.6018 Debye
        Dipole field         -0.0009 Ry au, 
 
        Potential amp.        0.0951 Ry
        Total length         54.2615 bohr
 

     total cpu time spent up to now is      257.1 secs

     total energy              =   -7397.75036727 Ry
     estimated scf accuracy    <       1.77940927 Ry

     total magnetization       =    77.93 Bohr mag/cell
     absolute magnetization    =    88.61 Bohr mag/cell

     iteration # 14     ecut=    50.00 Ry     beta= 0.10
     Davidson diagonalization with overlap
     ethr =  1.65E-04,  avg # of iterations = 12.0

     negative rho (up, down):  1.619E-03 3.371E-03
 
     Adding external electric field

     Computed dipole along edir(3) : 
        Dipole               -1.3611 Ry au,         -3.4595 Debye
        Dipole field         -0.0008 Ry au, 
 
        Potential amp.        0.0913 Ry
        Total length         54.2615 bohr
 
 
     Adding external electric field

     Computed dipole along edir(3) : 
        Dipole               -1.3611 Ry au,         -3.4595 Debye
        Dipole field         -0.0008 Ry au, 
 
        Potential amp.        0.0913 Ry
        Total length         54.2615 bohr
 

     total cpu time spent up to now is      287.0 secs

     total energy              =   -7397.75992625 Ry
     estimated scf accuracy    <       0.70566967 Ry

     total magnetization       =    81.59 Bohr mag/cell
     absolute magnetization    =    89.39 Bohr mag/cell

     iteration # 15     ecut=    50.00 Ry     beta= 0.10
     Davidson diagonalization with overlap
     ethr =  6.55E-05,  avg # of iterations =  2.0

     negative rho (up, down):  6.994E-04 1.596E-03
 
     Adding external electric field

     Computed dipole along edir(3) : 
        Dipole               -1.3766 Ry au,         -3.4990 Debye
        Dipole field         -0.0009 Ry au, 
 
        Potential amp.        0.0924 Ry
        Total length         54.2615 bohr
 
 
     Adding external electric field

     Computed dipole along edir(3) : 
        Dipole               -1.3766 Ry au,         -3.4990 Debye
        Dipole field         -0.0009 Ry au, 
 
        Potential amp.        0.0924 Ry
        Total length         54.2615 bohr
 

     total cpu time spent up to now is      304.3 secs

     total energy              =   -7397.82148997 Ry
     estimated scf accuracy    <       0.45532963 Ry

     total magnetization       =    79.86 Bohr mag/cell
     absolute magnetization    =    87.86 Bohr mag/cell

     iteration # 16     ecut=    50.00 Ry     beta= 0.10
     Davidson diagonalization with overlap
     ethr =  4.22E-05,  avg # of iterations =  3.0

     negative rho (up, down):  1.839E-04 2.408E-04
 
     Adding external electric field

     Computed dipole along edir(3) : 
        Dipole               -1.3592 Ry au,         -3.4548 Debye
        Dipole field         -0.0008 Ry au, 
 
        Potential amp.        0.0912 Ry
        Total length         54.2615 bohr
 
 
     Adding external electric field

     Computed dipole along edir(3) : 
        Dipole               -1.3592 Ry au,         -3.4548 Debye
        Dipole field         -0.0008 Ry au, 
 
        Potential amp.        0.0912 Ry
        Total length         54.2615 bohr
 

     total cpu time spent up to now is      322.2 secs

     total energy              =   -7397.91793375 Ry
     estimated scf accuracy    <       0.58181879 Ry

     total magnetization       =    79.66 Bohr mag/cell
     absolute magnetization    =    87.12 Bohr mag/cell

     iteration # 17     ecut=    50.00 Ry     beta= 0.10
     Davidson diagonalization with overlap
     ethr =  4.22E-05,  avg # of iterations =  3.0

     negative rho (up, down):  3.225E-05 4.261E-05
 
     Adding external electric field

     Computed dipole along edir(3) : 
        Dipole               -1.2389 Ry au,         -3.1490 Debye
        Dipole field         -0.0008 Ry au, 
 
        Potential amp.        0.0831 Ry
        Total length         54.2615 bohr
 
 
     Adding external electric field

     Computed dipole along edir(3) : 
        Dipole               -1.2389 Ry au,         -3.1490 Debye
        Dipole field         -0.0008 Ry au, 
 
        Potential amp.        0.0831 Ry
        Total length         54.2615 bohr
 

     total cpu time spent up to now is      339.8 secs

     total energy              =   -7397.98388096 Ry
     estimated scf accuracy    <       0.38337957 Ry

     total magnetization       =    80.63 Bohr mag/cell
     absolute magnetization    =    86.60 Bohr mag/cell

     iteration # 18     ecut=    50.00 Ry     beta= 0.10
     Davidson diagonalization with overlap
     ethr =  3.56E-05,  avg # of iterations =  3.0

     negative rho (up, down):  5.048E-08 3.208E-06
 
     Adding external electric field

     Computed dipole along edir(3) : 
        Dipole               -1.0063 Ry au,         -2.5577 Debye
        Dipole field         -0.0006 Ry au, 
 
        Potential amp.        0.0675 Ry
        Total length         54.2615 bohr
 
 
     Adding external electric field

     Computed dipole along edir(3) : 
        Dipole               -1.0063 Ry au,         -2.5577 Debye
        Dipole field         -0.0006 Ry au, 
 
        Potential amp.        0.0675 Ry
        Total length         54.2615 bohr
 

     total cpu time spent up to now is      357.7 secs

     total energy              =   -7398.01696793 Ry
     estimated scf accuracy    <       0.20888164 Ry

     total magnetization       =    81.03 Bohr mag/cell
     absolute magnetization    =    85.41 Bohr mag/cell

     iteration # 19     ecut=    50.00 Ry     beta= 0.10
     Davidson diagonalization with overlap
     c_bands:  1 eigenvalues not converged
     c_bands:  5 eigenvalues not converged
     ethr =  1.94E-05,  avg # of iterations = 20.0

     negative rho (up, down):  1.273E-07 1.461E-05
 
     Adding external electric field

     Computed dipole along edir(3) : 
        Dipole               -0.9933 Ry au,         -2.5248 Debye
        Dipole field         -0.0006 Ry au, 
 
        Potential amp.        0.0667 Ry
        Total length         54.2615 bohr
 
 
     Adding external electric field

     Computed dipole along edir(3) : 
        Dipole               -0.9933 Ry au,         -2.5248 Debye
        Dipole field         -0.0006 Ry au, 
 
        Potential amp.        0.0667 Ry
        Total length         54.2615 bohr
 

     total cpu time spent up to now is      396.8 secs

     total energy              =   -7398.03188203 Ry
     estimated scf accuracy    <       0.26856151 Ry

     total magnetization       =    80.56 Bohr mag/cell
     absolute magnetization    =    82.95 Bohr mag/cell

     iteration # 20     ecut=    50.00 Ry     beta= 0.10
     Davidson diagonalization with overlap
     ethr =  1.94E-05,  avg # of iterations =  1.0

     negative rho (up, down):  5.023E-07 1.394E-05
 
     Adding external electric field

     Computed dipole along edir(3) : 
        Dipole               -1.0003 Ry au,         -2.5424 Debye
        Dipole field         -0.0006 Ry au, 
 
        Potential amp.        0.0671 Ry
        Total length         54.2615 bohr
 
 
     Adding external electric field

     Computed dipole along edir(3) : 
        Dipole               -1.0003 Ry au,         -2.5424 Debye
        Dipole field         -0.0006 Ry au, 
 
        Potential amp.        0.0671 Ry
        Total length         54.2615 bohr
 

     total cpu time spent up to now is      411.7 secs

     total energy              =   -7398.03533991 Ry
     estimated scf accuracy    <       0.15753247 Ry

     total magnetization       =    80.45 Bohr mag/cell
     absolute magnetization    =    82.64 Bohr mag/cell

     iteration # 21     ecut=    50.00 Ry     beta= 0.10
     Davidson diagonalization with overlap
     ethr =  1.46E-05,  avg # of iterations =  1.0

     negative rho (up, down):  2.542E-05 7.742E-05
 
     Adding external electric field

     Computed dipole along edir(3) : 
        Dipole               -0.8549 Ry au,         -2.1731 Debye
        Dipole field         -0.0005 Ry au, 
 
        Potential amp.        0.0574 Ry
        Total length         54.2615 bohr
 
 
     Adding external electric field

     Computed dipole along edir(3) : 
        Dipole               -0.8549 Ry au,         -2.1731 Debye
        Dipole field         -0.0005 Ry au, 
 
        Potential amp.        0.0574 Ry
        Total length         54.2615 bohr
 

     total cpu time spent up to now is      426.7 secs

     total energy              =   -7398.03497527 Ry
     estimated scf accuracy    <       0.08644256 Ry

     total magnetization       =    80.57 Bohr mag/cell
     absolute magnetization    =    82.73 Bohr mag/cell

     iteration # 22     ecut=    50.00 Ry     beta= 0.10
     Davidson diagonalization with overlap
     ethr =  8.02E-06,  avg # of iterations =  2.0

     negative rho (up, down):  1.960E-05 6.343E-05
 
     Adding external electric field

     Computed dipole along edir(3) : 
        Dipole               -0.8497 Ry au,         -2.1596 Debye
        Dipole field         -0.0005 Ry au, 
 
        Potential amp.        0.0570 Ry
        Total length         54.2615 bohr
 
 
     Adding external electric field

     Computed dipole along edir(3) : 
        Dipole               -0.8497 Ry au,         -2.1596 Debye
        Dipole field         -0.0005 Ry au, 
 
        Potential amp.        0.0570 Ry
        Total length         54.2615 bohr
 

     total cpu time spent up to now is      443.7 secs

     total energy              =   -7398.04013975 Ry
     estimated scf accuracy    <       0.19618639 Ry

     total magnetization       =    80.05 Bohr mag/cell
     absolute magnetization    =    81.65 Bohr mag/cell

     iteration # 23     ecut=    50.00 Ry     beta= 0.10
     Davidson diagonalization with overlap
     ethr =  8.02E-06,  avg # of iterations =  1.0

     negative rho (up, down):  1.828E-05 6.737E-05
 
     Adding external electric field

     Computed dipole along edir(3) : 
        Dipole               -0.8242 Ry au,         -2.0950 Debye
        Dipole field         -0.0005 Ry au, 
 
        Potential amp.        0.0553 Ry
        Total length         54.2615 bohr
 
 
     Adding external electric field

     Computed dipole along edir(3) : 
        Dipole               -0.8242 Ry au,         -2.0950 Debye
        Dipole field         -0.0005 Ry au, 
 
        Potential amp.        0.0553 Ry
        Total length         54.2615 bohr
 

     total cpu time spent up to now is      458.3 secs

     total energy              =   -7398.03869131 Ry
     estimated scf accuracy    <       0.17946870 Ry

     total magnetization       =    80.18 Bohr mag/cell
     absolute magnetization    =    81.74 Bohr mag/cell

     iteration # 24     ecut=    50.00 Ry     beta= 0.10
     Davidson diagonalization with overlap
     ethr =  8.02E-06,  avg # of iterations =  1.0

     negative rho (up, down):  2.096E-05 7.907E-05
 
     Adding external electric field

     Computed dipole along edir(3) : 
        Dipole               -0.8219 Ry au,         -2.0891 Debye
        Dipole field         -0.0005 Ry au, 
 
        Potential amp.        0.0552 Ry
        Total length         54.2615 bohr
 
 
     Adding external electric field

     Computed dipole along edir(3) : 
        Dipole               -0.8219 Ry au,         -2.0891 Debye
        Dipole field         -0.0005 Ry au, 
 
        Potential amp.        0.0552 Ry
        Total length         54.2615 bohr
 

     total cpu time spent up to now is      473.3 secs

     total energy              =   -7398.03898006 Ry
     estimated scf accuracy    <       0.11439477 Ry

     total magnetization       =    80.19 Bohr mag/cell
     absolute magnetization    =    81.68 Bohr mag/cell

     iteration # 25     ecut=    50.00 Ry     beta= 0.10
     Davidson diagonalization with overlap
     ethr =  8.02E-06,  avg # of iterations =  1.0

     negative rho (up, down):  1.534E-05 5.777E-05
 
     Adding external electric field

     Computed dipole along edir(3) : 
        Dipole               -0.7963 Ry au,         -2.0240 Debye
        Dipole field         -0.0005 Ry au, 
 
        Potential amp.        0.0534 Ry
        Total length         54.2615 bohr
 
 
     Adding external electric field

     Computed dipole along edir(3) : 
        Dipole               -0.7963 Ry au,         -2.0240 Debye
        Dipole field         -0.0005 Ry au, 
 
        Potential amp.        0.0534 Ry
        Total length         54.2615 bohr
 

     total cpu time spent up to now is      488.3 secs

     total energy              =   -7398.03893014 Ry
     estimated scf accuracy    <       0.09735177 Ry

     total magnetization       =    80.08 Bohr mag/cell
     absolute magnetization    =    81.56 Bohr mag/cell

     iteration # 26     ecut=    50.00 Ry     beta= 0.10
     Davidson diagonalization with overlap
     ethr =  8.02E-06,  avg # of iterations =  1.0

     negative rho (up, down):  3.663E-05 6.750E-05
 
     Adding external electric field

     Computed dipole along edir(3) : 
        Dipole               -0.7491 Ry au,         -1.9041 Debye
        Dipole field         -0.0005 Ry au, 
 
        Potential amp.        0.0503 Ry
        Total length         54.2615 bohr
 
 
     Adding external electric field

     Computed dipole along edir(3) : 
        Dipole               -0.7491 Ry au,         -1.9041 Debye
        Dipole field         -0.0005 Ry au, 
 
        Potential amp.        0.0503 Ry
        Total length         54.2615 bohr
 

     total cpu time spent up to now is      503.2 secs

     total energy              =   -7398.03853078 Ry
     estimated scf accuracy    <       0.08438018 Ry

     total magnetization       =    80.23 Bohr mag/cell
     absolute magnetization    =    81.66 Bohr mag/cell

     iteration # 27     ecut=    50.00 Ry     beta= 0.10
     Davidson diagonalization with overlap
     ethr =  7.83E-06,  avg # of iterations =  1.0

     negative rho (up, down):  2.340E-05 4.114E-05
 
     Adding external electric field

     Computed dipole along edir(3) : 
        Dipole               -0.7391 Ry au,         -1.8787 Debye
        Dipole field         -0.0005 Ry au, 
 
        Potential amp.        0.0496 Ry
        Total length         54.2615 bohr
 
 
     Adding external electric field

     Computed dipole along edir(3) : 
        Dipole               -0.7391 Ry au,         -1.8787 Debye
        Dipole field         -0.0005 Ry au, 
 
        Potential amp.        0.0496 Ry
        Total length         54.2615 bohr
 

     total cpu time spent up to now is      518.2 secs

     total energy              =   -7398.03890001 Ry
     estimated scf accuracy    <       0.05187257 Ry

     total magnetization       =    80.35 Bohr mag/cell
     absolute magnetization    =    81.71 Bohr mag/cell

     iteration # 28     ecut=    50.00 Ry     beta= 0.10
     Davidson diagonalization with overlap
     ethr =  4.81E-06,  avg # of iterations =  1.0

     negative rho (up, down):  1.334E-06 2.596E-06
 
     Adding external electric field

     Computed dipole along edir(3) : 
        Dipole               -0.7129 Ry au,         -1.8120 Debye
        Dipole field         -0.0004 Ry au, 
 
        Potential amp.        0.0478 Ry
        Total length         54.2615 bohr
 
 
     Adding external electric field

     Computed dipole along edir(3) : 
        Dipole               -0.7129 Ry au,         -1.8120 Debye
        Dipole field         -0.0004 Ry au, 
 
        Potential amp.        0.0478 Ry
        Total length         54.2615 bohr
 

     total cpu time spent up to now is      532.7 secs

     total energy              =   -7398.03915430 Ry
     estimated scf accuracy    <       0.03516287 Ry

     total magnetization       =    80.38 Bohr mag/cell
     absolute magnetization    =    81.76 Bohr mag/cell

     iteration # 29     ecut=    50.00 Ry     beta= 0.10
     Davidson diagonalization with overlap
     ethr =  3.26E-06,  avg # of iterations =  1.5

     negative rho (up, down):  1.346E-06 1.847E-06
 
     Adding external electric field

     Computed dipole along edir(3) : 
        Dipole               -0.6352 Ry au,         -1.6146 Debye
        Dipole field         -0.0004 Ry au, 
 
        Potential amp.        0.0426 Ry
        Total length         54.2615 bohr
 
 
     Adding external electric field

     Computed dipole along edir(3) : 
        Dipole               -0.6352 Ry au,         -1.6146 Debye
        Dipole field         -0.0004 Ry au, 
 
        Potential amp.        0.0426 Ry
        Total length         54.2615 bohr
 

     total cpu time spent up to now is      547.9 secs

     total energy              =   -7398.03880112 Ry
     estimated scf accuracy    <       0.03243033 Ry

     total magnetization       =    80.47 Bohr mag/cell
     absolute magnetization    =    81.92 Bohr mag/cell

     iteration # 30     ecut=    50.00 Ry     beta= 0.10
     Davidson diagonalization with overlap
     ethr =  3.01E-06,  avg # of iterations =  2.0

     negative rho (up, down):  3.876E-06 4.373E-06
 
     Adding external electric field

     Computed dipole along edir(3) : 
        Dipole               -0.6123 Ry au,         -1.5562 Debye
        Dipole field         -0.0004 Ry au, 
 
        Potential amp.        0.0411 Ry
        Total length         54.2615 bohr
 
 
     Adding external electric field

     Computed dipole along edir(3) : 
        Dipole               -0.6123 Ry au,         -1.5562 Debye
        Dipole field         -0.0004 Ry au, 
 
        Potential amp.        0.0411 Ry
        Total length         54.2615 bohr
 

     total cpu time spent up to now is      564.5 secs

     total energy              =   -7398.03874021 Ry
     estimated scf accuracy    <       0.04343324 Ry

     total magnetization       =    80.39 Bohr mag/cell
     absolute magnetization    =    81.89 Bohr mag/cell

     iteration # 31     ecut=    50.00 Ry     beta= 0.10
     Davidson diagonalization with overlap
     ethr =  3.01E-06,  avg # of iterations =  2.0

     negative rho (up, down):  4.080E-06 1.850E-06
 
     Adding external electric field

     Computed dipole along edir(3) : 
        Dipole               -0.6413 Ry au,         -1.6300 Debye
        Dipole field         -0.0004 Ry au, 
 
        Potential amp.        0.0430 Ry
        Total length         54.2615 bohr
 
 
     Adding external electric field

     Computed dipole along edir(3) : 
        Dipole               -0.6413 Ry au,         -1.6300 Debye
        Dipole field         -0.0004 Ry au, 
 
        Potential amp.        0.0430 Ry
        Total length         54.2615 bohr
 

     total cpu time spent up to now is      581.1 secs

     total energy              =   -7398.03865473 Ry
     estimated scf accuracy    <       0.04027908 Ry

     total magnetization       =    80.40 Bohr mag/cell
     absolute magnetization    =    81.88 Bohr mag/cell

     iteration # 32     ecut=    50.00 Ry     beta= 0.10
     Davidson diagonalization with overlap
     ethr =  3.01E-06,  avg # of iterations =  2.0

     negative rho (up, down):  5.649E-05 4.660E-05
 
     Adding external electric field

     Computed dipole along edir(3) : 
        Dipole               -0.6077 Ry au,         -1.5446 Debye
        Dipole field         -0.0004 Ry au, 
 
        Potential amp.        0.0408 Ry
        Total length         54.2615 bohr
 
 
     Adding external electric field

     Computed dipole along edir(3) : 
        Dipole               -0.6077 Ry au,         -1.5446 Debye
        Dipole field         -0.0004 Ry au, 
 
        Potential amp.        0.0408 Ry
        Total length         54.2615 bohr
 

     total cpu time spent up to now is      597.9 secs

     total energy              =   -7398.03847200 Ry
     estimated scf accuracy    <       0.02674473 Ry

     total magnetization       =    80.48 Bohr mag/cell
     absolute magnetization    =    81.99 Bohr mag/cell

     iteration # 33     ecut=    50.00 Ry     beta= 0.10
     Davidson diagonalization with overlap
     ethr =  2.48E-06,  avg # of iterations =  2.0

     negative rho (up, down):  1.424E-03 1.496E-03
 
     Adding external electric field

     Computed dipole along edir(3) : 
        Dipole               -0.5485 Ry au,         -1.3941 Debye
        Dipole field         -0.0003 Ry au, 
 
        Potential amp.        0.0368 Ry
        Total length         54.2615 bohr
 
 
     Adding external electric field

     Computed dipole along edir(3) : 
        Dipole               -0.5485 Ry au,         -1.3941 Debye
        Dipole field         -0.0003 Ry au, 
 
        Potential amp.        0.0368 Ry
        Total length         54.2615 bohr
 

     total cpu time spent up to now is      614.3 secs

     total energy              =   -7398.03751222 Ry
     estimated scf accuracy    <       0.02497255 Ry

     total magnetization       =    80.47 Bohr mag/cell
     absolute magnetization    =    81.98 Bohr mag/cell

     iteration # 34     ecut=    50.00 Ry     beta= 0.10
     Davidson diagonalization with overlap
     ethr =  2.32E-06,  avg # of iterations =  9.0

     negative rho (up, down):  2.000E-03 1.992E-03
 
     Adding external electric field

     Computed dipole along edir(3) : 
        Dipole               -0.5263 Ry au,         -1.3377 Debye
        Dipole field         -0.0003 Ry au, 
 
        Potential amp.        0.0353 Ry
        Total length         54.2615 bohr
 
 
     Adding external electric field

     Computed dipole along edir(3) : 
        Dipole               -0.5263 Ry au,         -1.3377 Debye
        Dipole field         -0.0003 Ry au, 
 
        Potential amp.        0.0353 Ry
        Total length         54.2615 bohr
 

     total cpu time spent up to now is      635.4 secs

     total energy              =   -7398.03716478 Ry
     estimated scf accuracy    <       0.02096433 Ry

     total magnetization       =    80.50 Bohr mag/cell
     absolute magnetization    =    82.04 Bohr mag/cell

     iteration # 35     ecut=    50.00 Ry     beta= 0.10
     Davidson diagonalization with overlap
     ethr =  1.94E-06,  avg # of iterations =  2.0

     negative rho (up, down):  4.201E-03 4.097E-03
 
     Adding external electric field

     Computed dipole along edir(3) : 
        Dipole               -0.4218 Ry au,         -1.0722 Debye
        Dipole field         -0.0003 Ry au, 
 
        Potential amp.        0.0283 Ry
        Total length         54.2615 bohr
 
 
     Adding external electric field

     Computed dipole along edir(3) : 
        Dipole               -0.4218 Ry au,         -1.0722 Debye
        Dipole field         -0.0003 Ry au, 
 
        Potential amp.        0.0283 Ry
        Total length         54.2615 bohr
 

     total cpu time spent up to now is      652.3 secs

     total energy              =   -7398.03604342 Ry
     estimated scf accuracy    <       0.01732032 Ry

     total magnetization       =    80.55 Bohr mag/cell
     absolute magnetization    =    82.06 Bohr mag/cell

     iteration # 36     ecut=    50.00 Ry     beta= 0.10
     Davidson diagonalization with overlap
     c_bands:  3 eigenvalues not converged
     ethr =  1.61E-06,  avg # of iterations = 11.0

     negative rho (up, down):  1.643E-03 1.499E-03
 
     Adding external electric field

     Computed dipole along edir(3) : 
        Dipole               -0.4293 Ry au,         -1.0912 Debye
        Dipole field         -0.0003 Ry au, 
 
        Potential amp.        0.0288 Ry
        Total length         54.2615 bohr
 
 
     Adding external electric field

     Computed dipole along edir(3) : 
        Dipole               -0.4293 Ry au,         -1.0912 Debye
        Dipole field         -0.0003 Ry au, 
 
        Potential amp.        0.0288 Ry
        Total length         54.2615 bohr
 

     total cpu time spent up to now is      676.2 secs

     total energy              =   -7398.03592247 Ry
     estimated scf accuracy    <       0.01403488 Ry

     total magnetization       =    80.55 Bohr mag/cell
     absolute magnetization    =    81.99 Bohr mag/cell

     iteration # 37     ecut=    50.00 Ry     beta= 0.10
     Davidson diagonalization with overlap
     ethr =  1.30E-06,  avg # of iterations =  2.5

     negative rho (up, down):  1.715E-04 1.273E-04
 
     Adding external electric field

     Computed dipole along edir(3) : 
        Dipole               -0.3691 Ry au,         -0.9382 Debye
        Dipole field         -0.0002 Ry au, 
 
        Potential amp.        0.0248 Ry
        Total length         54.2615 bohr
 
 
     Adding external electric field

     Computed dipole along edir(3) : 
        Dipole               -0.3691 Ry au,         -0.9382 Debye
        Dipole field         -0.0002 Ry au, 
 
        Potential amp.        0.0248 Ry
        Total length         54.2615 bohr
 

     total cpu time spent up to now is      693.2 secs

     total energy              =   -7398.03575108 Ry
     estimated scf accuracy    <       0.01175945 Ry

     total magnetization       =    80.54 Bohr mag/cell
     absolute magnetization    =    81.96 Bohr mag/cell

     iteration # 38     ecut=    50.00 Ry     beta= 0.10
     Davidson diagonalization with overlap
     ethr =  1.09E-06,  avg # of iterations =  3.0

     negative rho (up, down):  2.193E-04 1.763E-04
 
     Adding external electric field

     Computed dipole along edir(3) : 
        Dipole               -0.3116 Ry au,         -0.7920 Debye
        Dipole field         -0.0002 Ry au, 
 
        Potential amp.        0.0209 Ry
        Total length         54.2615 bohr
 
 
     Adding external electric field

     Computed dipole along edir(3) : 
        Dipole               -0.3116 Ry au,         -0.7920 Debye
        Dipole field         -0.0002 Ry au, 
 
        Potential amp.        0.0209 Ry
        Total length         54.2615 bohr
 

     total cpu time spent up to now is      710.6 secs

     total energy              =   -7398.03598536 Ry
     estimated scf accuracy    <       0.00667543 Ry

     total magnetization       =    80.55 Bohr mag/cell
     absolute magnetization    =    81.99 Bohr mag/cell

     iteration # 39     ecut=    50.00 Ry     beta= 0.10
     Davidson diagonalization with overlap
     ethr =  6.19E-07,  avg # of iterations =  2.0

     negative rho (up, down):  2.238E-04 1.735E-04
 
     Adding external electric field

     Computed dipole along edir(3) : 
        Dipole               -0.2828 Ry au,         -0.7188 Debye
        Dipole field         -0.0002 Ry au, 
 
        Potential amp.        0.0190 Ry
        Total length         54.2615 bohr
 
 
     Adding external electric field

     Computed dipole along edir(3) : 
        Dipole               -0.2828 Ry au,         -0.7188 Debye
        Dipole field         -0.0002 Ry au, 
 
        Potential amp.        0.0190 Ry
        Total length         54.2615 bohr
 

     total cpu time spent up to now is      727.3 secs

     total energy              =   -7398.03596206 Ry
     estimated scf accuracy    <       0.00514842 Ry

     total magnetization       =    80.54 Bohr mag/cell
     absolute magnetization    =    82.06 Bohr mag/cell

     iteration # 40     ecut=    50.00 Ry     beta= 0.10
     Davidson diagonalization with overlap
     ethr =  4.78E-07,  avg # of iterations =  5.0

     negative rho (up, down):  5.127E-04 4.490E-04
 
     Adding external electric field

     Computed dipole along edir(3) : 
        Dipole               -0.2610 Ry au,         -0.6635 Debye
        Dipole field         -0.0002 Ry au, 
 
        Potential amp.        0.0175 Ry
        Total length         54.2615 bohr
 
 
     Adding external electric field

     Computed dipole along edir(3) : 
        Dipole               -0.2610 Ry au,         -0.6635 Debye
        Dipole field         -0.0002 Ry au, 
 
        Potential amp.        0.0175 Ry
        Total length         54.2615 bohr
 

     total cpu time spent up to now is      745.5 secs

     total energy              =   -7398.03595475 Ry
     estimated scf accuracy    <       0.00395013 Ry

     total magnetization       =    80.52 Bohr mag/cell
     absolute magnetization    =    82.11 Bohr mag/cell

     iteration # 41     ecut=    50.00 Ry     beta= 0.10
     Davidson diagonalization with overlap
     ethr =  3.66E-07,  avg # of iterations = 16.5

     negative rho (up, down):  1.424E-03 1.382E-03
 
     Adding external electric field

     Computed dipole along edir(3) : 
        Dipole               -0.2231 Ry au,         -0.5670 Debye
        Dipole field         -0.0001 Ry au, 
 
        Potential amp.        0.0150 Ry
        Total length         54.2615 bohr
 
 
     Adding external electric field

     Computed dipole along edir(3) : 
        Dipole               -0.2231 Ry au,         -0.5670 Debye
        Dipole field         -0.0001 Ry au, 
 
        Potential amp.        0.0150 Ry
        Total length         54.2615 bohr
 

     total cpu time spent up to now is      778.5 secs

     total energy              =   -7398.03603480 Ry
     estimated scf accuracy    <       0.00322477 Ry

     total magnetization       =    80.51 Bohr mag/cell
     absolute magnetization    =    82.11 Bohr mag/cell

     iteration # 42     ecut=    50.00 Ry     beta= 0.10
     Davidson diagonalization with overlap
     ethr =  2.99E-07,  avg # of iterations =  2.5

     negative rho (up, down):  4.731E-04 3.828E-04
 
     Adding external electric field

     Computed dipole along edir(3) : 
        Dipole               -0.1952 Ry au,         -0.4961 Debye
        Dipole field         -0.0001 Ry au, 
 
        Potential amp.        0.0131 Ry
        Total length         54.2615 bohr
 
 
     Adding external electric field

     Computed dipole along edir(3) : 
        Dipole               -0.1952 Ry au,         -0.4961 Debye
        Dipole field         -0.0001 Ry au, 
 
        Potential amp.        0.0131 Ry
        Total length         54.2615 bohr
 

     total cpu time spent up to now is      795.9 secs

     total energy              =   -7398.03600841 Ry
     estimated scf accuracy    <       0.00237515 Ry

     total magnetization       =    80.48 Bohr mag/cell
     absolute magnetization    =    82.07 Bohr mag/cell

     iteration # 43     ecut=    50.00 Ry     beta= 0.10
     Davidson diagonalization with overlap
     ethr =  2.20E-07,  avg # of iterations =  2.0

     negative rho (up, down):  2.654E-03 2.686E-03
 
     Adding external electric field

     Computed dipole along edir(3) : 
        Dipole               -0.1588 Ry au,         -0.4037 Debye
        Dipole field         -0.0001 Ry au, 
 
        Potential amp.        0.0107 Ry
        Total length         54.2615 bohr
 
 
     Adding external electric field

     Computed dipole along edir(3) : 
        Dipole               -0.1588 Ry au,         -0.4037 Debye
        Dipole field         -0.0001 Ry au, 
 
        Potential amp.        0.0107 Ry
        Total length         54.2615 bohr
 

     total cpu time spent up to now is      813.1 secs

     total energy              =   -7398.03603639 Ry
     estimated scf accuracy    <       0.00177844 Ry

     total magnetization       =    80.45 Bohr mag/cell
     absolute magnetization    =    81.99 Bohr mag/cell

     iteration # 44     ecut=    50.00 Ry     beta= 0.10
     Davidson diagonalization with overlap
     ethr =  1.65E-07,  avg # of iterations =  2.0

     negative rho (up, down):  4.333E-03 4.442E-03
 
     Adding external electric field

     Computed dipole along edir(3) : 
        Dipole               -0.1386 Ry au,         -0.3523 Debye
        Dipole field         -0.0001 Ry au, 
 
        Potential amp.        0.0093 Ry
        Total length         54.2615 bohr
 
 
     Adding external electric field

     Computed dipole along edir(3) : 
        Dipole               -0.1386 Ry au,         -0.3523 Debye
        Dipole field         -0.0001 Ry au, 
 
        Potential amp.        0.0093 Ry
        Total length         54.2615 bohr
 

     total cpu time spent up to now is      829.9 secs

     total energy              =   -7398.03607541 Ry
     estimated scf accuracy    <       0.00121580 Ry

     total magnetization       =    80.44 Bohr mag/cell
     absolute magnetization    =    81.94 Bohr mag/cell

     iteration # 45     ecut=    50.00 Ry     beta= 0.10
     Davidson diagonalization with overlap
     ethr =  1.13E-07,  avg # of iterations =  2.0

     negative rho (up, down):  1.284E-03 1.016E-03
 
     Adding external electric field

     Computed dipole along edir(3) : 
        Dipole               -0.1631 Ry au,         -0.4147 Debye
        Dipole field         -0.0001 Ry au, 
 
        Potential amp.        0.0109 Ry
        Total length         54.2615 bohr
 
 
     Adding external electric field

     Computed dipole along edir(3) : 
        Dipole               -0.1631 Ry au,         -0.4147 Debye
        Dipole field         -0.0001 Ry au, 
 
        Potential amp.        0.0109 Ry
        Total length         54.2615 bohr
 

     total cpu time spent up to now is      846.5 secs

     total energy              =   -7398.03601801 Ry
     estimated scf accuracy    <       0.00081242 Ry

     total magnetization       =    80.44 Bohr mag/cell
     absolute magnetization    =    81.92 Bohr mag/cell

     iteration # 46     ecut=    50.00 Ry     beta= 0.10
     Davidson diagonalization with overlap
     ethr =  7.54E-08,  avg # of iterations =  2.0

     negative rho (up, down):  6.512E-04 3.651E-04
 
     Adding external electric field

     Computed dipole along edir(3) : 
        Dipole               -0.1736 Ry au,         -0.4411 Debye
        Dipole field         -0.0001 Ry au, 
 
        Potential amp.        0.0116 Ry
        Total length         54.2615 bohr
 
 
     Adding external electric field

     Computed dipole along edir(3) : 
        Dipole               -0.1736 Ry au,         -0.4411 Debye
        Dipole field         -0.0001 Ry au, 
 
        Potential amp.        0.0116 Ry
        Total length         54.2615 bohr
 

     total cpu time spent up to now is      863.5 secs

     total energy              =   -7398.03602150 Ry
     estimated scf accuracy    <       0.00037223 Ry

     total magnetization       =    80.45 Bohr mag/cell
     absolute magnetization    =    81.94 Bohr mag/cell

     iteration # 47     ecut=    50.00 Ry     beta= 0.10
     Davidson diagonalization with overlap
     ethr =  3.45E-08,  avg # of iterations =  2.0

     negative rho (up, down):  6.663E-04 3.839E-04
 
     Adding external electric field

     Computed dipole along edir(3) : 
        Dipole               -0.1740 Ry au,         -0.4422 Debye
        Dipole field         -0.0001 Ry au, 
 
        Potential amp.        0.0117 Ry
        Total length         54.2615 bohr
 
 
     Adding external electric field

     Computed dipole along edir(3) : 
        Dipole               -0.1740 Ry au,         -0.4422 Debye
        Dipole field         -0.0001 Ry au, 
 
        Potential amp.        0.0117 Ry
        Total length         54.2615 bohr
 

     total cpu time spent up to now is      880.3 secs

     total energy              =   -7398.03606197 Ry
     estimated scf accuracy    <       0.00026307 Ry

     total magnetization       =    80.45 Bohr mag/cell
     absolute magnetization    =    81.94 Bohr mag/cell

     iteration # 48     ecut=    50.00 Ry     beta= 0.10
     Davidson diagonalization with overlap
     ethr =  2.44E-08,  avg # of iterations =  2.0

     negative rho (up, down):  7.095E-04 4.227E-04
 
     Adding external electric field

     Computed dipole along edir(3) : 
        Dipole               -0.1729 Ry au,         -0.4395 Debye
        Dipole field         -0.0001 Ry au, 
 
        Potential amp.        0.0116 Ry
        Total length         54.2615 bohr
 
 
     Adding external electric field

     Computed dipole along edir(3) : 
        Dipole               -0.1729 Ry au,         -0.4395 Debye
        Dipole field         -0.0001 Ry au, 
 
        Potential amp.        0.0116 Ry
        Total length         54.2615 bohr
 

     total cpu time spent up to now is      897.5 secs

     total energy              =   -7398.03608680 Ry
     estimated scf accuracy    <       0.00013371 Ry

     total magnetization       =    80.44 Bohr mag/cell
     absolute magnetization    =    81.95 Bohr mag/cell

     iteration # 49     ecut=    50.00 Ry     beta= 0.10
     Davidson diagonalization with overlap
     ethr =  1.24E-08,  avg # of iterations =  1.5

     negative rho (up, down):  4.142E-04 1.742E-04
 
     Adding external electric field

     Computed dipole along edir(3) : 
        Dipole               -0.1740 Ry au,         -0.4422 Debye
        Dipole field         -0.0001 Ry au, 
 
        Potential amp.        0.0117 Ry
        Total length         54.2615 bohr
 
 
     Adding external electric field

     Computed dipole along edir(3) : 
        Dipole               -0.1740 Ry au,         -0.4422 Debye
        Dipole field         -0.0001 Ry au, 
 
        Potential amp.        0.0117 Ry
        Total length         54.2615 bohr
 

     total cpu time spent up to now is      913.3 secs

     total energy              =   -7398.03609540 Ry
     estimated scf accuracy    <       0.00009731 Ry

     total magnetization       =    80.44 Bohr mag/cell
     absolute magnetization    =    81.96 Bohr mag/cell

     iteration # 50     ecut=    50.00 Ry     beta= 0.10
     Davidson diagonalization with overlap
     ethr =  9.03E-09,  avg # of iterations =  2.0

     negative rho (up, down):  7.394E-04 3.874E-04
 
     Adding external electric field

     Computed dipole along edir(3) : 
        Dipole               -0.1594 Ry au,         -0.4051 Debye
        Dipole field         -0.0001 Ry au, 
 
        Potential amp.        0.0107 Ry
        Total length         54.2615 bohr
 
 
     Adding external electric field

     Computed dipole along edir(3) : 
        Dipole               -0.1594 Ry au,         -0.4051 Debye
        Dipole field         -0.0001 Ry au, 
 
        Potential amp.        0.0107 Ry
        Total length         54.2615 bohr
 

     total cpu time spent up to now is      930.2 secs

     total energy              =   -7398.03610589 Ry
     estimated scf accuracy    <       0.00007612 Ry

     total magnetization       =    80.45 Bohr mag/cell
     absolute magnetization    =    81.98 Bohr mag/cell

     iteration # 51     ecut=    50.00 Ry     beta= 0.10
     Davidson diagonalization with overlap
     ethr =  7.06E-09,  avg # of iterations =  2.0

     negative rho (up, down):  9.503E-04 5.995E-04
 
     Adding external electric field

     Computed dipole along edir(3) : 
        Dipole               -0.1532 Ry au,         -0.3895 Debye
        Dipole field         -0.0001 Ry au, 
 
        Potential amp.        0.0103 Ry
        Total length         54.2615 bohr
 
 
     Adding external electric field

     Computed dipole along edir(3) : 
        Dipole               -0.1532 Ry au,         -0.3895 Debye
        Dipole field         -0.0001 Ry au, 
 
        Potential amp.        0.0103 Ry
        Total length         54.2615 bohr
 

     total cpu time spent up to now is      946.7 secs

     total energy              =   -7398.03610930 Ry
     estimated scf accuracy    <       0.00003034 Ry

     total magnetization       =    80.45 Bohr mag/cell
     absolute magnetization    =    81.98 Bohr mag/cell

     iteration # 52     ecut=    50.00 Ry     beta= 0.10
     Davidson diagonalization with overlap
     ethr =  2.81E-09,  avg # of iterations =  2.0

     negative rho (up, down):  1.087E-03 7.356E-04
 
     Adding external electric field

     Computed dipole along edir(3) : 
        Dipole               -0.1498 Ry au,         -0.3809 Debye
        Dipole field         -0.0001 Ry au, 
 
        Potential amp.        0.0101 Ry
        Total length         54.2615 bohr
 
 
     Adding external electric field

     Computed dipole along edir(3) : 
        Dipole               -0.1498 Ry au,         -0.3809 Debye
        Dipole field         -0.0001 Ry au, 
 
        Potential amp.        0.0101 Ry
        Total length         54.2615 bohr
 

     total cpu time spent up to now is      963.5 secs

     total energy              =   -7398.03611069 Ry
     estimated scf accuracy    <       0.00001735 Ry

     total magnetization       =    80.45 Bohr mag/cell
     absolute magnetization    =    81.99 Bohr mag/cell

     iteration # 53     ecut=    50.00 Ry     beta= 0.10
     Davidson diagonalization with overlap
     ethr =  1.61E-09,  avg # of iterations =  1.5

     negative rho (up, down):  1.103E-03 7.389E-04
 
     Adding external electric field

     Computed dipole along edir(3) : 
        Dipole               -0.1485 Ry au,         -0.3775 Debye
        Dipole field         -0.0001 Ry au, 
 
        Potential amp.        0.0100 Ry
        Total length         54.2615 bohr
 
 
     Adding external electric field

     Computed dipole along edir(3) : 
        Dipole               -0.1485 Ry au,         -0.3775 Debye
        Dipole field         -0.0001 Ry au, 
 
        Potential amp.        0.0100 Ry
        Total length         54.2615 bohr
 

     total cpu time spent up to now is      979.2 secs

     total energy              =   -7398.03611182 Ry
     estimated scf accuracy    <       0.00001041 Ry

     total magnetization       =    80.45 Bohr mag/cell
     absolute magnetization    =    81.99 Bohr mag/cell

     iteration # 54     ecut=    50.00 Ry     beta= 0.10
     Davidson diagonalization with overlap
     ethr =  9.66E-10,  avg # of iterations =  1.0

     negative rho (up, down):  9.967E-04 6.087E-04
 
     Adding external electric field

     Computed dipole along edir(3) : 
        Dipole               -0.1484 Ry au,         -0.3771 Debye
        Dipole field         -0.0001 Ry au, 
 
        Potential amp.        0.0100 Ry
        Total length         54.2615 bohr
 
 
     Adding external electric field

     Computed dipole along edir(3) : 
        Dipole               -0.1484 Ry au,         -0.3771 Debye
        Dipole field         -0.0001 Ry au, 
 
        Potential amp.        0.0100 Ry
        Total length         54.2615 bohr
 

     total cpu time spent up to now is      993.9 secs

     total energy              =   -7398.03611133 Ry
     estimated scf accuracy    <       0.00000757 Ry

     total magnetization       =    80.45 Bohr mag/cell
     absolute magnetization    =    81.99 Bohr mag/cell

     iteration # 55     ecut=    50.00 Ry     beta= 0.10
     Davidson diagonalization with overlap
     ethr =  7.02E-10,  avg # of iterations =  2.0

     negative rho (up, down):  9.613E-04 5.664E-04
 
     Adding external electric field

     Computed dipole along edir(3) : 
        Dipole               -0.1482 Ry au,         -0.3767 Debye
        Dipole field         -0.0001 Ry au, 
 
        Potential amp.        0.0099 Ry
        Total length         54.2615 bohr
 
 
     Adding external electric field

     Computed dipole along edir(3) : 
        Dipole               -0.1482 Ry au,         -0.3767 Debye
        Dipole field         -0.0001 Ry au, 
 
        Potential amp.        0.0099 Ry
        Total length         54.2615 bohr
 

     total cpu time spent up to now is     1010.7 secs

     total energy              =   -7398.03611120 Ry
     estimated scf accuracy    <       0.00000323 Ry

     total magnetization       =    80.45 Bohr mag/cell
     absolute magnetization    =    81.98 Bohr mag/cell

     iteration # 56     ecut=    50.00 Ry     beta= 0.10
     Davidson diagonalization with overlap
     ethr =  2.99E-10,  avg # of iterations =  2.0

     negative rho (up, down):  9.155E-04 5.246E-04
 
     Adding external electric field

     Computed dipole along edir(3) : 
        Dipole               -0.1491 Ry au,         -0.3789 Debye
        Dipole field         -0.0001 Ry au, 
 
        Potential amp.        0.0100 Ry
        Total length         54.2615 bohr
 
 
     Adding external electric field

     Computed dipole along edir(3) : 
        Dipole               -0.1491 Ry au,         -0.3789 Debye
        Dipole field         -0.0001 Ry au, 
 
        Potential amp.        0.0100 Ry
        Total length         54.2615 bohr
 

     total cpu time spent up to now is     1027.7 secs

     total energy              =   -7398.03611079 Ry
     estimated scf accuracy    <       0.00000182 Ry

     total magnetization       =    80.45 Bohr mag/cell
     absolute magnetization    =    81.98 Bohr mag/cell

     iteration # 57     ecut=    50.00 Ry     beta= 0.10
     Davidson diagonalization with overlap
     ethr =  1.69E-10,  avg # of iterations =  4.0

     negative rho (up, down):  9.283E-04 5.459E-04
 
     Adding external electric field

     Computed dipole along edir(3) : 
        Dipole               -0.1536 Ry au,         -0.3904 Debye
        Dipole field         -0.0001 Ry au, 
 
        Potential amp.        0.0103 Ry
        Total length         54.2615 bohr
 
 
     Adding external electric field

     Computed dipole along edir(3) : 
        Dipole               -0.1536 Ry au,         -0.3904 Debye
        Dipole field         -0.0001 Ry au, 
 
        Potential amp.        0.0103 Ry
        Total length         54.2615 bohr
 
 
     Magnetic moment per site  (integrated on atomic sphere of radius R)
     atom   1 (R=0.087)  charge= 12.0347  magn=  3.8861
     atom   2 (R=0.080)  charge=  7.1251  magn=  1.5371
     atom   3 (R=0.080)  charge=  7.1372  magn=  1.4455
     atom   4 (R=0.080)  charge=  7.1239  magn=  1.5468
     atom   5 (R=0.080)  charge=  7.1511  magn=  1.5024
     atom   6 (R=0.080)  charge=  7.1422  magn=  1.4995
     atom   7 (R=0.080)  charge=  7.1447  magn=  1.4249
     atom   8 (R=0.080)  charge=  7.1264  magn=  1.5347
     atom   9 (R=0.080)  charge=  7.1368  magn=  1.4507
     atom  10 (R=0.080)  charge=  7.1253  magn=  1.5434
     atom  11 (R=0.080)  charge=  7.1474  magn=  1.4985
[...]
    -5.9999  -5.9867  -5.9579  -5.9365  -5.9171  -5.8863  -5.8511  -5.8432
    -5.8204  -5.8073  -5.7603  -5.7365  -5.7325  -5.7151  -5.6974  -5.6886
    -5.6762  -5.6702  -5.6394  -5.6246  -5.6135  -5.5998  -5.5303  -5.5139
    -5.4619  -5.4520  -5.4074  -5.4063  -5.3892  -5.3536  -5.3086  -5.2870
    -5.2444  -5.2154  -5.1901  -5.1800  -5.1692  -5.0846  -5.0822  -5.0600
    -4.9980  -4.9663  -4.9549  -4.9161  -4.8929  -4.8718  -4.8507  -4.8004
    -4.7840  -4.7665  -4.7633  -4.7364  -4.6464  -4.6322  -4.5833  -4.5510
    -4.5338  -4.5220  -4.4985  -4.4522  -4.4210  -4.3980  -4.3835  -4.3739
    -4.3650  -4.2968  -4.2948  -4.2317  -4.1780  -4.1492  -4.1104  -4.0943
    -4.0803  -4.0469  -4.0409  -4.0054  -3.9631  -3.9567  -3.9123  -3.9037
    -3.8861  -3.8471  -3.8277  -3.8170  -3.8068  -3.7717  -3.7462  -3.7357
    -3.7095  -3.6863  -3.6680  -3.6565  -3.6440  -3.6322  -3.6050  -3.5806
    -3.5480  -3.5297  -3.5260  -3.5036  -3.5019  -3.4874  -3.4545  -3.4462
    -3.4164  -3.4069  -3.3871  -3.3544  -3.3463  -3.3083  -3.2777  -3.2599
    -3.2378  -3.2214  -3.2105  -3.1930  -3.1752  -3.1680  -3.1505  -3.1440
    -3.1208  -3.0868  -3.0436  -3.0300  -3.0155  -2.9961  -2.9670  -2.9585
    -2.9264  -2.9181  -2.8996  -2.8752  -2.8626  -2.8481  -2.8236  -2.8135
    -2.7999  -2.7912  -2.7859  -2.7776  -2.7558  -2.7470  -2.7265  -2.7072
    -2.6915  -2.6677  -2.6662  -2.6539  -2.6264  -2.6123  -2.5970  -2.5835
    -2.5513  -2.5373  -2.5234  -2.5128  -2.4936  -2.4897  -2.4711  -2.4461
    -2.4278  -2.4030  -2.3915  -2.3693  -2.3530  -2.3166  -2.3029  -2.2872
    -2.2655  -2.2520  -2.2389  -2.2098  -2.1716  -2.1646  -2.1341  -2.1298
    -2.1140  -2.0871  -2.0850  -2.0752  -2.0671  -2.0419  -2.0100  -1.9947
    -1.9781  -1.9655  -1.9564  -1.9397  -1.9347  -1.9181  -1.9010  -1.8727
    -1.8477  -1.8228  -1.7946  -1.7688  -1.7403  -1.7291  -1.7089  -1.7007
    -1.6776  -1.6586  -1.6460  -1.6328  -1.6149  -1.6011  -1.5752  -1.5504
    -1.5327  -1.5181  -1.4906  -1.4685  -1.4577  -1.4306  -1.4229  -1.4193
    -1.4103  -1.3752  -1.3445  -1.3124  -1.3006  -1.2479  -1.2247  -1.2069
    -1.1545  -1.0956  -1.0711  -1.0552  -1.0162  -0.9291  -0.8904  -0.8788
    -0.7655  -0.6602  -0.6161  -0.6135  -0.4659  -0.3693  -0.3277  -0.2616
     0.0994   0.1226   0.1518   0.1877   0.2217   0.2408   0.2568   0.2677
     0.2801   0.2883   0.2966   0.3035   0.3108   0.3294   0.3403   0.3404
     0.3529   0.3591   0.3687   0.3753   0.3837   0.3885   0.3956   0.3988
     0.4075   0.4097   0.4223   0.4333   0.4434   0.4516   0.4539   0.4575
     0.4621   0.4639   0.4725   0.4791   0.4900   0.4975   0.5009   0.5102
     0.5145   0.5314   0.5369   0.5444   0.5581   0.5595   0.5638   0.5719
     0.5783   0.5855   0.5924   0.5955   0.6028   0.6118   0.6230   0.6319
     0.6425   0.6527   0.6591   0.6605   0.6638   0.6721   0.6823   0.6842
     0.6927   0.7015   0.7076   0.7114   0.7170   0.7219   0.7404   0.7435
     0.7474   0.7521   0.7762   0.7836   0.7856   0.7943   0.8049   0.8221
     0.8368   0.8399   0.8411   0.8513   0.8608   0.8635   0.8764   0.8805
     0.8946   0.8987   0.9102   0.9160   0.9233   0.9834   1.0120   1.0166
     1.0688   1.1327   1.6052   1.6550   1.6951   1.6977   1.7109   1.7413
     1.7566   1.8371   1.8683   1.8718   1.8885   1.9173   1.9303   1.9606
     1.9878   1.9937   2.0110   2.0168   2.0549   2.0691   2.0773   2.1154
     2.1426   2.1554   2.1809   2.1881   2.1934   2.2123   2.2218   2.2351
     2.2491   2.2535   2.2638   2.2805   2.2889   2.2974   2.3026   2.3215
     2.3323   2.3397   2.3687   2.3815   2.4082   2.4136   2.4169   2.4365
     2.4516   2.4713   2.4942   2.4979   2.5125   2.5323   2.5371   2.5502
     2.5780   2.5898   2.6259   2.6434   2.6636   2.6872   2.7291   2.7540
     2.7843   2.8317   2.8399   2.8884   2.9016   3.5592   3.5876   3.6621
     3.7292   3.8168   3.8272   3.8412   3.8580   3.9956   4.0592   4.5561
     4.6397   4.6983   4.7716   4.9229   4.9436   5.0170   5.4129   6.2919
     6.3581   6.5400   6.5792   6.7371   6.8293   6.8413   6.8794   6.9226
     7.0253   7.0789   7.0885   7.1220   7.3167   7.3657   7.3876   7.4271
     7.5017   7.5413   7.6564   7.6759   7.6906   7.7257   7.7898   7.8042
     7.8480   7.9201   7.9606   7.9730   8.0077   8.0201   8.0468   8.0700
     8.0967   8.1165   8.1687   8.2007   8.2330   8.2501   8.2841   8.3190
     8.3766   8.3990   8.4135   8.4599   8.4725   8.4749   8.4979   8.5113
     8.5477   8.5519   8.5916   8.5955   8.6120   8.6343   8.6687   8.6782
     8.7159   8.7535   8.7726   8.7959   8.8426   8.8443   8.8913

     the Fermi energy is     1.5622 ev

!    total energy              =   -7398.03611050 Ry
     estimated scf accuracy    <       0.00000088 Ry
     smearing contrib. (-TS)   =      -0.01417334 Ry
     internal energy E=F+TS    =   -7398.02193716 Ry

     The total energy is F=E-TS. E is the sum of the following terms:
     one-electron contribution =  -91723.85786317 Ry
     hartree contribution      =   46509.75579833 Ry
     xc contribution           =   -2260.27724669 Ry
     ewald contribution        =   40078.19126329 Ry
     Dispersion Correction     =      -1.83390351 Ry
     electric field correction =       0.00001459 Ry

     total magnetization       =    80.45 Bohr mag/cell
     absolute magnetization    =    81.98 Bohr mag/cell

     convergence has been achieved in  57 iterations

     negative rho (up, down):  9.283E-04 5.459E-04

     Forces acting on atoms (cartesian axes, Ry/au):

     atom    1 type  2   force =     0.03097587   -0.01968571   -0.01661833
     atom    2 type  1   force =     0.00223408   -0.00401570   -0.01067717
     atom    3 type  1   force =    -0.02164334   -0.02071531    0.01787544
     atom    4 type  1   force =     0.00143879    0.01027658   -0.01268215
     atom    5 type  1   force =    -0.00489769    0.02914211   -0.01866974
     atom    6 type  1   force =     0.00590495    0.00042830   -0.00062621
     atom    7 type  1   force =     0.02698193   -0.02104401    0.01714087
     atom    8 type  1   force =    -0.00969397   -0.00311885   -0.01097057
     atom    9 type  1   force =    -0.02985492   -0.01825376    0.01585257
     atom   10 type  1   force =    -0.00114271    0.00803867   -0.01299286
     atom   11 type  1   force =    -0.01307736    0.03049899   -0.02081524
     atom   12 type  1   force =     0.00126636    0.00656645   -0.00428706
     atom   13 type  3   force =     0.05099997   -0.11003704    0.00915578
     atom   14 type  3   force =    -0.02903113    0.03593791   -0.06520877
     atom   15 type  3   force =    -0.00919639    0.17547069   -0.08318091
     atom   16 type  3   force =     0.06070895    0.00054054   -0.00439337
     atom   17 type  4   force =     0.01515165   -0.02188148   -0.00984423
     atom   18 type  4   force =    -0.00540690    0.00483019    0.02969377
     atom   19 type  4   force =     0.00217276    0.00102557    0.03076800
     atom   20 type  4   force =     0.00514754    0.00186584    0.00234248
     atom   21 type  4   force =     0.00050167   -0.01202401    0.00006424
     atom   22 type  4   force =    -0.00091099    0.00385971    0.03248266
     atom   23 type  4   force =    -0.00607824    0.01466066    0.02744141
     atom   24 type  4   force =     0.00869635    0.00320538   -0.00423070
     atom   25 type  4   force =     0.00652107   -0.00320056    0.00158429
     atom   26 type  4   force =     0.03120032   -0.17833919    0.00720988
     atom   27 type  4   force =     0.00283375    0.00099556    0.00170742
     atom   28 type  4   force =    -0.01704230    0.00168032    0.00472590
     atom   29 type  4   force =     0.09135561    0.00311074    0.00803240
     atom   30 type  4   force =     0.01307590   -0.02515550   -0.00092166
     atom   31 type  4   force =    -0.03849669    0.13345105   -0.00015341
     atom   32 type  4   force =    -0.00542557   -0.01187140    0.00654556
     atom   33 type  3   force =     0.04157998   -0.11919786    0.00959943
     atom   34 type  3   force =    -0.10166606    0.04258241   -0.07575655
     atom   35 type  3   force =    -0.01351530    0.16598869   -0.08812194
     atom   36 type  3   force =    -0.00359181    0.00255611   -0.01045062
     atom   37 type  4   force =     0.00822667   -0.01470460   -0.00240399
     atom   38 type  4   force =    -0.00589068   -0.00169531    0.02745040
     atom   39 type  4   force =    -0.00467257    0.00725660    0.03218271
     atom   40 type  4   force =     0.00131965    0.00002547    0.00246223
     atom   41 type  4   force =    -0.00152604   -0.00966564   -0.00143485
     atom   42 type  4   force =     0.00541624   -0.00054036    0.02935268
     atom   43 type  4   force =    -0.01045921    0.01349288    0.02708594
     atom   44 type  4   force =     0.00448200    0.00345228   -0.00441113
     atom   45 type  4   force =    -0.00028157   -0.00058805    0.00203279
     atom   46 type  4   force =     0.02814884   -0.17055562    0.00538287
     atom   47 type  4   force =    -0.06558170   -0.00074491   -0.00309316
     atom   48 type  4   force =    -0.01984004    0.00391433    0.00528469
     atom   49 type  4   force =     0.01406970    0.00083120    0.00202968
     atom   50 type  4   force =     0.00793548   -0.02438565   -0.00017481
     atom   51 type  4   force =    -0.03976860    0.13340613   -0.00133986
     atom   52 type  4   force =    -0.00773006   -0.01065621    0.00878294
     atom   53 type  2   force =     0.00643201   -0.00730994    0.00576595
     atom   54 type  1   force =     0.00115058   -0.00398715    0.00719786
     atom   55 type  1   force =     0.00499132   -0.00627098    0.00683671
     atom   56 type  1   force =    -0.00092287    0.00733556   -0.00069400
     atom   57 type  1   force =     0.00046013    0.02210041   -0.01389132
     atom   58 type  1   force =     0.00159452   -0.00342038    0.00270972
     atom   59 type  1   force =     0.00247410   -0.01012265    0.00397785
     atom   60 type  1   force =    -0.00753626   -0.00358738    0.00396657
     atom   61 type  1   force =    -0.00471279   -0.00496325    0.00685090
     atom   62 type  1   force =    -0.00226428    0.00502140    0.00230476
     atom   63 type  1   force =    -0.01073651    0.02515224   -0.01721809
     atom   64 type  1   force =    -0.00230563    0.00112490   -0.00040010
     atom   65 type  3   force =     0.04666566   -0.11945044    0.01680383
     atom   66 type  3   force =     0.00155966   -0.00440184    0.00067229
     atom   67 type  3   force =    -0.04056391    0.12366397   -0.00692700
     atom   68 type  3   force =     0.06322075   -0.00246093    0.00829725
     atom   69 type  4   force =     0.01277965   -0.01737498   -0.00201915
     atom   70 type  4   force =    -0.00172638    0.00341069   -0.00065123
     atom   71 type  4   force =    -0.00190577    0.00337927    0.00522307
     atom   72 type  4   force =     0.00472835    0.00157894    0.00093227
     atom   73 type  4   force =     0.00675221   -0.01711375    0.01174615
     atom   74 type  4   force =    -0.00443626   -0.00333439    0.00931626
     atom   75 type  4   force =     0.00354193    0.00865832    0.00453998
     atom   76 type  4   force =     0.00532982    0.00018901    0.00093058
     atom   77 type  4   force =     0.00598658   -0.00138600   -0.00072953
     atom   78 type  4   force =     0.04529616   -0.14085932    0.00579166
     atom   79 type  4   force =     0.00036568    0.00029700   -0.00096900
     atom   80 type  4   force =     0.00148418    0.00184981    0.00227952
     atom   81 type  4   force =     0.06737196    0.00010851    0.00655594
     atom   82 type  4   force =     0.00019119    0.00236821    0.00131359
     atom   83 type  4   force =    -0.03958591    0.13731300   -0.00226980
     atom   84 type  4   force =    -0.00212404   -0.01050185    0.00360031
     atom   85 type  3   force =     0.03901685   -0.12281860    0.02654212
     atom   86 type  3   force =    -0.06321013   -0.00178469   -0.00384760
     atom   87 type  3   force =    -0.04621181    0.12090549   -0.01040230
     atom   88 type  3   force =     0.00007142   -0.00107973    0.00189623
     atom   89 type  4   force =     0.00870074   -0.01533863   -0.00505427
     atom   90 type  4   force =    -0.00448306    0.00107530   -0.00075385
     atom   91 type  4   force =    -0.00947723    0.00832448    0.00553031
     atom   92 type  4   force =     0.00024238    0.00005178   -0.00001024
     atom   93 type  4   force =     0.00190739   -0.01182101    0.00086148
     atom   94 type  4   force =    -0.00908545   -0.00295263    0.00833986
     atom   95 type  4   force =    -0.00030406    0.00775539    0.00298927
     atom   96 type  4   force =    -0.00124544    0.00208926   -0.00207303
     atom   97 type  4   force =    -0.00099145    0.00155170   -0.00031421
     atom   98 type  4   force =     0.04065869   -0.13923550    0.00487470
     atom   99 type  4   force =    -0.06728251   -0.00068083   -0.00571669
     atom  100 type  4   force =    -0.00043707    0.00281110    0.00287166
     atom  101 type  4   force =    -0.00119619    0.00008803    0.00144235
     atom  102 type  4   force =    -0.00684750    0.00549467    0.00159100
     atom  103 type  4   force =    -0.03980812    0.13537602   -0.00466840
     atom  104 type  4   force =    -0.00545817   -0.01020718    0.00529473
     atom  105 type  2   force =     0.00003995    0.00030765   -0.00015613
     atom  106 type  1   force =     0.00012833   -0.00037642   -0.00022835
     atom  107 type  1   force =    -0.00048412   -0.00070652   -0.00015631
     atom  108 type  1   force =    -0.00055713   -0.00043273    0.00022772
     atom  109 type  1   force =     0.00006169   -0.00024645   -0.00035600
     atom  110 type  1   force =    -0.00022248   -0.00024238    0.00016584
     atom  111 type  1   force =    -0.00005358    0.00032500   -0.00002664
     atom  112 type  1   force =     0.00003627   -0.00034481   -0.00001465
     atom  113 type  1   force =    -0.00025582   -0.00050251   -0.00080776
     atom  114 type  1   force =     0.00086419   -0.00043776    0.00056925
     atom  115 type  1   force =     0.00032441    0.00017272   -0.00001462
     atom  116 type  1   force =     0.00017959   -0.00014534   -0.00032575
     atom  117 type  3   force =     0.00045083    0.00034295   -0.00063640
     atom  118 type  3   force =    -0.00040436   -0.00025467   -0.00017450
     atom  119 type  3   force =    -0.00007854    0.00004776    0.00040094
     atom  120 type  3   force =     0.00053785   -0.00046982    0.00070007
     atom  121 type  4   force =     0.00004093   -0.00011978    0.00019587
     atom  122 type  4   force =    -0.00009456    0.00004965   -0.00023803
     atom  123 type  4   force =     0.00021553    0.00003004    0.00013267
     atom  124 type  4   force =     0.00032710   -0.00039759   -0.00028115
     atom  125 type  4   force =    -0.00019458   -0.00027824    0.00035646
     atom  126 type  4   force =     0.00016879   -0.00040233   -0.00002307
     atom  127 type  4   force =    -0.00004713    0.00016574    0.00034667
     atom  128 type  4   force =    -0.00013125    0.00025965   -0.00083703
     atom  129 type  4   force =    -0.00066886    0.00086675   -0.00041610
     atom  130 type  4   force =     0.00015647    0.00017942    0.00017762
     atom  131 type  4   force =     0.00000341   -0.00090151    0.00042572
     atom  132 type  4   force =     0.00007509   -0.00012547   -0.00021697
     atom  133 type  4   force =    -0.00016353   -0.00015750   -0.00019761
     atom  134 type  4   force =     0.00006249   -0.00019183   -0.00001858
     atom  135 type  4   force =    -0.00014973   -0.00036583    0.00003146
     atom  136 type  4   force =    -0.00009765   -0.00009036   -0.00005771
     atom  137 type  3   force =    -0.00053069   -0.00021202   -0.00015604
     atom  138 type  3   force =     0.00012253    0.00000729   -0.00007109
     atom  139 type  3   force =    -0.00003351   -0.00031830   -0.00022804
     atom  140 type  3   force =    -0.00001517   -0.00015624   -0.00039696
     atom  141 type  4   force =     0.00087391    0.00047829    0.00063697
     atom  142 type  4   force =    -0.00019310    0.00012323   -0.00008261
     atom  143 type  4   force =     0.00000859   -0.00029998    0.00007059
     atom  144 type  4   force =     0.00007836    0.00071231   -0.00068267
     atom  145 type  4   force =    -0.00000366   -0.00016813    0.00016017
     atom  146 type  4   force =     0.00016596   -0.00025265    0.00027737
     atom  147 type  4   force =     0.00010380    0.00009829   -0.00015568
     atom  148 type  4   force =    -0.00055385    0.00015216    0.00029638
     atom  149 type  4   force =     0.00042696   -0.00014498   -0.00003047
     atom  150 type  4   force =     0.00016357   -0.00008974   -0.00000478
     atom  151 type  4   force =    -0.00005133    0.00003704   -0.00045077
     atom  152 type  4   force =     0.00035534   -0.00036810    0.00029310
     atom  153 type  4   force =     0.00014630    0.00003544   -0.00005868
     atom  154 type  4   force =    -0.00037713   -0.00039970   -0.00007095
     atom  155 type  4   force =     0.00062785    0.00076706   -0.00004619
     atom  156 type  4   force =    -0.00069596   -0.00003105   -0.00011886
     atom  157 type  4   force =    -0.00767452   -0.00559520   -0.00202969
     atom  158 type  5   force =     0.00694677    0.00644241    0.00225533

     Total force =     0.664800     Total SCF correction =     0.004382
 
     init_run     :      9.70s CPU     10.45s WALL (       1 calls)
     electrons    :    991.41s CPU   1032.98s WALL (       1 calls)
     forces       :      6.12s CPU      6.58s WALL (       1 calls)
     force_london :      0.12s CPU      0.12s WALL (       1 calls)

     Called by init_run:
     wfcinit      :      5.52s CPU      5.73s WALL (       1 calls)
     potinit      :      0.67s CPU      0.82s WALL (       1 calls)
     hinit0       :      1.89s CPU      1.97s WALL (       1 calls)

     Called by electrons:
     c_bands      :    760.02s CPU    781.24s WALL (      57 calls)
     sum_band     :    144.93s CPU    155.69s WALL (      57 calls)
     v_of_rho     :     13.99s CPU     14.86s WALL (      58 calls)
     newd         :     52.51s CPU     61.35s WALL (      58 calls)
     mix_rho      :     19.44s CPU     19.54s WALL (      57 calls)
     energy_londo :      0.11s CPU      0.11s WALL (       1 calls)

     Called by c_bands:
     init_us_2    :      1.80s CPU      1.89s WALL (     232 calls)
     init_us_2:cp :      1.80s CPU      1.89s WALL (     232 calls)
     regterg      :    742.92s CPU    763.86s WALL (     116 calls)

     Called by *egterg:
     rdiaghg      :    173.84s CPU    183.15s WALL (     462 calls)
     h_psi        :    285.92s CPU    291.42s WALL (     464 calls)
     s_psi        :     47.32s CPU     47.35s WALL (     464 calls)
     g_psi        :      0.35s CPU      0.35s WALL (     346 calls)

     Called by h_psi:
     h_psi:calbec :     86.40s CPU     90.80s WALL (     464 calls)
     vloc_psi     :    151.60s CPU    152.16s WALL (     464 calls)
     add_vuspsi   :     47.36s CPU     47.89s WALL (     464 calls)

     General routines
     calbec       :    126.91s CPU    133.43s WALL (     586 calls)
     fft          :     39.28s CPU     40.46s WALL (    1057 calls)
     ffts         :     10.41s CPU     10.45s WALL (    7061 calls)
     fftw         :    174.36s CPU    174.97s WALL (  195048 calls)
     interpolate  :      1.36s CPU      1.44s WALL (     116 calls)
 
     Parallel routines
 
     PWSCF        :  16m49.43s CPU  17m32.52s WALL

 
   This run was terminated on:  23:19:12  19Nov2025            

=------------------------------------------------------------------------------=
   JOB DONE.
=------------------------------------------------------------------------------=
