
     Program PWSCF v.7.2 starts on 19Nov2025 at 22:44:14 

     This program is part of the open-source Quantum ESPRESSO suite
     for quantum simulation of materials; please cite
         "P. Giannozzi et al., J. Phys.:Condens. Matter 21 395502 (2009);
         "P. Giannozzi et al., J. Phys.:Condens. Matter 29 465901 (2017);
         "P. Giannozzi et al., J. Chem. Phys. 152 154105 (2020);
          URL http://www.quantum-espresso.org", 
     in publications or presentations arising from this work. More details at
     http://www.quantum-espresso.org/quote

     Parallel version (MPI), running on    64 processors

     MPI processes distributed on     4 nodes
     386671 MiB available memory on the printing compute node when the environment starts
 
     Reading input from PWINPUT_atm158_yp

     Current dimensions of program PWSCF are:
     Max number of different atomic species (ntypx) = 10
     Max number of k-points (npk) =  40000
     Max angular momentum in pseudopotentials (lmaxx) =  4
     Presently no symmetry can be used with electric field

     file Ni.pbe-n-rrkjus_psl.1.0.0.UPF: wavefunction(s)  3D renormalized
     file Mn.pbe-spn-rrkjus_psl.0.3.1.UPF: wavefunction(s)  3D renormalized
     file O.pbe-rrkjus.UPF: wavefunction(s)  2S renormalized
     file H.pbe-rrkjus.UPF: wavefunction(s)  1S renormalized

     gamma-point specific algorithms are used
 
     R & G space division:  proc/nbgrp/npool/nimage =      64
     Subspace diagonalization in iterative solution of the eigenvalue problem:
     one sub-group per band group will be used
     custom distributed-memory algorithm (size of sub-group:  6*  6 procs)

 
     Parallelization info
     --------------------
     sticks:   dense  smooth     PW     G-vecs:    dense   smooth      PW
     Min         208      82     20                59912    15118    1876
     Max         210      84     22                59974    15196    1926
     Sum       13399    5355   1345              3836275   970529  121367
 
     Using Slab Decomposition
 


     bravais-lattice index     =            0
     lattice parameter (alat)  =      17.7004  a.u.
     unit-cell volume          =   20319.7251 (a.u.)^3
     number of atoms/cell      =          158
     number of atomic types    =            5
     number of electrons       =      1078.00
     number of Kohn-Sham states=          647
     kinetic-energy cutoff     =      50.0000  Ry
     charge density cutoff     =     500.0000  Ry
     scf convergence threshold =      1.0E-06
     mixing beta               =       0.1000
     number of iterations used =            8  local-TF  mixing
     Exchange-correlation=  SLA  PW   PBE  PBE
                           (   1   4   3   4   0   0   0)

     celldm(1)=  17.700384  celldm(2)=   0.000000  celldm(3)=   0.000000
     celldm(4)=   0.000000  celldm(5)=   0.000000  celldm(6)=   0.000000

     crystal axes: (cart. coord. in units of alat)
               a(1) = (   1.000000   0.000000   0.000000 )  
               a(2) = (   0.000000   1.075730   0.000000 )  
               a(3) = (   0.000000   0.000000   3.406172 )  

     reciprocal axes: (cart. coord. in units 2 pi/alat)
               b(1) = (  1.000000  0.000000  0.000000 )  
               b(2) = (  0.000000  0.929602  0.000000 )  
               b(3) = (  0.000000  0.000000  0.293585 )  


     PseudoPot. # 1 for Ni read from file:
     ~/PSEUDO/Ni.pbe-n-rrkjus_psl.1.0.0.UPF
     MD5 check sum: Not computed, couldn't open file
     Pseudo is Ultrasoft + core correction, Zval = 10.0
     Generated using "atomic" code by A. Dal Corso  v.5.1.2
     Using radial grid of 1195 points,  6 beta functions with: 
                l(1) =   0
                l(2) =   0
                l(3) =   1
                l(4) =   1
                l(5) =   2
                l(6) =   2
     Q(r) pseudized with 0 coefficients 


     PseudoPot. # 2 for Mn read from file:
     ~/PSEUDO/Mn.pbe-spn-rrkjus_psl.0.3.1.UPF
     MD5 check sum: Not computed, couldn't open file
     Pseudo is Ultrasoft + core correction, Zval = 15.0
     Generated using &quot;atomic&quot; code by A. Dal Corso  v.6.2.2
     Using radial grid of 1187 points,  6 beta functions with: 
                l(1) =   0
                l(2) =   0
                l(3) =   1
                l(4) =   1
                l(5) =   2
                l(6) =   2
     Q(r) pseudized with 0 coefficients 


     PseudoPot. # 3 for P  read from file:
     ~/PSEUDO/P.pbe-n-rrkjus_psl.1.0.0.UPF
     MD5 check sum: Not computed, couldn't open file
     Pseudo is Ultrasoft + core correction, Zval =  5.0
     Generated using "atomic" code by A. Dal Corso  v.5.1
     Using radial grid of 1147 points,  6 beta functions with: 
                l(1) =   0
                l(2) =   0
                l(3) =   1
                l(4) =   1
                l(5) =   2
                l(6) =   2
     Q(r) pseudized with 0 coefficients 


     PseudoPot. # 4 for O  read from file:
     ~/PSEUDO/O.pbe-rrkjus.UPF
     MD5 check sum: Not computed, couldn't open file
     Pseudo is Ultrasoft, Zval =  6.0
     Generated by new atomic code, or converted to UPF format
     Using radial grid of 1269 points,  4 beta functions with: 
                l(1) =   0
                l(2) =   0
                l(3) =   1
                l(4) =   1
     Q(r) pseudized with 0 coefficients 


     PseudoPot. # 5 for H  read from file:
     ~/PSEUDO/H.pbe-rrkjus.UPF
     MD5 check sum: Not computed, couldn't open file
     Pseudo is Ultrasoft, Zval =  1.0
     Generated by new atomic code, or converted to UPF format
     Using radial grid of 1061 points,  2 beta functions with: 
                l(1) =   0
                l(2) =   0
     Q(r) pseudized with 0 coefficients 


     atomic species   valence    mass     pseudopotential
     Ni               10.00    58.69300     Ni( 1.00)
     Mn               15.00    54.93800     Mn( 1.00)
     P                 5.00    30.97300     P ( 1.00)
     O                 6.00    15.99900     O ( 1.00)
     H                 1.00     1.00790     H ( 1.00)

     Starting magnetic structure 
     atomic species   magnetization
     Ni              1.000
     Mn              1.000
     P               1.000
     O               1.000
     H               0.000

     No symmetry found



   Cartesian axes

     site n.     atom                  positions (alat units)
         1        Mn     tau(   1) = (   0.2404744   0.8371250   0.1168501  )
         2        Ni     tau(   2) = (   0.4968126   0.7726670   0.4415546  )
         3        Ni     tau(   3) = (   0.0066150   0.2936743   0.1241053  )
         4        Ni     tau(   4) = (   0.2585722   0.2355858   0.4448848  )
         5        Ni     tau(   5) = (   0.9987350   1.0696411   0.2854926  )
         6        Ni     tau(   6) = (   0.2517397   0.5330511   0.2829322  )
         7        Ni     tau(   7) = (   0.7451645   0.8337543   0.1221751  )
         8        Ni     tau(   8) = (   0.9939181   0.7738804   0.4407595  )
         9        Ni     tau(   9) = (   0.5111533   0.2924088   0.1251865  )
        10        Ni     tau(  10) = (   0.7606326   0.2319267   0.4451372  )
        11        Ni     tau(  11) = (   0.5024065   1.0688133   0.2870502  )
        12        Ni     tau(  12) = (   0.7529977   0.5317900   0.2845227  )
        13        P      tau(  13) = (   0.2092944   0.9731097   0.4345035  )
        14        P      tau(  14) = (   0.4655727   0.6359535   0.1274635  )
        15        P      tau(  15) = (   0.2910699   0.1027363   0.1296098  )
        16        P      tau(  16) = (   0.0396216   0.4288395   0.4398838  )
        17        O      tau(  17) = (   0.1294378   0.9013260   0.3010618  )
        18        O      tau(  18) = (   0.3874505   0.7054774   0.2637003  )
        19        O      tau(  19) = (   0.3702540   0.1714799   0.2660028  )
        20        O      tau(  20) = (   0.1184398   0.3582958   0.3038353  )
        21        O      tau(  21) = (   0.1451572   0.8850881   0.5587578  )
        22        O      tau(  22) = (   0.4048762   0.7245585   0.0017492  )
        23        O      tau(  23) = (   0.3523506   0.1900579   0.0035744  )
        24        O      tau(  24) = (   0.1017610   0.3410484   0.5656572  )
        25        O      tau(  25) = (   0.0975396   0.5849288   0.4357922  )
        26        O      tau(  26) = (   0.3483552   1.0314945   0.1270322  )
        27        O      tau(  27) = (   0.3784305   0.4225118   0.4308928  )
        28        O      tau(  28) = (   0.1268237   0.1067944   0.1392744  )
        29        O      tau(  29) = (   0.1212267   0.6424170   0.1362896  )
        30        O      tau(  30) = (   0.4053315   0.4809387   0.1300622  )
        31        O      tau(  31) = (   0.1536621   0.0446918   0.4373386  )
        32        O      tau(  32) = (   0.3732349   0.9631717   0.4256642  )
        33        P      tau(  33) = (   0.7119823   0.9695974   0.4373010  )
        34        P      tau(  34) = (   0.9615208   0.6363392   0.1262932  )
        35        P      tau(  35) = (   0.7927710   0.0970060   0.1292164  )
        36        P      tau(  36) = (   0.5426404   0.4269675   0.4410738  )
        37        O      tau(  37) = (   0.6326879   0.8991182   0.3013240  )
        38        O      tau(  38) = (   0.8842163   0.7083206   0.2625155  )
        39        O      tau(  39) = (   0.8716178   0.1677751   0.2653504  )
        40        O      tau(  40) = (   0.6212010   0.3558666   0.3051085  )
        41        O      tau(  41) = (   0.6507714   0.8812342   0.5631722  )
        42        O      tau(  42) = (   0.9014054   0.7264458   0.0010676  )
        43        O      tau(  43) = (   0.8548963   0.1847909   0.0035471  )
        44        O      tau(  44) = (   0.6044469   0.3378706   0.5660366  )
        45        O      tau(  45) = (   0.6024424   0.5823140   0.4379016  )
        46        O      tau(  46) = (   0.8498940   1.0254482   0.1275156  )
        47        O      tau(  47) = (   0.8798395   0.4205825   0.4305771  )
        48        O      tau(  48) = (   0.6286921   0.1034636   0.1397346  )
        49        O      tau(  49) = (   0.6294973   0.6427753   0.1372553  )
        50        O      tau(  50) = (   0.9024339   0.4810312   0.1296418  )
        51        O      tau(  51) = (   0.6547812   0.0410987   0.4396636  )
        52        O      tau(  52) = (   0.8760507   0.9632605   0.4264507  )
        53        Mn     tau(  53) = (   0.2404744   0.8246335   0.7367378  )
        54        Ni     tau(  54) = (   0.4968126   0.7601755   1.0614423  )
        55        Ni     tau(  55) = (   0.0066150   0.2811828   0.7439929  )
        56        Ni     tau(  56) = (   0.2585722   0.2230943   1.0647725  )
        57        Ni     tau(  57) = (   0.9987350   1.0571496   0.9053803  )
        58        Ni     tau(  58) = (   0.2517397   0.5205596   0.9028199  )
        59        Ni     tau(  59) = (   0.7451645   0.8212628   0.7420628  )
        60        Ni     tau(  60) = (   0.9939181   0.7613889   1.0606471  )
        61        Ni     tau(  61) = (   0.5111533   0.2799173   0.7450742  )
        62        Ni     tau(  62) = (   0.7606326   0.2194352   1.0650249  )
        63        Ni     tau(  63) = (   0.5024065   1.0563218   0.9069379  )
        64        Ni     tau(  64) = (   0.7529977   0.5192985   0.9044104  )
        65        P      tau(  65) = (   0.2092944   0.9606182   1.0543912  )
        66        P      tau(  66) = (   0.4655727   0.6234620   0.7473512  )
        67        P      tau(  67) = (   0.2910699   0.0902448   0.7494974  )
        68        P      tau(  68) = (   0.0396216   0.4163480   1.0597715  )
        69        O      tau(  69) = (   0.1294378   0.8888345   0.9209495  )
        70        O      tau(  70) = (   0.3874505   0.6929859   0.8835880  )
        71        O      tau(  71) = (   0.3702540   0.1589885   0.8858904  )
        72        O      tau(  72) = (   0.1184398   0.3458043   0.9237230  )
        73        O      tau(  73) = (   0.1451572   0.8725966   1.1786454  )
        74        O      tau(  74) = (   0.4048762   0.7120670   0.6216369  )
        75        O      tau(  75) = (   0.3523506   0.1775664   0.6234620  )
        76        O      tau(  76) = (   0.1017610   0.3285569   1.1855448  )
        77        O      tau(  77) = (   0.0975396   0.5724373   1.0556799  )
        78        O      tau(  78) = (   0.3483552   1.0190030   0.7469198  )
        79        O      tau(  79) = (   0.3784305   0.4100203   1.0507804  )
        80        O      tau(  80) = (   0.1268237   0.0943029   0.7591620  )
        81        O      tau(  81) = (   0.1212267   0.6299255   0.7561772  )
        82        O      tau(  82) = (   0.4053315   0.4684472   0.7499499  )
        83        O      tau(  83) = (   0.1536621   0.0322003   1.0572263  )
        84        O      tau(  84) = (   0.3732349   0.9506802   1.0455518  )
        85        P      tau(  85) = (   0.7119823   0.9571059   1.0571887  )
        86        P      tau(  86) = (   0.9615208   0.6238477   0.7461808  )
        87        P      tau(  87) = (   0.7927710   0.0845145   0.7491041  )
        88        P      tau(  88) = (   0.5426404   0.4144760   1.0609615  )
        89        O      tau(  89) = (   0.6326879   0.8866267   0.9212117  )
        90        O      tau(  90) = (   0.8842163   0.6958291   0.8824032  )
        91        O      tau(  91) = (   0.8716178   0.1552836   0.8852381  )
        92        O      tau(  92) = (   0.6212010   0.3433751   0.9249961  )
        93        O      tau(  93) = (   0.6507714   0.8687427   1.1830599  )
        94        O      tau(  94) = (   0.9014054   0.7139543   0.6209553  )
        95        O      tau(  95) = (   0.8548963   0.1722994   0.6234348  )
        96        O      tau(  96) = (   0.6044469   0.3253792   1.1859242  )
        97        O      tau(  97) = (   0.6024424   0.5698225   1.0577892  )
        98        O      tau(  98) = (   0.8498940   1.0129567   0.7474033  )
        99        O      tau(  99) = (   0.8798395   0.4080910   1.0504647  )
       100        O      tau( 100) = (   0.6286921   0.0909721   0.7596222  )
       101        O      tau( 101) = (   0.6294973   0.6302838   0.7571429  )
       102        O      tau( 102) = (   0.9024339   0.4685397   0.7495295  )
       103        O      tau( 103) = (   0.6547812   0.0286072   1.0595512  )
       104        O      tau( 104) = (   0.8760507   0.9507690   1.0463383  )
       105        Mn     tau( 105) = (   0.2350290   0.8103679   1.3650506  )
       106        Ni     tau( 106) = (   0.5049839   0.7430999   1.6752764  )
       107        Ni     tau( 107) = (   0.0085805   0.2677647   1.3705110  )
       108        Ni     tau( 108) = (   0.2524821   0.2108176   1.6762258  )
       109        Ni     tau( 109) = (   1.0031726   1.0464924   1.5386166  )
       110        Ni     tau( 110) = (   0.2502641   0.5060972   1.5295441  )
       111        Ni     tau( 111) = (   0.7425850   0.8051724   1.3682278  )
       112        Ni     tau( 112) = (   1.0032085   0.7480271   1.6782163  )
       113        Ni     tau( 113) = (   0.5109976   0.2668978   1.3695351  )
       114        Ni     tau( 114) = (   0.7617415   0.2002392   1.7047113  )
       115        Ni     tau( 115) = (   0.5060216   1.0426794   1.5329327  )
       116        Ni     tau( 116) = (   0.7493328   0.5030112   1.5332002  )
       117        P      tau( 117) = (   0.2170385   0.9354274   1.6987551  )
       118        P      tau( 118) = (   0.4625170   0.6079979   1.3696033  )
       119        P      tau( 119) = (   0.2922201   0.0744200   1.3728508  )
       120        P      tau( 120) = (   0.0400598   0.4013821   1.6923063  )
       121        O      tau( 121) = (   0.1369468   0.8734395   1.5544031  )
       122        O      tau( 122) = (   0.3851774   0.6777302   1.5062583  )
       123        O      tau( 123) = (   0.3716472   0.1429275   1.5084559  )
       124        O      tau( 124) = (   0.1157488   0.3366312   1.5473574  )
       125        O      tau( 125) = (   0.1542130   0.8393226   1.8134166  )
       126        O      tau( 126) = (   0.4021706   0.6983945   1.2446547  )
       127        O      tau( 127) = (   0.3533289   0.1594101   1.2454731  )
       128        O      tau( 128) = (   0.1044058   0.3070241   1.8090384  )
       129        O      tau( 129) = (   0.0976985   0.5582927   1.6881977  )
       130        O      tau( 130) = (   0.3494544   0.9934681   1.3765809  )
       131        O      tau( 131) = (   0.3735391   0.3921348   1.6747224  )
       132        O      tau( 132) = (   0.1284883   0.0801717   1.3861992  )
       133        O      tau( 133) = (   0.1217502   0.6189932   1.3813335  )
       134        O      tau( 134) = (   0.4008873   0.4536035   1.3710220  )
       135        O      tau( 135) = (   0.1634732   0.0183502   1.6943209  )
       136        O      tau( 136) = (   0.3813891   0.9276213   1.6801305  )
       137        P      tau( 137) = (   0.7150844   0.9302027   1.6925865  )
       138        P      tau( 138) = (   0.9571586   0.6099361   1.3701799  )
       139        P      tau( 139) = (   0.7928795   0.0723778   1.3749960  )
       140        P      tau( 140) = (   0.5392015   0.3933707   1.6872906  )
       141        O      tau( 141) = (   0.6358909   0.8683612   1.5460897  )
       142        O      tau( 142) = (   0.8820169   0.6809509   1.5070208  )
       143        O      tau( 143) = (   0.8692965   0.1456252   1.5103227  )
       144        O      tau( 144) = (   0.6167143   0.3328777   1.5445489  )
       145        O      tau( 145) = (   0.6564412   0.8305094   1.8065650  )
       146        O      tau( 146) = (   0.8979416   0.6984778   1.2436101  )
       147        O      tau( 147) = (   0.8543451   0.1588252   1.2476080  )
       148        O      tau( 148) = (   0.5965398   0.2964012   1.8048314  )
       149        O      tau( 149) = (   0.5954090   0.5513693   1.6890606  )
       150        O      tau( 150) = (   0.8526781   0.9929277   1.3790312  )
       151        O      tau( 151) = (   0.8754039   0.3968396   1.6819451  )
       152        O      tau( 152) = (   0.6285753   0.0773142   1.3832806  )
       153        O      tau( 153) = (   0.6263328   0.6141238   1.3811389  )
       154        O      tau( 154) = (   0.9000707   0.4545516   1.3742938  )
       155        O      tau( 155) = (   0.6544929   0.0100088   1.6874901  )
       156        O      tau( 156) = (   0.8797765   0.9265630   1.6764488  )
       157        O      tau( 157) = (   0.8764291   0.1176518   1.8379936  )
       158        H      tau( 158) = (   0.9617023   0.1773443   1.8603235  )

     -------------------------------------------------
     Parameters for Dispersion (Grimme-D2) Correction:
     -------------------------------------------------
       atom      VdW radius       C_6     

        Ni         2.952        374.666
        Mn         2.952        374.666
        P          3.222        271.980
        O          2.536         24.284
        H          1.892          4.857

     number of k points=     1  Gaussian smearing, width (Ry)=  0.0100
                       cart. coord. in units 2pi/alat
        k(    1) = (   0.0000000   0.0000000   0.0000000), wk =   1.0000000

     Dense  grid:  1918138 G-vectors     FFT dimensions: ( 125, 135, 432)

     Smooth grid:   485265 G-vectors     FFT dimensions: (  80,  90, 288)

     Estimated max dynamical RAM per process >     320.12 MB

     Estimated total dynamical RAM >      20.01 GB
     Generating pointlists ...
     new r_m :   0.0801 (alat units)  1.4184 (a.u.) for type    1
     new r_m :   0.0869 (alat units)  1.5388 (a.u.) for type    2
     new r_m :   0.0650 (alat units)  1.1499 (a.u.) for type    3
     new r_m :   0.0439 (alat units)  0.7773 (a.u.) for type    4
     new r_m :   0.0439 (alat units)  0.7773 (a.u.) for type    5

     Initial potential from superposition of free atoms

     starting charge    1077.8900, renormalised to    1078.0000

     negative rho (up, down):  1.237E-03 4.549E-04
 
     Adding external electric field

     Computed dipole along edir(3) : 
        Dipole                1.6169 Ry au,          4.1098 Debye
        Dipole field          0.0010 Ry au, 
 
        Potential amp.       -0.1085 Ry
        Total length         54.2615 bohr
 
 
     Adding external electric field

     Computed dipole along edir(3) : 
        Dipole                1.6169 Ry au,          4.1098 Debye
        Dipole field          0.0010 Ry au, 
 
        Potential amp.       -0.1085 Ry
        Total length         54.2615 bohr
 
     Starting wfcs are  812 randomized atomic wfcs

     total cpu time spent up to now is       12.2 secs

     Self-consistent Calculation

     iteration #  1     ecut=    50.00 Ry     beta= 0.10
     Davidson diagonalization with overlap
     ethr =  1.00E-02,  avg # of iterations =  6.0

     negative rho (up, down):  3.453E-01 6.394E-06
 
     Adding external electric field

     Computed dipole along edir(3) : 
        Dipole               -3.2775 Ry au,         -8.3306 Debye
        Dipole field         -0.0020 Ry au, 
 
        Potential amp.        0.2200 Ry
        Total length         54.2615 bohr
 
 
     Adding external electric field

     Computed dipole along edir(3) : 
        Dipole               -3.2775 Ry au,         -8.3306 Debye
        Dipole field         -0.0020 Ry au, 
 
        Potential amp.        0.2200 Ry
        Total length         54.2615 bohr
 

     total cpu time spent up to now is       45.3 secs

     total energy              =   -7180.86551382 Ry
     estimated scf accuracy    <     757.31175982 Ry

     total magnetization       =   216.00 Bohr mag/cell
     absolute magnetization    =   296.66 Bohr mag/cell

     iteration #  2     ecut=    50.00 Ry     beta= 0.10
     Davidson diagonalization with overlap
     ethr =  1.00E-02,  avg # of iterations =  2.0

     negative rho (up, down):  3.175E-01 7.139E-06
 
     Adding external electric field

     Computed dipole along edir(3) : 
        Dipole               -2.4058 Ry au,         -6.1150 Debye
        Dipole field         -0.0015 Ry au, 
 
        Potential amp.        0.1615 Ry
        Total length         54.2615 bohr
 
 
     Adding external electric field

     Computed dipole along edir(3) : 
        Dipole               -2.4058 Ry au,         -6.1150 Debye
        Dipole field         -0.0015 Ry au, 
 
        Potential amp.        0.1615 Ry
        Total length         54.2615 bohr
 

     total cpu time spent up to now is       66.0 secs

     total energy              =   -7264.73773927 Ry
     estimated scf accuracy    <     159.60184804 Ry

     total magnetization       =   144.84 Bohr mag/cell
     absolute magnetization    =   196.71 Bohr mag/cell

     iteration #  3     ecut=    50.00 Ry     beta= 0.10
     Davidson diagonalization with overlap
     ethr =  1.00E-02,  avg # of iterations =  1.5

     negative rho (up, down):  2.746E-01 6.853E-06
 
     Adding external electric field

     Computed dipole along edir(3) : 
        Dipole               -1.9537 Ry au,         -4.9659 Debye
        Dipole field         -0.0012 Ry au, 
 
        Potential amp.        0.1311 Ry
        Total length         54.2615 bohr
 
 
     Adding external electric field

     Computed dipole along edir(3) : 
        Dipole               -1.9537 Ry au,         -4.9659 Debye
        Dipole field         -0.0012 Ry au, 
 
        Potential amp.        0.1311 Ry
        Total length         54.2615 bohr
 

     total cpu time spent up to now is       81.9 secs

     total energy              =   -7298.00837219 Ry
     estimated scf accuracy    <      97.95425402 Ry

     total magnetization       =   122.16 Bohr mag/cell
     absolute magnetization    =   176.67 Bohr mag/cell

     iteration #  4     ecut=    50.00 Ry     beta= 0.10
     Davidson diagonalization with overlap
     ethr =  9.09E-03,  avg # of iterations =  1.5

     negative rho (up, down):  2.008E-01 3.396E-06
 
     Adding external electric field

     Computed dipole along edir(3) : 
        Dipole               -1.9665 Ry au,         -4.9983 Debye
        Dipole field         -0.0012 Ry au, 
 
        Potential amp.        0.1320 Ry
        Total length         54.2615 bohr
 
 
     Adding external electric field

     Computed dipole along edir(3) : 
        Dipole               -1.9665 Ry au,         -4.9983 Debye
        Dipole field         -0.0012 Ry au, 
 
        Potential amp.        0.1320 Ry
        Total length         54.2615 bohr
 

     total cpu time spent up to now is       97.6 secs

     total energy              =   -7331.78083432 Ry
     estimated scf accuracy    <      76.13044830 Ry

     total magnetization       =   105.33 Bohr mag/cell
     absolute magnetization    =   161.48 Bohr mag/cell

     iteration #  5     ecut=    50.00 Ry     beta= 0.10
     Davidson diagonalization with overlap
     ethr =  7.06E-03,  avg # of iterations =  1.5

     negative rho (up, down):  3.342E-03 5.372E-08
 
     Adding external electric field

     Computed dipole along edir(3) : 
        Dipole               -1.3739 Ry au,         -3.4921 Debye
        Dipole field         -0.0008 Ry au, 
 
        Potential amp.        0.0922 Ry
        Total length         54.2615 bohr
 
 
     Adding external electric field

     Computed dipole along edir(3) : 
        Dipole               -1.3739 Ry au,         -3.4921 Debye
        Dipole field         -0.0008 Ry au, 
 
        Potential amp.        0.0922 Ry
        Total length         54.2615 bohr
 

     total cpu time spent up to now is      113.6 secs

     total energy              =   -7388.54374794 Ry
     estimated scf accuracy    <      57.97942922 Ry

     total magnetization       =    88.00 Bohr mag/cell
     absolute magnetization    =   144.03 Bohr mag/cell

     iteration #  6     ecut=    50.00 Ry     beta= 0.10
     Davidson diagonalization with overlap
     ethr =  5.38E-03,  avg # of iterations =  1.5

     negative rho (up, down):  2.276E-05 5.202E-05
 
     Adding external electric field

     Computed dipole along edir(3) : 
        Dipole               -1.0342 Ry au,         -2.6286 Debye
        Dipole field         -0.0006 Ry au, 
 
        Potential amp.        0.0694 Ry
        Total length         54.2615 bohr
 
 
     Adding external electric field

     Computed dipole along edir(3) : 
        Dipole               -1.0342 Ry au,         -2.6286 Debye
        Dipole field         -0.0006 Ry au, 
 
        Potential amp.        0.0694 Ry
        Total length         54.2615 bohr
 

     total cpu time spent up to now is      128.9 secs

     total energy              =   -7395.87496467 Ry
     estimated scf accuracy    <       8.75246763 Ry

     total magnetization       =    79.87 Bohr mag/cell
     absolute magnetization    =   111.22 Bohr mag/cell

     iteration #  7     ecut=    50.00 Ry     beta= 0.10
     Davidson diagonalization with overlap
     ethr =  8.12E-04,  avg # of iterations =  7.0

     negative rho (up, down):  2.269E-05 4.488E-05
 
     Adding external electric field

     Computed dipole along edir(3) : 
        Dipole               -1.0427 Ry au,         -2.6502 Debye
        Dipole field         -0.0006 Ry au, 
 
        Potential amp.        0.0700 Ry
        Total length         54.2615 bohr
 
 
     Adding external electric field

     Computed dipole along edir(3) : 
        Dipole               -1.0427 Ry au,         -2.6502 Debye
        Dipole field         -0.0006 Ry au, 
 
        Potential amp.        0.0700 Ry
        Total length         54.2615 bohr
 

     total cpu time spent up to now is      159.1 secs

     total energy              =   -7397.62654751 Ry
     estimated scf accuracy    <       9.77512103 Ry

     total magnetization       =    71.89 Bohr mag/cell
     absolute magnetization    =    89.13 Bohr mag/cell

     iteration #  8     ecut=    50.00 Ry     beta= 0.10
     Davidson diagonalization with overlap
     ethr =  8.12E-04,  avg # of iterations =  1.0

     negative rho (up, down):  2.167E-05 4.267E-05
 
     Adding external electric field

     Computed dipole along edir(3) : 
        Dipole               -0.9418 Ry au,         -2.3939 Debye
        Dipole field         -0.0006 Ry au, 
 
        Potential amp.        0.0632 Ry
        Total length         54.2615 bohr
 
 
     Adding external electric field

     Computed dipole along edir(3) : 
        Dipole               -0.9418 Ry au,         -2.3939 Debye
        Dipole field         -0.0006 Ry au, 
 
        Potential amp.        0.0632 Ry
        Total length         54.2615 bohr
 

     total cpu time spent up to now is      173.7 secs

     total energy              =   -7397.47607632 Ry
     estimated scf accuracy    <      10.92924315 Ry

     total magnetization       =    71.48 Bohr mag/cell
     absolute magnetization    =    88.60 Bohr mag/cell

     iteration #  9     ecut=    50.00 Ry     beta= 0.10
     Davidson diagonalization with overlap
     ethr =  8.12E-04,  avg # of iterations =  1.0

     negative rho (up, down):  3.371E-05 7.620E-05
 
     Adding external electric field

     Computed dipole along edir(3) : 
        Dipole               -0.9713 Ry au,         -2.4688 Debye
        Dipole field         -0.0006 Ry au, 
 
        Potential amp.        0.0652 Ry
        Total length         54.2615 bohr
 
 
     Adding external electric field

     Computed dipole along edir(3) : 
        Dipole               -0.9713 Ry au,         -2.4688 Debye
        Dipole field         -0.0006 Ry au, 
 
        Potential amp.        0.0652 Ry
        Total length         54.2615 bohr
 

     total cpu time spent up to now is      188.4 secs

     total energy              =   -7397.50145337 Ry
     estimated scf accuracy    <       5.79501107 Ry

     total magnetization       =    73.73 Bohr mag/cell
     absolute magnetization    =    89.03 Bohr mag/cell

     iteration # 10     ecut=    50.00 Ry     beta= 0.10
     Davidson diagonalization with overlap
     ethr =  5.38E-04,  avg # of iterations =  1.5

     negative rho (up, down):  6.853E-05 1.206E-04
 
     Adding external electric field

     Computed dipole along edir(3) : 
        Dipole               -1.0649 Ry au,         -2.7068 Debye
        Dipole field         -0.0007 Ry au, 
 
        Potential amp.        0.0715 Ry
        Total length         54.2615 bohr
 
 
     Adding external electric field

     Computed dipole along edir(3) : 
        Dipole               -1.0649 Ry au,         -2.7068 Debye
        Dipole field         -0.0007 Ry au, 
 
        Potential amp.        0.0715 Ry
        Total length         54.2615 bohr
 

     total cpu time spent up to now is      203.9 secs

     total energy              =   -7397.60487080 Ry
     estimated scf accuracy    <       2.94953774 Ry

     total magnetization       =    76.98 Bohr mag/cell
     absolute magnetization    =    89.83 Bohr mag/cell

     iteration # 11     ecut=    50.00 Ry     beta= 0.10
     Davidson diagonalization with overlap
     ethr =  2.74E-04,  avg # of iterations =  1.5

     negative rho (up, down):  6.359E-05 1.498E-04
 
     Adding external electric field

     Computed dipole along edir(3) : 
        Dipole               -1.0683 Ry au,         -2.7153 Debye
        Dipole field         -0.0007 Ry au, 
 
        Potential amp.        0.0717 Ry
        Total length         54.2615 bohr
 
 
     Adding external electric field

     Computed dipole along edir(3) : 
        Dipole               -1.0683 Ry au,         -2.7153 Debye
        Dipole field         -0.0007 Ry au, 
 
        Potential amp.        0.0717 Ry
        Total length         54.2615 bohr
 

     total cpu time spent up to now is      218.6 secs

     total energy              =   -7397.71056350 Ry
     estimated scf accuracy    <       0.77297142 Ry

     total magnetization       =    79.79 Bohr mag/cell
     absolute magnetization    =    90.74 Bohr mag/cell

     iteration # 12     ecut=    50.00 Ry     beta= 0.10
     Davidson diagonalization with overlap
     ethr =  7.17E-05,  avg # of iterations =  9.5

     negative rho (up, down):  4.025E-05 1.769E-04
 
     Adding external electric field

     Computed dipole along edir(3) : 
        Dipole               -0.9659 Ry au,         -2.4551 Debye
        Dipole field         -0.0006 Ry au, 
 
        Potential amp.        0.0648 Ry
        Total length         54.2615 bohr
 
 
     Adding external electric field

     Computed dipole along edir(3) : 
        Dipole               -0.9659 Ry au,         -2.4551 Debye
        Dipole field         -0.0006 Ry au, 
 
        Potential amp.        0.0648 Ry
        Total length         54.2615 bohr
 

     total cpu time spent up to now is      242.6 secs

     total energy              =   -7397.88843207 Ry
     estimated scf accuracy    <       0.57915123 Ry

     total magnetization       =    80.54 Bohr mag/cell
     absolute magnetization    =    89.69 Bohr mag/cell

     iteration # 13     ecut=    50.00 Ry     beta= 0.10
     Davidson diagonalization with overlap
     ethr =  5.37E-05,  avg # of iterations =  2.0

     negative rho (up, down):  2.933E-06 1.225E-04
 
     Adding external electric field

     Computed dipole along edir(3) : 
        Dipole               -0.8180 Ry au,         -2.0791 Debye
        Dipole field         -0.0005 Ry au, 
 
        Potential amp.        0.0549 Ry
        Total length         54.2615 bohr
 
 
     Adding external electric field

     Computed dipole along edir(3) : 
        Dipole               -0.8180 Ry au,         -2.0791 Debye
        Dipole field         -0.0005 Ry au, 
 
        Potential amp.        0.0549 Ry
        Total length         54.2615 bohr
 

     total cpu time spent up to now is      257.9 secs

     total energy              =   -7397.99047904 Ry
     estimated scf accuracy    <       0.47269304 Ry

     total magnetization       =    80.96 Bohr mag/cell
     absolute magnetization    =    87.16 Bohr mag/cell

     iteration # 14     ecut=    50.00 Ry     beta= 0.10
     Davidson diagonalization with overlap
     ethr =  4.38E-05,  avg # of iterations =  2.0

     negative rho (up, down):  2.171E-05 1.424E-04
 
     Adding external electric field

     Computed dipole along edir(3) : 
        Dipole               -0.8624 Ry au,         -2.1920 Debye
        Dipole field         -0.0005 Ry au, 
 
        Potential amp.        0.0579 Ry
        Total length         54.2615 bohr
 
 
     Adding external electric field

     Computed dipole along edir(3) : 
        Dipole               -0.8624 Ry au,         -2.1920 Debye
        Dipole field         -0.0005 Ry au, 
 
        Potential amp.        0.0579 Ry
        Total length         54.2615 bohr
 

     total cpu time spent up to now is      273.3 secs

     total energy              =   -7398.02594154 Ry
     estimated scf accuracy    <       1.16417539 Ry

     total magnetization       =    79.29 Bohr mag/cell
     absolute magnetization    =    82.75 Bohr mag/cell

     iteration # 15     ecut=    50.00 Ry     beta= 0.10
     Davidson diagonalization with overlap
     ethr =  4.38E-05,  avg # of iterations =  1.0

     negative rho (up, down):  2.290E-04 1.092E-04
 
     Adding external electric field

     Computed dipole along edir(3) : 
        Dipole               -0.9236 Ry au,         -2.3477 Debye
        Dipole field         -0.0006 Ry au, 
 
        Potential amp.        0.0620 Ry
        Total length         54.2615 bohr
 
 
     Adding external electric field

     Computed dipole along edir(3) : 
        Dipole               -0.9236 Ry au,         -2.3477 Debye
        Dipole field         -0.0006 Ry au, 
 
        Potential amp.        0.0620 Ry
        Total length         54.2615 bohr
 

     total cpu time spent up to now is      287.9 secs

     total energy              =   -7398.02426618 Ry
     estimated scf accuracy    <       0.57846690 Ry

     total magnetization       =    80.14 Bohr mag/cell
     absolute magnetization    =    83.42 Bohr mag/cell

     iteration # 16     ecut=    50.00 Ry     beta= 0.10
     Davidson diagonalization with overlap
     ethr =  4.38E-05,  avg # of iterations =  1.5

     negative rho (up, down):  3.120E-04 8.092E-05
 
     Adding external electric field

     Computed dipole along edir(3) : 
        Dipole               -0.9111 Ry au,         -2.3158 Debye
        Dipole field         -0.0006 Ry au, 
 
        Potential amp.        0.0611 Ry
        Total length         54.2615 bohr
 
 
     Adding external electric field

     Computed dipole along edir(3) : 
        Dipole               -0.9111 Ry au,         -2.3158 Debye
        Dipole field         -0.0006 Ry au, 
 
        Potential amp.        0.0611 Ry
        Total length         54.2615 bohr
 

     total cpu time spent up to now is      303.7 secs

     total energy              =   -7398.03285353 Ry
     estimated scf accuracy    <       0.17494332 Ry

     total magnetization       =    80.31 Bohr mag/cell
     absolute magnetization    =    82.73 Bohr mag/cell

     iteration # 17     ecut=    50.00 Ry     beta= 0.10
     Davidson diagonalization with overlap
     ethr =  1.62E-05,  avg # of iterations =  1.5

     negative rho (up, down):  4.047E-04 5.763E-05
 
     Adding external electric field

     Computed dipole along edir(3) : 
        Dipole               -0.8998 Ry au,         -2.2871 Debye
        Dipole field         -0.0006 Ry au, 
 
        Potential amp.        0.0604 Ry
        Total length         54.2615 bohr
 
 
     Adding external electric field

     Computed dipole along edir(3) : 
        Dipole               -0.8998 Ry au,         -2.2871 Debye
        Dipole field         -0.0006 Ry au, 
 
        Potential amp.        0.0604 Ry
        Total length         54.2615 bohr
 

     total cpu time spent up to now is      319.0 secs

     total energy              =   -7398.02755245 Ry
     estimated scf accuracy    <       0.13180985 Ry

     total magnetization       =    80.54 Bohr mag/cell
     absolute magnetization    =    82.79 Bohr mag/cell

     iteration # 18     ecut=    50.00 Ry     beta= 0.10
     Davidson diagonalization with overlap
     ethr =  1.22E-05,  avg # of iterations =  1.5

     negative rho (up, down):  1.292E-04 2.520E-06
 
     Adding external electric field

     Computed dipole along edir(3) : 
        Dipole               -0.8726 Ry au,         -2.2180 Debye
        Dipole field         -0.0005 Ry au, 
 
        Potential amp.        0.0586 Ry
        Total length         54.2615 bohr
 
 
     Adding external electric field

     Computed dipole along edir(3) : 
        Dipole               -0.8726 Ry au,         -2.2180 Debye
        Dipole field         -0.0005 Ry au, 
 
        Potential amp.        0.0586 Ry
        Total length         54.2615 bohr
 

     total cpu time spent up to now is      334.5 secs

     total energy              =   -7398.03062951 Ry
     estimated scf accuracy    <       0.11981912 Ry

     total magnetization       =    80.04 Bohr mag/cell
     absolute magnetization    =    82.08 Bohr mag/cell

     iteration # 19     ecut=    50.00 Ry     beta= 0.10
     Davidson diagonalization with overlap
     ethr =  1.11E-05,  avg # of iterations =  2.0

     negative rho (up, down):  4.358E-05 7.818E-06
 
     Adding external electric field

     Computed dipole along edir(3) : 
        Dipole               -0.8691 Ry au,         -2.2091 Debye
        Dipole field         -0.0005 Ry au, 
 
        Potential amp.        0.0583 Ry
        Total length         54.2615 bohr
 
 
     Adding external electric field

     Computed dipole along edir(3) : 
        Dipole               -0.8691 Ry au,         -2.2091 Debye
        Dipole field         -0.0005 Ry au, 
 
        Potential amp.        0.0583 Ry
        Total length         54.2615 bohr
 

     total cpu time spent up to now is      351.3 secs

     total energy              =   -7398.03694259 Ry
     estimated scf accuracy    <       0.10438671 Ry

     total magnetization       =    80.62 Bohr mag/cell
     absolute magnetization    =    82.43 Bohr mag/cell

     iteration # 20     ecut=    50.00 Ry     beta= 0.10
     Davidson diagonalization with overlap
     ethr =  9.68E-06,  avg # of iterations =  7.5

     negative rho (up, down):  2.913E-05 9.076E-06
 
     Adding external electric field

     Computed dipole along edir(3) : 
        Dipole               -0.8599 Ry au,         -2.1856 Debye
        Dipole field         -0.0005 Ry au, 
 
        Potential amp.        0.0577 Ry
        Total length         54.2615 bohr
 
 
     Adding external electric field

     Computed dipole along edir(3) : 
        Dipole               -0.8599 Ry au,         -2.1856 Debye
        Dipole field         -0.0005 Ry au, 
 
        Potential amp.        0.0577 Ry
        Total length         54.2615 bohr
 

     total cpu time spent up to now is      370.4 secs

     total energy              =   -7398.03880955 Ry
     estimated scf accuracy    <       0.03733813 Ry

     total magnetization       =    80.73 Bohr mag/cell
     absolute magnetization    =    82.30 Bohr mag/cell

     iteration # 21     ecut=    50.00 Ry     beta= 0.10
     Davidson diagonalization with overlap
     ethr =  3.46E-06,  avg # of iterations = 11.0

     negative rho (up, down):  2.284E-06 7.753E-07
 
     Adding external electric field

     Computed dipole along edir(3) : 
        Dipole               -0.7884 Ry au,         -2.0038 Debye
        Dipole field         -0.0005 Ry au, 
 
        Potential amp.        0.0529 Ry
        Total length         54.2615 bohr
 
 
     Adding external electric field

     Computed dipole along edir(3) : 
        Dipole               -0.7884 Ry au,         -2.0038 Debye
        Dipole field         -0.0005 Ry au, 
 
        Potential amp.        0.0529 Ry
        Total length         54.2615 bohr
 

     total cpu time spent up to now is      398.1 secs

     total energy              =   -7398.03925768 Ry
     estimated scf accuracy    <       0.02334989 Ry

     total magnetization       =    80.47 Bohr mag/cell
     absolute magnetization    =    82.03 Bohr mag/cell

     iteration # 22     ecut=    50.00 Ry     beta= 0.10
     Davidson diagonalization with overlap
     ethr =  2.17E-06,  avg # of iterations = 11.5

     negative rho (up, down):  2.248E-06 8.826E-07
 
     Adding external electric field

     Computed dipole along edir(3) : 
        Dipole               -0.7478 Ry au,         -1.9008 Debye
        Dipole field         -0.0005 Ry au, 
 
        Potential amp.        0.0502 Ry
        Total length         54.2615 bohr
 
 
     Adding external electric field

     Computed dipole along edir(3) : 
        Dipole               -0.7478 Ry au,         -1.9008 Debye
        Dipole field         -0.0005 Ry au, 
 
        Potential amp.        0.0502 Ry
        Total length         54.2615 bohr
 

     total cpu time spent up to now is      429.5 secs

     total energy              =   -7398.03945655 Ry
     estimated scf accuracy    <       0.11984591 Ry

     total magnetization       =    80.21 Bohr mag/cell
     absolute magnetization    =    81.76 Bohr mag/cell

     iteration # 23     ecut=    50.00 Ry     beta= 0.10
     Davidson diagonalization with overlap
     ethr =  2.17E-06,  avg # of iterations =  2.0

     negative rho (up, down):  1.670E-05 8.178E-06
 
     Adding external electric field

     Computed dipole along edir(3) : 
        Dipole               -0.7209 Ry au,         -1.8324 Debye
        Dipole field         -0.0004 Ry au, 
 
        Potential amp.        0.0484 Ry
        Total length         54.2615 bohr
 
 
     Adding external electric field

     Computed dipole along edir(3) : 
        Dipole               -0.7209 Ry au,         -1.8324 Debye
        Dipole field         -0.0004 Ry au, 
 
        Potential amp.        0.0484 Ry
        Total length         54.2615 bohr
 

     total cpu time spent up to now is      445.8 secs

     total energy              =   -7398.03837939 Ry
     estimated scf accuracy    <       0.11394365 Ry

     total magnetization       =    80.35 Bohr mag/cell
     absolute magnetization    =    81.80 Bohr mag/cell

     iteration # 24     ecut=    50.00 Ry     beta= 0.10
     Davidson diagonalization with overlap
     ethr =  2.17E-06,  avg # of iterations = 10.0

     negative rho (up, down):  1.676E-04 1.032E-04
 
     Adding external electric field

     Computed dipole along edir(3) : 
        Dipole               -0.6879 Ry au,         -1.7484 Debye
        Dipole field         -0.0004 Ry au, 
 
        Potential amp.        0.0462 Ry
        Total length         54.2615 bohr
 
 
     Adding external electric field

     Computed dipole along edir(3) : 
        Dipole               -0.6879 Ry au,         -1.7484 Debye
        Dipole field         -0.0004 Ry au, 
 
        Potential amp.        0.0462 Ry
        Total length         54.2615 bohr
 

     total cpu time spent up to now is      467.5 secs

     total energy              =   -7398.03691505 Ry
     estimated scf accuracy    <       0.07657719 Ry

     total magnetization       =    80.40 Bohr mag/cell
     absolute magnetization    =    81.85 Bohr mag/cell

     iteration # 25     ecut=    50.00 Ry     beta= 0.10
     Davidson diagonalization with overlap
     ethr =  2.17E-06,  avg # of iterations =  2.0

     negative rho (up, down):  1.711E-04 1.103E-04
 
     Adding external electric field

     Computed dipole along edir(3) : 
        Dipole               -0.6952 Ry au,         -1.7670 Debye
        Dipole field         -0.0004 Ry au, 
 
        Potential amp.        0.0467 Ry
        Total length         54.2615 bohr
 
 
     Adding external electric field

     Computed dipole along edir(3) : 
        Dipole               -0.6952 Ry au,         -1.7670 Debye
        Dipole field         -0.0004 Ry au, 
 
        Potential amp.        0.0467 Ry
        Total length         54.2615 bohr
 

     total cpu time spent up to now is      484.4 secs

     total energy              =   -7398.03731518 Ry
     estimated scf accuracy    <       0.03597785 Ry

     total magnetization       =    80.29 Bohr mag/cell
     absolute magnetization    =    81.79 Bohr mag/cell

     iteration # 26     ecut=    50.00 Ry     beta= 0.10
     Davidson diagonalization with overlap
     ethr =  2.17E-06,  avg # of iterations =  1.5

     negative rho (up, down):  9.734E-05 6.603E-05
 
     Adding external electric field

     Computed dipole along edir(3) : 
        Dipole               -0.7224 Ry au,         -1.8361 Debye
        Dipole field         -0.0004 Ry au, 
 
        Potential amp.        0.0485 Ry
        Total length         54.2615 bohr
 
 
     Adding external electric field

     Computed dipole along edir(3) : 
        Dipole               -0.7224 Ry au,         -1.8361 Debye
        Dipole field         -0.0004 Ry au, 
 
        Potential amp.        0.0485 Ry
        Total length         54.2615 bohr
 

     total cpu time spent up to now is      500.0 secs

     total energy              =   -7398.03798576 Ry
     estimated scf accuracy    <       0.03046167 Ry

     total magnetization       =    80.35 Bohr mag/cell
     absolute magnetization    =    81.85 Bohr mag/cell

     iteration # 27     ecut=    50.00 Ry     beta= 0.10
     Davidson diagonalization with overlap
     ethr =  2.17E-06,  avg # of iterations =  1.0

     negative rho (up, down):  1.038E-04 7.237E-05
 
     Adding external electric field

     Computed dipole along edir(3) : 
        Dipole               -0.7098 Ry au,         -1.8042 Debye
        Dipole field         -0.0004 Ry au, 
 
        Potential amp.        0.0476 Ry
        Total length         54.2615 bohr
 
 
     Adding external electric field

     Computed dipole along edir(3) : 
        Dipole               -0.7098 Ry au,         -1.8042 Debye
        Dipole field         -0.0004 Ry au, 
 
        Potential amp.        0.0476 Ry
        Total length         54.2615 bohr
 

     total cpu time spent up to now is      514.2 secs

     total energy              =   -7398.03809767 Ry
     estimated scf accuracy    <       0.03000819 Ry

     total magnetization       =    80.37 Bohr mag/cell
     absolute magnetization    =    81.92 Bohr mag/cell

     iteration # 28     ecut=    50.00 Ry     beta= 0.10
     Davidson diagonalization with overlap
     ethr =  2.17E-06,  avg # of iterations =  1.0

     negative rho (up, down):  3.934E-04 3.462E-04
 
     Adding external electric field

     Computed dipole along edir(3) : 
        Dipole               -0.6056 Ry au,         -1.5393 Debye
        Dipole field         -0.0004 Ry au, 
 
        Potential amp.        0.0406 Ry
        Total length         54.2615 bohr
 
 
     Adding external electric field

     Computed dipole along edir(3) : 
        Dipole               -0.6056 Ry au,         -1.5393 Debye
        Dipole field         -0.0004 Ry au, 
 
        Potential amp.        0.0406 Ry
        Total length         54.2615 bohr
 

     total cpu time spent up to now is      528.9 secs

     total energy              =   -7398.03765958 Ry
     estimated scf accuracy    <       0.03251803 Ry

     total magnetization       =    80.36 Bohr mag/cell
     absolute magnetization    =    81.91 Bohr mag/cell

     iteration # 29     ecut=    50.00 Ry     beta= 0.10
     Davidson diagonalization with overlap
     ethr =  2.17E-06,  avg # of iterations =  2.0

     negative rho (up, down):  6.013E-04 5.941E-04
 
     Adding external electric field

     Computed dipole along edir(3) : 
        Dipole               -0.5662 Ry au,         -1.4391 Debye
        Dipole field         -0.0004 Ry au, 
 
        Potential amp.        0.0380 Ry
        Total length         54.2615 bohr
 
 
     Adding external electric field

     Computed dipole along edir(3) : 
        Dipole               -0.5662 Ry au,         -1.4391 Debye
        Dipole field         -0.0004 Ry au, 
 
        Potential amp.        0.0380 Ry
        Total length         54.2615 bohr
 

     total cpu time spent up to now is      546.2 secs

     total energy              =   -7398.03761274 Ry
     estimated scf accuracy    <       0.02242384 Ry

     total magnetization       =    80.42 Bohr mag/cell
     absolute magnetization    =    81.95 Bohr mag/cell

     iteration # 30     ecut=    50.00 Ry     beta= 0.10
     Davidson diagonalization with overlap
     ethr =  2.08E-06,  avg # of iterations =  2.0

     negative rho (up, down):  7.490E-04 7.256E-04
 
     Adding external electric field

     Computed dipole along edir(3) : 
        Dipole               -0.5587 Ry au,         -1.4201 Debye
        Dipole field         -0.0003 Ry au, 
 
        Potential amp.        0.0375 Ry
        Total length         54.2615 bohr
 
 
     Adding external electric field

     Computed dipole along edir(3) : 
        Dipole               -0.5587 Ry au,         -1.4201 Debye
        Dipole field         -0.0003 Ry au, 
 
        Potential amp.        0.0375 Ry
        Total length         54.2615 bohr
 

     total cpu time spent up to now is      563.2 secs

     total energy              =   -7398.03747238 Ry
     estimated scf accuracy    <       0.02277187 Ry

     total magnetization       =    80.39 Bohr mag/cell
     absolute magnetization    =    81.93 Bohr mag/cell

     iteration # 31     ecut=    50.00 Ry     beta= 0.10
     Davidson diagonalization with overlap
     ethr =  2.08E-06,  avg # of iterations =  1.5

     negative rho (up, down):  5.071E-04 4.825E-04
 
     Adding external electric field

     Computed dipole along edir(3) : 
        Dipole               -0.5666 Ry au,         -1.4401 Debye
        Dipole field         -0.0004 Ry au, 
 
        Potential amp.        0.0380 Ry
        Total length         54.2615 bohr
 
 
     Adding external electric field

     Computed dipole along edir(3) : 
        Dipole               -0.5666 Ry au,         -1.4401 Debye
        Dipole field         -0.0004 Ry au, 
 
        Potential amp.        0.0380 Ry
        Total length         54.2615 bohr
 

     total cpu time spent up to now is      578.6 secs

     total energy              =   -7398.03753011 Ry
     estimated scf accuracy    <       0.02117649 Ry

     total magnetization       =    80.40 Bohr mag/cell
     absolute magnetization    =    81.98 Bohr mag/cell

     iteration # 32     ecut=    50.00 Ry     beta= 0.10
     Davidson diagonalization with overlap
     ethr =  1.96E-06,  avg # of iterations =  2.0

     negative rho (up, down):  5.767E-04 5.425E-04
 
     Adding external electric field

     Computed dipole along edir(3) : 
        Dipole               -0.5675 Ry au,         -1.4425 Debye
        Dipole field         -0.0004 Ry au, 
 
        Potential amp.        0.0381 Ry
        Total length         54.2615 bohr
 
 
     Adding external electric field

     Computed dipole along edir(3) : 
        Dipole               -0.5675 Ry au,         -1.4425 Debye
        Dipole field         -0.0004 Ry au, 
 
        Potential amp.        0.0381 Ry
        Total length         54.2615 bohr
 

     total cpu time spent up to now is      594.8 secs

     total energy              =   -7398.03756639 Ry
     estimated scf accuracy    <       0.02055896 Ry

     total magnetization       =    80.40 Bohr mag/cell
     absolute magnetization    =    81.98 Bohr mag/cell

     iteration # 33     ecut=    50.00 Ry     beta= 0.10
     Davidson diagonalization with overlap
     ethr =  1.91E-06,  avg # of iterations =  1.5

     negative rho (up, down):  5.990E-04 6.335E-04
 
     Adding external electric field

     Computed dipole along edir(3) : 
        Dipole               -0.5270 Ry au,         -1.3395 Debye
        Dipole field         -0.0003 Ry au, 
 
        Potential amp.        0.0354 Ry
        Total length         54.2615 bohr
 
 
     Adding external electric field

     Computed dipole along edir(3) : 
        Dipole               -0.5270 Ry au,         -1.3395 Debye
        Dipole field         -0.0003 Ry au, 
 
        Potential amp.        0.0354 Ry
        Total length         54.2615 bohr
 

     total cpu time spent up to now is      610.3 secs

     total energy              =   -7398.03715523 Ry
     estimated scf accuracy    <       0.02153609 Ry

     total magnetization       =    80.40 Bohr mag/cell
     absolute magnetization    =    81.99 Bohr mag/cell

     iteration # 34     ecut=    50.00 Ry     beta= 0.10
     Davidson diagonalization with overlap
     ethr =  1.91E-06,  avg # of iterations =  2.0

     negative rho (up, down):  3.601E-04 3.599E-04
 
     Adding external electric field

     Computed dipole along edir(3) : 
        Dipole               -0.4940 Ry au,         -1.2556 Debye
        Dipole field         -0.0003 Ry au, 
 
        Potential amp.        0.0332 Ry
        Total length         54.2615 bohr
 
 
     Adding external electric field

     Computed dipole along edir(3) : 
        Dipole               -0.4940 Ry au,         -1.2556 Debye
        Dipole field         -0.0003 Ry au, 
 
        Potential amp.        0.0332 Ry
        Total length         54.2615 bohr
 

     total cpu time spent up to now is      627.2 secs

     total energy              =   -7398.03685577 Ry
     estimated scf accuracy    <       0.01892790 Ry

     total magnetization       =    80.40 Bohr mag/cell
     absolute magnetization    =    81.99 Bohr mag/cell

     iteration # 35     ecut=    50.00 Ry     beta= 0.10
     Davidson diagonalization with overlap
     ethr =  1.76E-06,  avg # of iterations =  2.0

     negative rho (up, down):  4.974E-04 4.632E-04
 
     Adding external electric field

     Computed dipole along edir(3) : 
        Dipole               -0.4548 Ry au,         -1.1561 Debye
        Dipole field         -0.0003 Ry au, 
 
        Potential amp.        0.0305 Ry
        Total length         54.2615 bohr
 
 
     Adding external electric field

     Computed dipole along edir(3) : 
        Dipole               -0.4548 Ry au,         -1.1561 Debye
        Dipole field         -0.0003 Ry au, 
 
        Potential amp.        0.0305 Ry
        Total length         54.2615 bohr
 

     total cpu time spent up to now is      643.8 secs

     total energy              =   -7398.03665336 Ry
     estimated scf accuracy    <       0.01569354 Ry

     total magnetization       =    80.40 Bohr mag/cell
     absolute magnetization    =    81.95 Bohr mag/cell

     iteration # 36     ecut=    50.00 Ry     beta= 0.10
     Davidson diagonalization with overlap
     ethr =  1.46E-06,  avg # of iterations =  2.0

     negative rho (up, down):  4.081E-03 3.795E-03
 
     Adding external electric field

     Computed dipole along edir(3) : 
        Dipole               -0.1765 Ry au,         -0.4486 Debye
        Dipole field         -0.0001 Ry au, 
 
        Potential amp.        0.0118 Ry
        Total length         54.2615 bohr
 
 
     Adding external electric field

     Computed dipole along edir(3) : 
        Dipole               -0.1765 Ry au,         -0.4486 Debye
        Dipole field         -0.0001 Ry au, 
 
        Potential amp.        0.0118 Ry
        Total length         54.2615 bohr
 

     total cpu time spent up to now is      661.2 secs

     total energy              =   -7398.03567683 Ry
     estimated scf accuracy    <       0.01413442 Ry

     total magnetization       =    80.42 Bohr mag/cell
     absolute magnetization    =    81.94 Bohr mag/cell

     iteration # 37     ecut=    50.00 Ry     beta= 0.10
     Davidson diagonalization with overlap
     c_bands:  4 eigenvalues not converged
     ethr =  1.31E-06,  avg # of iterations = 18.0

     negative rho (up, down):  5.346E-03 4.947E-03
 
     Adding external electric field

     Computed dipole along edir(3) : 
        Dipole               -0.1273 Ry au,         -0.3237 Debye
        Dipole field         -0.0001 Ry au, 
 
        Potential amp.        0.0085 Ry
        Total length         54.2615 bohr
 
 
     Adding external electric field

     Computed dipole along edir(3) : 
        Dipole               -0.1273 Ry au,         -0.3237 Debye
        Dipole field         -0.0001 Ry au, 
 
        Potential amp.        0.0085 Ry
        Total length         54.2615 bohr
 

     total cpu time spent up to now is      691.0 secs

     total energy              =   -7398.03592705 Ry
     estimated scf accuracy    <       0.00787552 Ry

     total magnetization       =    80.48 Bohr mag/cell
     absolute magnetization    =    82.07 Bohr mag/cell

     iteration # 38     ecut=    50.00 Ry     beta= 0.10
     Davidson diagonalization with overlap
     ethr =  7.31E-07,  avg # of iterations =  2.0

     negative rho (up, down):  4.971E-03 4.754E-03
 
     Adding external electric field

     Computed dipole along edir(3) : 
        Dipole               -0.0988 Ry au,         -0.2512 Debye
        Dipole field         -0.0001 Ry au, 
 
        Potential amp.        0.0066 Ry
        Total length         54.2615 bohr
 
 
     Adding external electric field

     Computed dipole along edir(3) : 
        Dipole               -0.0988 Ry au,         -0.2512 Debye
        Dipole field         -0.0001 Ry au, 
 
        Potential amp.        0.0066 Ry
        Total length         54.2615 bohr
 

     total cpu time spent up to now is      707.9 secs

     total energy              =   -7398.03603547 Ry
     estimated scf accuracy    <       0.00666734 Ry

     total magnetization       =    80.48 Bohr mag/cell
     absolute magnetization    =    82.11 Bohr mag/cell

     iteration # 39     ecut=    50.00 Ry     beta= 0.10
     Davidson diagonalization with overlap
     ethr =  6.18E-07,  avg # of iterations =  2.0

     negative rho (up, down):  1.783E-03 1.670E-03
 
     Adding external electric field

     Computed dipole along edir(3) : 
        Dipole               -0.1182 Ry au,         -0.3004 Debye
        Dipole field         -0.0001 Ry au, 
 
        Potential amp.        0.0079 Ry
        Total length         54.2615 bohr
 
 
     Adding external electric field

     Computed dipole along edir(3) : 
        Dipole               -0.1182 Ry au,         -0.3004 Debye
        Dipole field         -0.0001 Ry au, 
 
        Potential amp.        0.0079 Ry
        Total length         54.2615 bohr
 

     total cpu time spent up to now is      725.1 secs

     total energy              =   -7398.03600811 Ry
     estimated scf accuracy    <       0.00429574 Ry

     total magnetization       =    80.45 Bohr mag/cell
     absolute magnetization    =    82.09 Bohr mag/cell

     iteration # 40     ecut=    50.00 Ry     beta= 0.10
     Davidson diagonalization with overlap
     ethr =  3.98E-07,  avg # of iterations =  2.0

     negative rho (up, down):  6.561E-04 6.988E-04
 
     Adding external electric field

     Computed dipole along edir(3) : 
        Dipole               -0.1231 Ry au,         -0.3130 Debye
        Dipole field         -0.0001 Ry au, 
 
        Potential amp.        0.0083 Ry
        Total length         54.2615 bohr
 
 
     Adding external electric field

     Computed dipole along edir(3) : 
        Dipole               -0.1231 Ry au,         -0.3130 Debye
        Dipole field         -0.0001 Ry au, 
 
        Potential amp.        0.0083 Ry
        Total length         54.2615 bohr
 

     total cpu time spent up to now is      741.9 secs

     total energy              =   -7398.03600027 Ry
     estimated scf accuracy    <       0.00271480 Ry

     total magnetization       =    80.45 Bohr mag/cell
     absolute magnetization    =    82.08 Bohr mag/cell

     iteration # 41     ecut=    50.00 Ry     beta= 0.10
     Davidson diagonalization with overlap
     ethr =  2.52E-07,  avg # of iterations =  7.5

     negative rho (up, down):  9.979E-05 9.400E-05
 
     Adding external electric field

     Computed dipole along edir(3) : 
        Dipole               -0.1693 Ry au,         -0.4304 Debye
        Dipole field         -0.0001 Ry au, 
 
        Potential amp.        0.0114 Ry
        Total length         54.2615 bohr
 
 
     Adding external electric field

     Computed dipole along edir(3) : 
        Dipole               -0.1693 Ry au,         -0.4304 Debye
        Dipole field         -0.0001 Ry au, 
 
        Potential amp.        0.0114 Ry
        Total length         54.2615 bohr
 

     total cpu time spent up to now is      762.4 secs

     total energy              =   -7398.03604995 Ry
     estimated scf accuracy    <       0.00085192 Ry

     total magnetization       =    80.46 Bohr mag/cell
     absolute magnetization    =    82.03 Bohr mag/cell

     iteration # 42     ecut=    50.00 Ry     beta= 0.10
     Davidson diagonalization with overlap
     ethr =  7.90E-08,  avg # of iterations =  2.0

     negative rho (up, down):  1.936E-04 1.415E-04
 
     Adding external electric field

     Computed dipole along edir(3) : 
        Dipole               -0.1749 Ry au,         -0.4445 Debye
        Dipole field         -0.0001 Ry au, 
 
        Potential amp.        0.0117 Ry
        Total length         54.2615 bohr
 
 
     Adding external electric field

     Computed dipole along edir(3) : 
        Dipole               -0.1749 Ry au,         -0.4445 Debye
        Dipole field         -0.0001 Ry au, 
 
        Potential amp.        0.0117 Ry
        Total length         54.2615 bohr
 

     total cpu time spent up to now is      779.6 secs

     total energy              =   -7398.03603229 Ry
     estimated scf accuracy    <       0.00056306 Ry

     total magnetization       =    80.47 Bohr mag/cell
     absolute magnetization    =    82.03 Bohr mag/cell

     iteration # 43     ecut=    50.00 Ry     beta= 0.10
     Davidson diagonalization with overlap
     ethr =  5.22E-08,  avg # of iterations =  2.0

     negative rho (up, down):  4.030E-04 3.067E-04
 
     Adding external electric field

     Computed dipole along edir(3) : 
        Dipole               -0.1780 Ry au,         -0.4525 Debye
        Dipole field         -0.0001 Ry au, 
 
        Potential amp.        0.0119 Ry
        Total length         54.2615 bohr
 
 
     Adding external electric field

     Computed dipole along edir(3) : 
        Dipole               -0.1780 Ry au,         -0.4525 Debye
        Dipole field         -0.0001 Ry au, 
 
        Potential amp.        0.0119 Ry
        Total length         54.2615 bohr
 

     total cpu time spent up to now is      796.5 secs

     total energy              =   -7398.03603813 Ry
     estimated scf accuracy    <       0.00038637 Ry

     total magnetization       =    80.47 Bohr mag/cell
     absolute magnetization    =    82.04 Bohr mag/cell

     iteration # 44     ecut=    50.00 Ry     beta= 0.10
     Davidson diagonalization with overlap
     ethr =  3.58E-08,  avg # of iterations =  2.0

     negative rho (up, down):  3.619E-04 2.836E-04
 
     Adding external electric field

     Computed dipole along edir(3) : 
        Dipole               -0.1869 Ry au,         -0.4750 Debye
        Dipole field         -0.0001 Ry au, 
 
        Potential amp.        0.0125 Ry
        Total length         54.2615 bohr
 
 
     Adding external electric field

     Computed dipole along edir(3) : 
        Dipole               -0.1869 Ry au,         -0.4750 Debye
        Dipole field         -0.0001 Ry au, 
 
        Potential amp.        0.0125 Ry
        Total length         54.2615 bohr
 

     total cpu time spent up to now is      812.5 secs

     total energy              =   -7398.03604819 Ry
     estimated scf accuracy    <       0.00027304 Ry

     total magnetization       =    80.46 Bohr mag/cell
     absolute magnetization    =    82.03 Bohr mag/cell

     iteration # 45     ecut=    50.00 Ry     beta= 0.10
     Davidson diagonalization with overlap
     ethr =  2.53E-08,  avg # of iterations =  2.0

     negative rho (up, down):  2.371E-04 1.398E-04
 
     Adding external electric field

     Computed dipole along edir(3) : 
        Dipole               -0.1914 Ry au,         -0.4866 Debye
        Dipole field         -0.0001 Ry au, 
 
        Potential amp.        0.0128 Ry
        Total length         54.2615 bohr
 
 
     Adding external electric field

     Computed dipole along edir(3) : 
        Dipole               -0.1914 Ry au,         -0.4866 Debye
        Dipole field         -0.0001 Ry au, 
 
        Potential amp.        0.0128 Ry
        Total length         54.2615 bohr
 

     total cpu time spent up to now is      828.1 secs

     total energy              =   -7398.03608083 Ry
     estimated scf accuracy    <       0.00020714 Ry

     total magnetization       =    80.45 Bohr mag/cell
     absolute magnetization    =    82.01 Bohr mag/cell

     iteration # 46     ecut=    50.00 Ry     beta= 0.10
     Davidson diagonalization with overlap
     ethr =  1.92E-08,  avg # of iterations =  2.0

     negative rho (up, down):  1.739E-04 7.947E-05
 
     Adding external electric field

     Computed dipole along edir(3) : 
        Dipole               -0.1964 Ry au,         -0.4992 Debye
        Dipole field         -0.0001 Ry au, 
 
        Potential amp.        0.0132 Ry
        Total length         54.2615 bohr
 
 
     Adding external electric field

     Computed dipole along edir(3) : 
        Dipole               -0.1964 Ry au,         -0.4992 Debye
        Dipole field         -0.0001 Ry au, 
 
        Potential amp.        0.0132 Ry
        Total length         54.2615 bohr
 

     total cpu time spent up to now is      844.0 secs

     total energy              =   -7398.03609359 Ry
     estimated scf accuracy    <       0.00012345 Ry

     total magnetization       =    80.45 Bohr mag/cell
     absolute magnetization    =    82.00 Bohr mag/cell

     iteration # 47     ecut=    50.00 Ry     beta= 0.10
     Davidson diagonalization with overlap
     ethr =  1.15E-08,  avg # of iterations =  2.0

     negative rho (up, down):  1.194E-04 2.821E-05
 
     Adding external electric field

     Computed dipole along edir(3) : 
        Dipole               -0.1904 Ry au,         -0.4840 Debye
        Dipole field         -0.0001 Ry au, 
 
        Potential amp.        0.0128 Ry
        Total length         54.2615 bohr
 
 
     Adding external electric field

     Computed dipole along edir(3) : 
        Dipole               -0.1904 Ry au,         -0.4840 Debye
        Dipole field         -0.0001 Ry au, 
 
        Potential amp.        0.0128 Ry
        Total length         54.2615 bohr
 

     total cpu time spent up to now is      859.1 secs

     total energy              =   -7398.03610788 Ry
     estimated scf accuracy    <       0.00010027 Ry

     total magnetization       =    80.45 Bohr mag/cell
     absolute magnetization    =    81.99 Bohr mag/cell

     iteration # 48     ecut=    50.00 Ry     beta= 0.10
     Davidson diagonalization with overlap
     ethr =  9.30E-09,  avg # of iterations =  2.0

     negative rho (up, down):  5.062E-04 2.722E-04
 
     Adding external electric field

     Computed dipole along edir(3) : 
        Dipole               -0.1707 Ry au,         -0.4339 Debye
        Dipole field         -0.0001 Ry au, 
 
        Potential amp.        0.0115 Ry
        Total length         54.2615 bohr
 
 
     Adding external electric field

     Computed dipole along edir(3) : 
        Dipole               -0.1707 Ry au,         -0.4339 Debye
        Dipole field         -0.0001 Ry au, 
 
        Potential amp.        0.0115 Ry
        Total length         54.2615 bohr
 

     total cpu time spent up to now is      875.5 secs

     total energy              =   -7398.03612375 Ry
     estimated scf accuracy    <       0.00007535 Ry

     total magnetization       =    80.45 Bohr mag/cell
     absolute magnetization    =    81.97 Bohr mag/cell

     iteration # 49     ecut=    50.00 Ry     beta= 0.10
     Davidson diagonalization with overlap
     ethr =  6.99E-09,  avg # of iterations =  2.0

     negative rho (up, down):  7.988E-04 5.363E-04
 
     Adding external electric field

     Computed dipole along edir(3) : 
        Dipole               -0.1631 Ry au,         -0.4147 Debye
        Dipole field         -0.0001 Ry au, 
 
        Potential amp.        0.0109 Ry
        Total length         54.2615 bohr
 
 
     Adding external electric field

     Computed dipole along edir(3) : 
        Dipole               -0.1631 Ry au,         -0.4147 Debye
        Dipole field         -0.0001 Ry au, 
 
        Potential amp.        0.0109 Ry
        Total length         54.2615 bohr
 

     total cpu time spent up to now is      891.2 secs

     total energy              =   -7398.03613182 Ry
     estimated scf accuracy    <       0.00004754 Ry

     total magnetization       =    80.45 Bohr mag/cell
     absolute magnetization    =    81.96 Bohr mag/cell

     iteration # 50     ecut=    50.00 Ry     beta= 0.10
     Davidson diagonalization with overlap
     ethr =  4.41E-09,  avg # of iterations =  1.0

     negative rho (up, down):  6.327E-04 3.144E-04
 
     Adding external electric field

     Computed dipole along edir(3) : 
        Dipole               -0.1624 Ry au,         -0.4128 Debye
        Dipole field         -0.0001 Ry au, 
 
        Potential amp.        0.0109 Ry
        Total length         54.2615 bohr
 
 
     Adding external electric field

     Computed dipole along edir(3) : 
        Dipole               -0.1624 Ry au,         -0.4128 Debye
        Dipole field         -0.0001 Ry au, 
 
        Potential amp.        0.0109 Ry
        Total length         54.2615 bohr
 

     total cpu time spent up to now is      904.8 secs

     total energy              =   -7398.03613760 Ry
     estimated scf accuracy    <       0.00003551 Ry

     total magnetization       =    80.45 Bohr mag/cell
     absolute magnetization    =    81.96 Bohr mag/cell

     iteration # 51     ecut=    50.00 Ry     beta= 0.10
     Davidson diagonalization with overlap
     ethr =  3.29E-09,  avg # of iterations =  2.0

     negative rho (up, down):  9.655E-04 5.971E-04
 
     Adding external electric field

     Computed dipole along edir(3) : 
        Dipole               -0.1541 Ry au,         -0.3917 Debye
        Dipole field         -0.0001 Ry au, 
 
        Potential amp.        0.0103 Ry
        Total length         54.2615 bohr
 
 
     Adding external electric field

     Computed dipole along edir(3) : 
        Dipole               -0.1541 Ry au,         -0.3917 Debye
        Dipole field         -0.0001 Ry au, 
 
        Potential amp.        0.0103 Ry
        Total length         54.2615 bohr
 

     total cpu time spent up to now is      920.1 secs

     total energy              =   -7398.03614429 Ry
     estimated scf accuracy    <       0.00002240 Ry

     total magnetization       =    80.45 Bohr mag/cell
     absolute magnetization    =    81.97 Bohr mag/cell

     iteration # 52     ecut=    50.00 Ry     beta= 0.10
     Davidson diagonalization with overlap
     ethr =  2.08E-09,  avg # of iterations =  1.5

     negative rho (up, down):  1.090E-03 6.998E-04
 
     Adding external electric field

     Computed dipole along edir(3) : 
        Dipole               -0.1491 Ry au,         -0.3790 Debye
        Dipole field         -0.0001 Ry au, 
 
        Potential amp.        0.0100 Ry
        Total length         54.2615 bohr
 
 
     Adding external electric field

     Computed dipole along edir(3) : 
        Dipole               -0.1491 Ry au,         -0.3790 Debye
        Dipole field         -0.0001 Ry au, 
 
        Potential amp.        0.0100 Ry
        Total length         54.2615 bohr
 

     total cpu time spent up to now is      935.6 secs

     total energy              =   -7398.03614689 Ry
     estimated scf accuracy    <       0.00001166 Ry

     total magnetization       =    80.45 Bohr mag/cell
     absolute magnetization    =    81.97 Bohr mag/cell

     iteration # 53     ecut=    50.00 Ry     beta= 0.10
     Davidson diagonalization with overlap
     ethr =  1.08E-09,  avg # of iterations =  2.0

     negative rho (up, down):  1.100E-03 7.294E-04
 
     Adding external electric field

     Computed dipole along edir(3) : 
        Dipole               -0.1464 Ry au,         -0.3721 Debye
        Dipole field         -0.0001 Ry au, 
 
        Potential amp.        0.0098 Ry
        Total length         54.2615 bohr
 
 
     Adding external electric field

     Computed dipole along edir(3) : 
        Dipole               -0.1464 Ry au,         -0.3721 Debye
        Dipole field         -0.0001 Ry au, 
 
        Potential amp.        0.0098 Ry
        Total length         54.2615 bohr
 

     total cpu time spent up to now is      952.2 secs

     total energy              =   -7398.03614822 Ry
     estimated scf accuracy    <       0.00000726 Ry

     total magnetization       =    80.45 Bohr mag/cell
     absolute magnetization    =    81.98 Bohr mag/cell

     iteration # 54     ecut=    50.00 Ry     beta= 0.10
     Davidson diagonalization with overlap
     ethr =  6.74E-10,  avg # of iterations =  2.0

     negative rho (up, down):  1.163E-03 8.052E-04
 
     Adding external electric field

     Computed dipole along edir(3) : 
        Dipole               -0.1450 Ry au,         -0.3685 Debye
        Dipole field         -0.0001 Ry au, 
 
        Potential amp.        0.0097 Ry
        Total length         54.2615 bohr
 
 
     Adding external electric field

     Computed dipole along edir(3) : 
        Dipole               -0.1450 Ry au,         -0.3685 Debye
        Dipole field         -0.0001 Ry au, 
 
        Potential amp.        0.0097 Ry
        Total length         54.2615 bohr
 

     total cpu time spent up to now is      969.7 secs

     total energy              =   -7398.03614893 Ry
     estimated scf accuracy    <       0.00000371 Ry

     total magnetization       =    80.45 Bohr mag/cell
     absolute magnetization    =    81.98 Bohr mag/cell

     iteration # 55     ecut=    50.00 Ry     beta= 0.10
     Davidson diagonalization with overlap
     ethr =  3.44E-10,  avg # of iterations =  1.5

     negative rho (up, down):  1.093E-03 7.183E-04
 
     Adding external electric field

     Computed dipole along edir(3) : 
        Dipole               -0.1464 Ry au,         -0.3720 Debye
        Dipole field         -0.0001 Ry au, 
 
        Potential amp.        0.0098 Ry
        Total length         54.2615 bohr
 
 
     Adding external electric field

     Computed dipole along edir(3) : 
        Dipole               -0.1464 Ry au,         -0.3720 Debye
        Dipole field         -0.0001 Ry au, 
 
        Potential amp.        0.0098 Ry
        Total length         54.2615 bohr
 

     total cpu time spent up to now is      985.6 secs

     total energy              =   -7398.03614862 Ry
     estimated scf accuracy    <       0.00000251 Ry

     total magnetization       =    80.45 Bohr mag/cell
     absolute magnetization    =    81.98 Bohr mag/cell

     iteration # 56     ecut=    50.00 Ry     beta= 0.10
     Davidson diagonalization with overlap
     ethr =  2.33E-10,  avg # of iterations =  2.0

     negative rho (up, down):  1.044E-03 6.581E-04
 
     Adding external electric field

     Computed dipole along edir(3) : 
        Dipole               -0.1467 Ry au,         -0.3729 Debye
        Dipole field         -0.0001 Ry au, 
 
        Potential amp.        0.0098 Ry
        Total length         54.2615 bohr
 
 
     Adding external electric field

     Computed dipole along edir(3) : 
        Dipole               -0.1467 Ry au,         -0.3729 Debye
        Dipole field         -0.0001 Ry au, 
 
        Potential amp.        0.0098 Ry
        Total length         54.2615 bohr
 

     total cpu time spent up to now is     1002.5 secs

     total energy              =   -7398.03614827 Ry
     estimated scf accuracy    <       0.00000168 Ry

     total magnetization       =    80.45 Bohr mag/cell
     absolute magnetization    =    81.98 Bohr mag/cell

     iteration # 57     ecut=    50.00 Ry     beta= 0.10
     Davidson diagonalization with overlap
     ethr =  1.56E-10,  avg # of iterations =  2.0

     negative rho (up, down):  1.034E-03 6.497E-04
 
     Adding external electric field

     Computed dipole along edir(3) : 
        Dipole               -0.1461 Ry au,         -0.3714 Debye
        Dipole field         -0.0001 Ry au, 
 
        Potential amp.        0.0098 Ry
        Total length         54.2615 bohr
 
 
     Adding external electric field

     Computed dipole along edir(3) : 
        Dipole               -0.1461 Ry au,         -0.3714 Debye
        Dipole field         -0.0001 Ry au, 
 
        Potential amp.        0.0098 Ry
        Total length         54.2615 bohr
 

     total cpu time spent up to now is     1019.4 secs

     total energy              =   -7398.03614823 Ry
     estimated scf accuracy    <       0.00000113 Ry

     total magnetization       =    80.45 Bohr mag/cell
     absolute magnetization    =    81.98 Bohr mag/cell

     iteration # 58     ecut=    50.00 Ry     beta= 0.10
     Davidson diagonalization with overlap
     ethr =  1.04E-10,  avg # of iterations =  1.5

     negative rho (up, down):  9.283E-04 5.460E-04
 
     Adding external electric field

     Computed dipole along edir(3) : 
        Dipole               -0.1493 Ry au,         -0.3794 Debye
        Dipole field         -0.0001 Ry au, 
 
        Potential amp.        0.0100 Ry
        Total length         54.2615 bohr
 
 
     Adding external electric field

[...]
    -5.9984  -5.9852  -5.9561  -5.9347  -5.9155  -5.8846  -5.8497  -5.8415
    -5.8187  -5.8057  -5.7589  -5.7347  -5.7313  -5.7136  -5.6956  -5.6869
    -5.6745  -5.6691  -5.6379  -5.6227  -5.6121  -5.5992  -5.5289  -5.5121
    -5.4601  -5.4507  -5.4062  -5.4046  -5.3875  -5.3518  -5.3080  -5.2854
    -5.2424  -5.2138  -5.1886  -5.1797  -5.1681  -5.0845  -5.0804  -5.0581
    -4.9970  -4.9652  -4.9536  -4.9143  -4.8912  -4.8697  -4.8497  -4.7988
    -4.7822  -4.7652  -4.7614  -4.7345  -4.6444  -4.6310  -4.5821  -4.5494
    -4.5277  -4.5205  -4.4967  -4.4500  -4.4144  -4.3976  -4.3811  -4.3721
    -4.3627  -4.2943  -4.2902  -4.2298  -4.1761  -4.1473  -4.1088  -4.0938
    -4.0787  -4.0451  -4.0396  -4.0041  -3.9616  -3.9550  -3.9105  -3.9018
    -3.8839  -3.8455  -3.8259  -3.8166  -3.8052  -3.7698  -3.7443  -3.7339
    -3.7075  -3.6837  -3.6667  -3.6548  -3.6425  -3.6312  -3.6040  -3.5791
    -3.5463  -3.5274  -3.5240  -3.5022  -3.5000  -3.4862  -3.4527  -3.4452
    -3.4151  -3.4053  -3.3852  -3.3528  -3.3446  -3.3068  -3.2758  -3.2582
    -3.2363  -3.2198  -3.2088  -3.1914  -3.1732  -3.1666  -3.1487  -3.1424
    -3.1199  -3.0855  -3.0420  -3.0282  -3.0140  -2.9946  -2.9664  -2.9568
    -2.9249  -2.9163  -2.8978  -2.8734  -2.8608  -2.8462  -2.8217  -2.8118
    -2.7978  -2.7893  -2.7839  -2.7759  -2.7545  -2.7453  -2.7248  -2.7057
    -2.6898  -2.6663  -2.6645  -2.6521  -2.6248  -2.6106  -2.5953  -2.5818
    -2.5494  -2.5358  -2.5215  -2.5105  -2.4917  -2.4882  -2.4693  -2.4447
    -2.4261  -2.4016  -2.3897  -2.3680  -2.3513  -2.3153  -2.3014  -2.2857
    -2.2644  -2.2502  -2.2374  -2.2086  -2.1701  -2.1628  -2.1324  -2.1283
    -2.1128  -2.0859  -2.0833  -2.0735  -2.0659  -2.0400  -2.0083  -1.9930
    -1.9762  -1.9641  -1.9551  -1.9380  -1.9340  -1.9166  -1.8995  -1.8708
    -1.8464  -1.8209  -1.7929  -1.7675  -1.7389  -1.7285  -1.7080  -1.6989
    -1.6789  -1.6570  -1.6466  -1.6311  -1.6134  -1.5998  -1.5785  -1.5487
    -1.5321  -1.5164  -1.4894  -1.4676  -1.4562  -1.4289  -1.4214  -1.4179
    -1.4090  -1.3741  -1.3450  -1.3111  -1.2989  -1.2476  -1.2237  -1.2059
    -1.1543  -1.0947  -1.0734  -1.0535  -1.0147  -0.9274  -0.8960  -0.8772
    -0.7678  -0.6647  -0.6146  -0.6135  -0.4643  -0.3677  -0.3249  -0.2600
     0.1016   0.1248   0.1539   0.1898   0.2239   0.2430   0.2589   0.2698
     0.2821   0.2901   0.2982   0.3056   0.3126   0.3314   0.3422   0.3425
     0.3550   0.3609   0.3705   0.3774   0.3857   0.3904   0.3977   0.4005
     0.4094   0.4118   0.4242   0.4354   0.4455   0.4535   0.4557   0.4593
     0.4641   0.4655   0.4744   0.4809   0.4921   0.4992   0.5028   0.5120
     0.5164   0.5333   0.5388   0.5465   0.5598   0.5613   0.5656   0.5737
     0.5798   0.5874   0.5937   0.5973   0.6048   0.6136   0.6249   0.6329
     0.6444   0.6546   0.6607   0.6620   0.6655   0.6742   0.6837   0.6861
     0.6941   0.7022   0.7094   0.7135   0.7181   0.7235   0.7424   0.7455
     0.7490   0.7534   0.7779   0.7855   0.7872   0.7964   0.8064   0.8241
     0.8384   0.8418   0.8421   0.8529   0.8629   0.8654   0.8783   0.8822
     0.8962   0.8992   0.9123   0.9173   0.9253   0.9855   1.0131   1.0167
     1.0707   1.1346   1.6084   1.6572   1.6963   1.6999   1.7130   1.7428
     1.7582   1.8392   1.8702   1.8739   1.8905   1.9192   1.9323   1.9627
     1.9898   1.9955   2.0129   2.0187   2.0566   2.0710   2.0792   2.1172
     2.1445   2.1573   2.1825   2.1898   2.1954   2.2142   2.2237   2.2368
     2.2510   2.2552   2.2657   2.2825   2.2908   2.2993   2.3041   2.3235
     2.3340   2.3416   2.3705   2.3829   2.4100   2.4156   2.4183   2.4381
     2.4531   2.4732   2.4960   2.4993   2.5145   2.5335   2.5390   2.5521
     2.5799   2.5916   2.6279   2.6448   2.6655   2.6890   2.7306   2.7552
     2.7857   2.8337   2.8421   2.8897   2.9036   3.5611   3.5900   3.6645
     3.7312   3.8188   3.8292   3.8435   3.8602   3.9976   4.0613   4.5577
     4.6412   4.7001   4.7734   4.9239   4.9454   5.0188   5.4139   6.2932
     6.3597   6.5417   6.5807   6.7377   6.8306   6.8425   6.8795   6.9241
     7.0268   7.0804   7.0894   7.1235   7.3181   7.3672   7.3890   7.4282
     7.5033   7.5424   7.6573   7.6762   7.6908   7.7271   7.7914   7.8058
     7.8490   7.9211   7.9617   7.9740   8.0087   8.0214   8.0482   8.0715
     8.0981   8.1175   8.1704   8.2022   8.2347   8.2502   8.2848   8.3206
     8.3770   8.4004   8.4148   8.4614   8.4734   8.4756   8.4995   8.5126
     8.5492   8.5528   8.5919   8.5965   8.6127   8.6352   8.6700   8.6794
     8.7156   8.7544   8.7747   8.7968   8.8367   8.8483   8.8616

     the Fermi energy is     1.5645 ev

!    total energy              =   -7398.03614710 Ry
     estimated scf accuracy    <       0.00000074 Ry
     smearing contrib. (-TS)   =      -0.01419333 Ry
     internal energy E=F+TS    =   -7398.02195377 Ry

     The total energy is F=E-TS. E is the sum of the following terms:
     one-electron contribution =  -91723.76458232 Ry
     hartree contribution      =   46509.70064695 Ry
     xc contribution           =   -2260.27018753 Ry
     ewald contribution        =   40078.14602955 Ry
     Dispersion Correction     =      -1.83387421 Ry
     electric field correction =       0.00001378 Ry

     total magnetization       =    80.45 Bohr mag/cell
     absolute magnetization    =    81.98 Bohr mag/cell

     convergence has been achieved in  58 iterations

     negative rho (up, down):  9.283E-04 5.460E-04

     Forces acting on atoms (cartesian axes, Ry/au):

     atom    1 type  2   force =     0.03089302   -0.01961400   -0.01628859
     atom    2 type  1   force =     0.00206588   -0.00385346   -0.01064270
     atom    3 type  1   force =    -0.02149418   -0.02065455    0.01806659
     atom    4 type  1   force =     0.00141847    0.01009704   -0.01265881
     atom    5 type  1   force =    -0.00468309    0.02890918   -0.01848390
     atom    6 type  1   force =     0.00583566    0.00061166   -0.00051502
     atom    7 type  1   force =     0.02686341   -0.02095968    0.01734666
     atom    8 type  1   force =    -0.00953814   -0.00297979   -0.01099733
     atom    9 type  1   force =    -0.02977156   -0.01819861    0.01604268
     atom   10 type  1   force =    -0.00112621    0.00797952   -0.01295688
     atom   11 type  1   force =    -0.01326627    0.03030702   -0.02068328
     atom   12 type  1   force =     0.00130172    0.00668913   -0.00419308
     atom   13 type  3   force =     0.05100751   -0.11003094    0.00915782
     atom   14 type  3   force =    -0.02903419    0.03593579   -0.06519659
     atom   15 type  3   force =    -0.00919426    0.17548247   -0.08317675
     atom   16 type  3   force =     0.06071470    0.00054607   -0.00439555
     atom   17 type  4   force =     0.01519008   -0.02183202   -0.00975734
     atom   18 type  4   force =    -0.00539659    0.00482233    0.02967422
     atom   19 type  4   force =     0.00215569    0.00099369    0.03075945
     atom   20 type  4   force =     0.00514145    0.00187339    0.00235355
     atom   21 type  4   force =     0.00055926   -0.01198359   -0.00000835
     atom   22 type  4   force =    -0.00092225    0.00386926    0.03251210
     atom   23 type  4   force =    -0.00606883    0.01467364    0.02740820
     atom   24 type  4   force =     0.00869153    0.00321961   -0.00424086
     atom   25 type  4   force =     0.00650126   -0.00321431    0.00157940
     atom   26 type  4   force =     0.03117268   -0.17832107    0.00725133
     atom   27 type  4   force =     0.00284013    0.00100793    0.00171535
     atom   28 type  4   force =    -0.01703222    0.00166647    0.00475541
     atom   29 type  4   force =     0.09133279    0.00313932    0.00806232
     atom   30 type  4   force =     0.01305980   -0.02515854   -0.00090594
     atom   31 type  4   force =    -0.03845979    0.13335232   -0.00016465
     atom   32 type  4   force =    -0.00552076   -0.01188181    0.00653535
     atom   33 type  3   force =     0.04158193   -0.11919503    0.00960135
     atom   34 type  3   force =    -0.10167131    0.04258583   -0.07575175
     atom   35 type  3   force =    -0.01350760    0.16598987   -0.08811693
     atom   36 type  3   force =    -0.00358872    0.00256038   -0.01045194
     atom   37 type  4   force =     0.00823236   -0.01468605   -0.00236015
     atom   38 type  4   force =    -0.00585443   -0.00170463    0.02742545
     atom   39 type  4   force =    -0.00466587    0.00723851    0.03218564
     atom   40 type  4   force =     0.00131143    0.00002639    0.00246031
     atom   41 type  4   force =    -0.00150420   -0.00964129   -0.00147183
     atom   42 type  4   force =     0.00542182   -0.00052463    0.02935505
     atom   43 type  4   force =    -0.01043955    0.01350711    0.02704053
     atom   44 type  4   force =     0.00446983    0.00346459   -0.00440669
     atom   45 type  4   force =    -0.00029384   -0.00058015    0.00203824
     atom   46 type  4   force =     0.02815654   -0.17056642    0.00541382
     atom   47 type  4   force =    -0.06557336   -0.00073026   -0.00308686
     atom   48 type  4   force =    -0.01987012    0.00390241    0.00530576
     atom   49 type  4   force =     0.01407477    0.00085155    0.00205248
     atom   50 type  4   force =     0.00793554   -0.02438215   -0.00015792
     atom   51 type  4   force =    -0.03976904    0.13336347   -0.00133464
     atom   52 type  4   force =    -0.00777758   -0.01067287    0.00877904
     atom   53 type  2   force =     0.00646599   -0.00733294    0.00589167
     atom   54 type  1   force =     0.00100983   -0.00384202    0.00698149
     atom   55 type  1   force =     0.00505460   -0.00632476    0.00697827
     atom   56 type  1   force =    -0.00085819    0.00714599   -0.00070214
     atom   57 type  1   force =     0.00059549    0.02200994   -0.01391232
     atom   58 type  1   force =     0.00160097   -0.00330061    0.00264748
     atom   59 type  1   force =     0.00248784   -0.01012644    0.00411800
     atom   60 type  1   force =    -0.00750827   -0.00354597    0.00385604
     atom   61 type  1   force =    -0.00475785   -0.00500008    0.00700008
     atom   62 type  1   force =    -0.00224387    0.00495005    0.00218595
     atom   63 type  1   force =    -0.01086584    0.02505705   -0.01722335
     atom   64 type  1   force =    -0.00229857    0.00123096   -0.00048651
     atom   65 type  3   force =     0.04667123   -0.11945380    0.01681156
     atom   66 type  3   force =     0.00156103   -0.00439960    0.00067422
     atom   67 type  3   force =    -0.04056534    0.12366204   -0.00692539
     atom   68 type  3   force =     0.06322509   -0.00245156    0.00829287
     atom   69 type  4   force =     0.01282369   -0.01731517   -0.00193529
     atom   70 type  4   force =    -0.00169608    0.00337994   -0.00071403
     atom   71 type  4   force =    -0.00194333    0.00332425    0.00517687
     atom   72 type  4   force =     0.00471361    0.00160852    0.00098943
     atom   73 type  4   force =     0.00677599   -0.01707647    0.01166522
     atom   74 type  4   force =    -0.00440168   -0.00335027    0.00938524
     atom   75 type  4   force =     0.00350771    0.00862155    0.00459534
     atom   76 type  4   force =     0.00531435    0.00020787    0.00090268
     atom   77 type  4   force =     0.00595716   -0.00143736   -0.00073724
     atom   78 type  4   force =     0.04524034   -0.14077558    0.00582362
     atom   79 type  4   force =     0.00042637    0.00029183   -0.00096826
     atom   80 type  4   force =     0.00157481    0.00183973    0.00230364
     atom   81 type  4   force =     0.06729397    0.00013205    0.00657416
     atom   82 type  4   force =     0.00021274    0.00244131    0.00134076
     atom   83 type  4   force =    -0.03952660    0.13720045   -0.00229314
     atom   84 type  4   force =    -0.00223869   -0.01050126    0.00357756
     atom   85 type  3   force =     0.03901893   -0.12281762    0.02653962
     atom   86 type  3   force =    -0.06321515   -0.00177572   -0.00384571
     atom   87 type  3   force =    -0.04621160    0.12090023   -0.01039945
     atom   88 type  3   force =     0.00007242   -0.00107172    0.00188809
     atom   89 type  4   force =     0.00872390   -0.01529130   -0.00498175
     atom   90 type  4   force =    -0.00444619    0.00104984   -0.00080240
     atom   91 type  4   force =    -0.00949125    0.00828443    0.00550142
     atom   92 type  4   force =     0.00021634    0.00007695    0.00003134
     atom   93 type  4   force =     0.00192586   -0.01179629    0.00081613
     atom   94 type  4   force =    -0.00903719   -0.00296817    0.00840629
     atom   95 type  4   force =    -0.00031345    0.00773260    0.00302568
     atom   96 type  4   force =    -0.00127708    0.00210265   -0.00208181
     atom   97 type  4   force =    -0.00102047    0.00152110   -0.00031978
     atom   98 type  4   force =     0.04062486   -0.13916727    0.00490696
     atom   99 type  4   force =    -0.06723353   -0.00067786   -0.00571469
     atom  100 type  4   force =    -0.00038498    0.00280141    0.00289634
     atom  101 type  4   force =    -0.00127485    0.00011081    0.00146370
     atom  102 type  4   force =    -0.00682475    0.00555013    0.00161193
     atom  103 type  4   force =    -0.03978780    0.13530461   -0.00468423
     atom  104 type  4   force =    -0.00553142   -0.01021558    0.00528125
     atom  105 type  2   force =     0.00004371    0.00031484   -0.00030565
     atom  106 type  1   force =    -0.00012720   -0.00042689   -0.00023502
     atom  107 type  1   force =    -0.00038898   -0.00076319   -0.00032336
     atom  108 type  1   force =    -0.00004092   -0.00077565   -0.00021442
     atom  109 type  1   force =     0.00023951   -0.00020367   -0.00071519
     atom  110 type  1   force =    -0.00013069   -0.00009321   -0.00002291
     atom  111 type  1   force =     0.00001304    0.00024887   -0.00011439
     atom  112 type  1   force =     0.00005295   -0.00051313   -0.00007107
     atom  113 type  1   force =    -0.00044889   -0.00062303   -0.00087884
     atom  114 type  1   force =     0.00031911   -0.00088249    0.00026493
     atom  115 type  1   force =     0.00004611    0.00019068   -0.00027168
     atom  116 type  1   force =     0.00011235    0.00003369   -0.00056533
     atom  117 type  3   force =     0.00038679    0.00043117   -0.00064135
     atom  118 type  3   force =    -0.00042257   -0.00022541   -0.00019812
     atom  119 type  3   force =    -0.00008031    0.00001592    0.00040030
     atom  120 type  3   force =     0.00045744    0.00039735   -0.00040957
     atom  121 type  4   force =     0.00004209   -0.00010639    0.00019366
     atom  122 type  4   force =    -0.00008636    0.00001734   -0.00024029
     atom  123 type  4   force =     0.00020470    0.00004963    0.00008539
     atom  124 type  4   force =     0.00023056   -0.00034684   -0.00004382
     atom  125 type  4   force =    -0.00019231   -0.00032191    0.00036847
     atom  126 type  4   force =     0.00022065   -0.00044779    0.00001748
     atom  127 type  4   force =    -0.00008573    0.00012708    0.00042775
     atom  128 type  4   force =    -0.00054829   -0.00007954   -0.00004116
     atom  129 type  4   force =    -0.00066640    0.00059728   -0.00029738
     atom  130 type  4   force =     0.00014714    0.00028995    0.00016988
     atom  131 type  4   force =     0.00000476   -0.00089921    0.00044549
     atom  132 type  4   force =     0.00013377   -0.00011057   -0.00023341
     atom  133 type  4   force =    -0.00022949   -0.00019448   -0.00018445
     atom  134 type  4   force =     0.00007524   -0.00015994   -0.00000496
     atom  135 type  4   force =    -0.00011129   -0.00035623   -0.00002597
     atom  136 type  4   force =    -0.00008286   -0.00010819   -0.00007116
     atom  137 type  3   force =    -0.00056413   -0.00033972   -0.00026106
     atom  138 type  3   force =     0.00013069    0.00003822   -0.00010275
     atom  139 type  3   force =    -0.00004361   -0.00033822   -0.00026869
     atom  140 type  3   force =    -0.00000825   -0.00012702   -0.00049120
     atom  141 type  4   force =     0.00087969    0.00048595    0.00063102
     atom  142 type  4   force =    -0.00019107    0.00009422   -0.00009242
     atom  143 type  4   force =    -0.00000145   -0.00026300    0.00008810
     atom  144 type  4   force =     0.00007524    0.00076864   -0.00066126
     atom  145 type  4   force =    -0.00000437   -0.00016538    0.00020702
     atom  146 type  4   force =     0.00020059   -0.00028399    0.00033470
     atom  147 type  4   force =     0.00008951    0.00007046   -0.00010962
     atom  148 type  4   force =    -0.00052731    0.00011696    0.00035039
     atom  149 type  4   force =     0.00042395   -0.00017681   -0.00002109
     atom  150 type  4   force =     0.00015594   -0.00005883   -0.00002126
     atom  151 type  4   force =     0.00012173   -0.00006813   -0.00022434
     atom  152 type  4   force =     0.00037754   -0.00035734    0.00028906
     atom  153 type  4   force =     0.00012282    0.00002725   -0.00004967
     atom  154 type  4   force =    -0.00037092   -0.00037267   -0.00006002
     atom  155 type  4   force =     0.00066204    0.00083995    0.00001038
     atom  156 type  4   force =    -0.00070232    0.00002216   -0.00008640
     atom  157 type  4   force =     0.00680262    0.00564217    0.00158317
     atom  158 type  5   force =    -0.00676296   -0.00445390   -0.00119515

     Total force =     0.664573     Total SCF correction =     0.004536
 
     init_run     :      9.34s CPU     10.09s WALL (       1 calls)
     electrons    :    981.06s CPU   1022.68s WALL (       1 calls)
     forces       :      6.01s CPU      6.45s WALL (       1 calls)
     force_london :      0.12s CPU      0.12s WALL (       1 calls)

     Called by init_run:
     wfcinit      :      5.31s CPU      5.48s WALL (       1 calls)
     potinit      :      0.59s CPU      0.80s WALL (       1 calls)
     hinit0       :      1.77s CPU      1.89s WALL (       1 calls)

     Called by electrons:
     c_bands      :    750.16s CPU    771.45s WALL (      58 calls)
     sum_band     :    144.56s CPU    155.43s WALL (      58 calls)
     v_of_rho     :     14.05s CPU     14.97s WALL (      59 calls)
     newd         :     52.47s CPU     61.23s WALL (      59 calls)
     mix_rho      :     19.21s CPU     19.30s WALL (      58 calls)
     energy_londo :      0.09s CPU      0.09s WALL (       1 calls)

     Called by c_bands:
     init_us_2    :      1.80s CPU      1.86s WALL (     236 calls)
     init_us_2:cp :      1.80s CPU      1.86s WALL (     236 calls)
     regterg      :    733.01s CPU    754.02s WALL (     117 calls)

     Called by *egterg:
     rdiaghg      :    171.71s CPU    180.77s WALL (     462 calls)
     h_psi        :    280.31s CPU    286.03s WALL (     464 calls)
     s_psi        :     46.51s CPU     46.58s WALL (     464 calls)
     g_psi        :      0.35s CPU      0.35s WALL (     345 calls)

     Called by h_psi:
     h_psi:calbec :     84.92s CPU     89.45s WALL (     464 calls)
     vloc_psi     :    148.35s CPU    148.96s WALL (     464 calls)
     add_vuspsi   :     46.49s CPU     47.05s WALL (     464 calls)

     General routines
     calbec       :    124.99s CPU    131.69s WALL (     588 calls)
     fft          :     39.69s CPU     40.93s WALL (    1075 calls)
     ffts         :     10.54s CPU     10.55s WALL (    7187 calls)
     fftw         :    171.88s CPU    172.54s WALL (  196896 calls)
     interpolate  :      1.50s CPU      1.57s WALL (     118 calls)
 
     Parallel routines
 
     PWSCF        :  16m38.42s CPU  17m21.57s WALL

 
   This run was terminated on:  23: 1:35  19Nov2025            

=------------------------------------------------------------------------------=
   JOB DONE.
=------------------------------------------------------------------------------=
