
     Program PWSCF v.7.2 starts on 19Nov2025 at 19: 5: 7 

     This program is part of the open-source Quantum ESPRESSO suite
     for quantum simulation of materials; please cite
         "P. Giannozzi et al., J. Phys.:Condens. Matter 21 395502 (2009);
         "P. Giannozzi et al., J. Phys.:Condens. Matter 29 465901 (2017);
         "P. Giannozzi et al., J. Chem. Phys. 152 154105 (2020);
          URL http://www.quantum-espresso.org", 
     in publications or presentations arising from this work. More details at
     http://www.quantum-espresso.org/quote

     Parallel version (MPI), running on    64 processors

     MPI processes distributed on     4 nodes
     366196 MiB available memory on the printing compute node when the environment starts
 
     Reading input from PWINPUT_atm157_xp

     Current dimensions of program PWSCF are:
     Max number of different atomic species (ntypx) = 10
     Max number of k-points (npk) =  40000
     Max angular momentum in pseudopotentials (lmaxx) =  4
     Presently no symmetry can be used with electric field

     file Ni.pbe-n-rrkjus_psl.1.0.0.UPF: wavefunction(s)  3D renormalized
     file Mn.pbe-spn-rrkjus_psl.0.3.1.UPF: wavefunction(s)  3D renormalized
     file O.pbe-rrkjus.UPF: wavefunction(s)  2S renormalized
     file H.pbe-rrkjus.UPF: wavefunction(s)  1S renormalized

     gamma-point specific algorithms are used
 
     R & G space division:  proc/nbgrp/npool/nimage =      64
     Subspace diagonalization in iterative solution of the eigenvalue problem:
     one sub-group per band group will be used
     custom distributed-memory algorithm (size of sub-group:  6*  6 procs)

 
     Parallelization info
     --------------------
     sticks:   dense  smooth     PW     G-vecs:    dense   smooth      PW
     Min         208      82     20                59912    15118    1876
     Max         210      84     22                59974    15196    1926
     Sum       13399    5355   1345              3836275   970529  121367
 
     Using Slab Decomposition
 


     bravais-lattice index     =            0
     lattice parameter (alat)  =      17.7004  a.u.
     unit-cell volume          =   20319.7251 (a.u.)^3
     number of atoms/cell      =          158
     number of atomic types    =            5
     number of electrons       =      1078.00
     number of Kohn-Sham states=          647
     kinetic-energy cutoff     =      50.0000  Ry
     charge density cutoff     =     500.0000  Ry
     scf convergence threshold =      1.0E-06
     mixing beta               =       0.1000
     number of iterations used =            8  local-TF  mixing
     Exchange-correlation=  SLA  PW   PBE  PBE
                           (   1   4   3   4   0   0   0)

     celldm(1)=  17.700384  celldm(2)=   0.000000  celldm(3)=   0.000000
     celldm(4)=   0.000000  celldm(5)=   0.000000  celldm(6)=   0.000000

     crystal axes: (cart. coord. in units of alat)
               a(1) = (   1.000000   0.000000   0.000000 )  
               a(2) = (   0.000000   1.075730   0.000000 )  
               a(3) = (   0.000000   0.000000   3.406172 )  

     reciprocal axes: (cart. coord. in units 2 pi/alat)
               b(1) = (  1.000000  0.000000  0.000000 )  
               b(2) = (  0.000000  0.929602  0.000000 )  
               b(3) = (  0.000000  0.000000  0.293585 )  


     PseudoPot. # 1 for Ni read from file:
     ~/PSEUDO/Ni.pbe-n-rrkjus_psl.1.0.0.UPF
     MD5 check sum: Not computed, couldn't open file
     Pseudo is Ultrasoft + core correction, Zval = 10.0
     Generated using "atomic" code by A. Dal Corso  v.5.1.2
     Using radial grid of 1195 points,  6 beta functions with: 
                l(1) =   0
                l(2) =   0
                l(3) =   1
                l(4) =   1
                l(5) =   2
                l(6) =   2
     Q(r) pseudized with 0 coefficients 


     PseudoPot. # 2 for Mn read from file:
     ~/PSEUDO/Mn.pbe-spn-rrkjus_psl.0.3.1.UPF
     MD5 check sum: Not computed, couldn't open file
     Pseudo is Ultrasoft + core correction, Zval = 15.0
     Generated using &quot;atomic&quot; code by A. Dal Corso  v.6.2.2
     Using radial grid of 1187 points,  6 beta functions with: 
                l(1) =   0
                l(2) =   0
                l(3) =   1
                l(4) =   1
                l(5) =   2
                l(6) =   2
     Q(r) pseudized with 0 coefficients 


     PseudoPot. # 3 for P  read from file:
     ~/PSEUDO/P.pbe-n-rrkjus_psl.1.0.0.UPF
     MD5 check sum: Not computed, couldn't open file
     Pseudo is Ultrasoft + core correction, Zval =  5.0
     Generated using "atomic" code by A. Dal Corso  v.5.1
     Using radial grid of 1147 points,  6 beta functions with: 
                l(1) =   0
                l(2) =   0
                l(3) =   1
                l(4) =   1
                l(5) =   2
                l(6) =   2
     Q(r) pseudized with 0 coefficients 


     PseudoPot. # 4 for O  read from file:
     ~/PSEUDO/O.pbe-rrkjus.UPF
     MD5 check sum: Not computed, couldn't open file
     Pseudo is Ultrasoft, Zval =  6.0
     Generated by new atomic code, or converted to UPF format
     Using radial grid of 1269 points,  4 beta functions with: 
                l(1) =   0
                l(2) =   0
                l(3) =   1
                l(4) =   1
     Q(r) pseudized with 0 coefficients 


     PseudoPot. # 5 for H  read from file:
     ~/PSEUDO/H.pbe-rrkjus.UPF
     MD5 check sum: Not computed, couldn't open file
     Pseudo is Ultrasoft, Zval =  1.0
     Generated by new atomic code, or converted to UPF format
     Using radial grid of 1061 points,  2 beta functions with: 
                l(1) =   0
                l(2) =   0
     Q(r) pseudized with 0 coefficients 


     atomic species   valence    mass     pseudopotential
     Ni               10.00    58.69300     Ni( 1.00)
     Mn               15.00    54.93800     Mn( 1.00)
     P                 5.00    30.97300     P ( 1.00)
     O                 6.00    15.99900     O ( 1.00)
     H                 1.00     1.00790     H ( 1.00)

     Starting magnetic structure 
     atomic species   magnetization
     Ni              1.000
     Mn              1.000
     P               1.000
     O               1.000
     H               0.000

     No symmetry found



   Cartesian axes

     site n.     atom                  positions (alat units)
         1        Mn     tau(   1) = (   0.2404744   0.8371250   0.1168501  )
         2        Ni     tau(   2) = (   0.4968126   0.7726670   0.4415546  )
         3        Ni     tau(   3) = (   0.0066150   0.2936743   0.1241053  )
         4        Ni     tau(   4) = (   0.2585722   0.2355858   0.4448848  )
         5        Ni     tau(   5) = (   0.9987350   1.0696411   0.2854926  )
         6        Ni     tau(   6) = (   0.2517397   0.5330511   0.2829322  )
         7        Ni     tau(   7) = (   0.7451645   0.8337543   0.1221751  )
         8        Ni     tau(   8) = (   0.9939181   0.7738804   0.4407595  )
         9        Ni     tau(   9) = (   0.5111533   0.2924088   0.1251865  )
        10        Ni     tau(  10) = (   0.7606326   0.2319267   0.4451372  )
        11        Ni     tau(  11) = (   0.5024065   1.0688133   0.2870502  )
        12        Ni     tau(  12) = (   0.7529977   0.5317900   0.2845227  )
        13        P      tau(  13) = (   0.2092944   0.9731097   0.4345035  )
        14        P      tau(  14) = (   0.4655727   0.6359535   0.1274635  )
        15        P      tau(  15) = (   0.2910699   0.1027363   0.1296098  )
        16        P      tau(  16) = (   0.0396216   0.4288395   0.4398838  )
        17        O      tau(  17) = (   0.1294378   0.9013260   0.3010618  )
        18        O      tau(  18) = (   0.3874505   0.7054774   0.2637003  )
        19        O      tau(  19) = (   0.3702540   0.1714799   0.2660028  )
        20        O      tau(  20) = (   0.1184398   0.3582958   0.3038353  )
        21        O      tau(  21) = (   0.1451572   0.8850881   0.5587578  )
        22        O      tau(  22) = (   0.4048762   0.7245585   0.0017492  )
        23        O      tau(  23) = (   0.3523506   0.1900579   0.0035744  )
        24        O      tau(  24) = (   0.1017610   0.3410484   0.5656572  )
        25        O      tau(  25) = (   0.0975396   0.5849288   0.4357922  )
        26        O      tau(  26) = (   0.3483552   1.0314945   0.1270322  )
        27        O      tau(  27) = (   0.3784305   0.4225118   0.4308928  )
        28        O      tau(  28) = (   0.1268237   0.1067944   0.1392744  )
        29        O      tau(  29) = (   0.1212267   0.6424170   0.1362896  )
        30        O      tau(  30) = (   0.4053315   0.4809387   0.1300622  )
        31        O      tau(  31) = (   0.1536621   0.0446918   0.4373386  )
        32        O      tau(  32) = (   0.3732349   0.9631717   0.4256642  )
        33        P      tau(  33) = (   0.7119823   0.9695974   0.4373010  )
        34        P      tau(  34) = (   0.9615208   0.6363392   0.1262932  )
        35        P      tau(  35) = (   0.7927710   0.0970060   0.1292164  )
        36        P      tau(  36) = (   0.5426404   0.4269675   0.4410738  )
        37        O      tau(  37) = (   0.6326879   0.8991182   0.3013240  )
        38        O      tau(  38) = (   0.8842163   0.7083206   0.2625155  )
        39        O      tau(  39) = (   0.8716178   0.1677751   0.2653504  )
        40        O      tau(  40) = (   0.6212010   0.3558666   0.3051085  )
        41        O      tau(  41) = (   0.6507714   0.8812342   0.5631722  )
        42        O      tau(  42) = (   0.9014054   0.7264458   0.0010676  )
        43        O      tau(  43) = (   0.8548963   0.1847909   0.0035471  )
        44        O      tau(  44) = (   0.6044469   0.3378706   0.5660366  )
        45        O      tau(  45) = (   0.6024424   0.5823140   0.4379016  )
        46        O      tau(  46) = (   0.8498940   1.0254482   0.1275156  )
        47        O      tau(  47) = (   0.8798395   0.4205825   0.4305771  )
        48        O      tau(  48) = (   0.6286921   0.1034636   0.1397346  )
        49        O      tau(  49) = (   0.6294973   0.6427753   0.1372553  )
        50        O      tau(  50) = (   0.9024339   0.4810312   0.1296418  )
        51        O      tau(  51) = (   0.6547812   0.0410987   0.4396636  )
        52        O      tau(  52) = (   0.8760507   0.9632605   0.4264507  )
        53        Mn     tau(  53) = (   0.2404744   0.8246335   0.7367378  )
        54        Ni     tau(  54) = (   0.4968126   0.7601755   1.0614423  )
        55        Ni     tau(  55) = (   0.0066150   0.2811828   0.7439929  )
        56        Ni     tau(  56) = (   0.2585722   0.2230943   1.0647725  )
        57        Ni     tau(  57) = (   0.9987350   1.0571496   0.9053803  )
        58        Ni     tau(  58) = (   0.2517397   0.5205596   0.9028199  )
        59        Ni     tau(  59) = (   0.7451645   0.8212628   0.7420628  )
        60        Ni     tau(  60) = (   0.9939181   0.7613889   1.0606471  )
        61        Ni     tau(  61) = (   0.5111533   0.2799173   0.7450742  )
        62        Ni     tau(  62) = (   0.7606326   0.2194352   1.0650249  )
        63        Ni     tau(  63) = (   0.5024065   1.0563218   0.9069379  )
        64        Ni     tau(  64) = (   0.7529977   0.5192985   0.9044104  )
        65        P      tau(  65) = (   0.2092944   0.9606182   1.0543912  )
        66        P      tau(  66) = (   0.4655727   0.6234620   0.7473512  )
        67        P      tau(  67) = (   0.2910699   0.0902448   0.7494974  )
        68        P      tau(  68) = (   0.0396216   0.4163480   1.0597715  )
        69        O      tau(  69) = (   0.1294378   0.8888345   0.9209495  )
        70        O      tau(  70) = (   0.3874505   0.6929859   0.8835880  )
        71        O      tau(  71) = (   0.3702540   0.1589885   0.8858904  )
        72        O      tau(  72) = (   0.1184398   0.3458043   0.9237230  )
        73        O      tau(  73) = (   0.1451572   0.8725966   1.1786454  )
        74        O      tau(  74) = (   0.4048762   0.7120670   0.6216369  )
        75        O      tau(  75) = (   0.3523506   0.1775664   0.6234620  )
        76        O      tau(  76) = (   0.1017610   0.3285569   1.1855448  )
        77        O      tau(  77) = (   0.0975396   0.5724373   1.0556799  )
        78        O      tau(  78) = (   0.3483552   1.0190030   0.7469198  )
        79        O      tau(  79) = (   0.3784305   0.4100203   1.0507804  )
        80        O      tau(  80) = (   0.1268237   0.0943029   0.7591620  )
        81        O      tau(  81) = (   0.1212267   0.6299255   0.7561772  )
        82        O      tau(  82) = (   0.4053315   0.4684472   0.7499499  )
        83        O      tau(  83) = (   0.1536621   0.0322003   1.0572263  )
        84        O      tau(  84) = (   0.3732349   0.9506802   1.0455518  )
        85        P      tau(  85) = (   0.7119823   0.9571059   1.0571887  )
        86        P      tau(  86) = (   0.9615208   0.6238477   0.7461808  )
        87        P      tau(  87) = (   0.7927710   0.0845145   0.7491041  )
        88        P      tau(  88) = (   0.5426404   0.4144760   1.0609615  )
        89        O      tau(  89) = (   0.6326879   0.8866267   0.9212117  )
        90        O      tau(  90) = (   0.8842163   0.6958291   0.8824032  )
        91        O      tau(  91) = (   0.8716178   0.1552836   0.8852381  )
        92        O      tau(  92) = (   0.6212010   0.3433751   0.9249961  )
        93        O      tau(  93) = (   0.6507714   0.8687427   1.1830599  )
        94        O      tau(  94) = (   0.9014054   0.7139543   0.6209553  )
        95        O      tau(  95) = (   0.8548963   0.1722994   0.6234348  )
        96        O      tau(  96) = (   0.6044469   0.3253792   1.1859242  )
        97        O      tau(  97) = (   0.6024424   0.5698225   1.0577892  )
        98        O      tau(  98) = (   0.8498940   1.0129567   0.7474033  )
        99        O      tau(  99) = (   0.8798395   0.4080910   1.0504647  )
       100        O      tau( 100) = (   0.6286921   0.0909721   0.7596222  )
       101        O      tau( 101) = (   0.6294973   0.6302838   0.7571429  )
       102        O      tau( 102) = (   0.9024339   0.4685397   0.7495295  )
       103        O      tau( 103) = (   0.6547812   0.0286072   1.0595512  )
       104        O      tau( 104) = (   0.8760507   0.9507690   1.0463383  )
       105        Mn     tau( 105) = (   0.2350290   0.8103679   1.3650506  )
       106        Ni     tau( 106) = (   0.5049839   0.7430999   1.6752764  )
       107        Ni     tau( 107) = (   0.0085805   0.2677647   1.3705110  )
       108        Ni     tau( 108) = (   0.2524821   0.2108176   1.6762258  )
       109        Ni     tau( 109) = (   1.0031726   1.0464924   1.5386166  )
       110        Ni     tau( 110) = (   0.2502641   0.5060972   1.5295441  )
       111        Ni     tau( 111) = (   0.7425850   0.8051724   1.3682278  )
       112        Ni     tau( 112) = (   1.0032085   0.7480271   1.6782163  )
       113        Ni     tau( 113) = (   0.5109976   0.2668978   1.3695351  )
       114        Ni     tau( 114) = (   0.7617415   0.2002392   1.7047113  )
       115        Ni     tau( 115) = (   0.5060216   1.0426794   1.5329327  )
       116        Ni     tau( 116) = (   0.7493328   0.5030112   1.5332002  )
       117        P      tau( 117) = (   0.2170385   0.9354274   1.6987551  )
       118        P      tau( 118) = (   0.4625170   0.6079979   1.3696033  )
       119        P      tau( 119) = (   0.2922201   0.0744200   1.3728508  )
       120        P      tau( 120) = (   0.0400598   0.4013821   1.6923063  )
       121        O      tau( 121) = (   0.1369468   0.8734395   1.5544031  )
       122        O      tau( 122) = (   0.3851774   0.6777302   1.5062583  )
       123        O      tau( 123) = (   0.3716472   0.1429275   1.5084559  )
       124        O      tau( 124) = (   0.1157488   0.3366312   1.5473574  )
       125        O      tau( 125) = (   0.1542130   0.8393226   1.8134166  )
       126        O      tau( 126) = (   0.4021706   0.6983945   1.2446547  )
       127        O      tau( 127) = (   0.3533289   0.1594101   1.2454731  )
       128        O      tau( 128) = (   0.1044058   0.3070241   1.8090384  )
       129        O      tau( 129) = (   0.0976985   0.5582927   1.6881977  )
       130        O      tau( 130) = (   0.3494544   0.9934681   1.3765809  )
       131        O      tau( 131) = (   0.3735391   0.3921348   1.6747224  )
       132        O      tau( 132) = (   0.1284883   0.0801717   1.3861992  )
       133        O      tau( 133) = (   0.1217502   0.6189932   1.3813335  )
       134        O      tau( 134) = (   0.4008873   0.4536035   1.3710220  )
       135        O      tau( 135) = (   0.1634732   0.0183502   1.6943209  )
       136        O      tau( 136) = (   0.3813891   0.9276213   1.6801305  )
       137        P      tau( 137) = (   0.7150844   0.9302027   1.6925865  )
       138        P      tau( 138) = (   0.9571586   0.6099361   1.3701799  )
       139        P      tau( 139) = (   0.7928795   0.0723778   1.3749960  )
       140        P      tau( 140) = (   0.5392015   0.3933707   1.6872906  )
       141        O      tau( 141) = (   0.6358909   0.8683612   1.5460897  )
       142        O      tau( 142) = (   0.8820169   0.6809509   1.5070208  )
       143        O      tau( 143) = (   0.8692965   0.1456252   1.5103227  )
       144        O      tau( 144) = (   0.6167143   0.3328777   1.5445489  )
       145        O      tau( 145) = (   0.6564412   0.8305094   1.8065650  )
       146        O      tau( 146) = (   0.8979416   0.6984778   1.2436101  )
       147        O      tau( 147) = (   0.8543451   0.1588252   1.2476080  )
       148        O      tau( 148) = (   0.5965398   0.2964012   1.8048314  )
       149        O      tau( 149) = (   0.5954090   0.5513693   1.6890606  )
       150        O      tau( 150) = (   0.8526781   0.9929277   1.3790312  )
       151        O      tau( 151) = (   0.8754039   0.3968396   1.6819451  )
       152        O      tau( 152) = (   0.6285753   0.0773142   1.3832806  )
       153        O      tau( 153) = (   0.6263328   0.6141238   1.3811389  )
       154        O      tau( 154) = (   0.9000707   0.4545516   1.3742938  )
       155        O      tau( 155) = (   0.6544929   0.0100088   1.6874901  )
       156        O      tau( 156) = (   0.8797765   0.9265630   1.6764488  )
       157        O      tau( 157) = (   0.8774967   0.1176518   1.8379936  )
       158        H      tau( 158) = (   0.9617023   0.1762767   1.8603235  )

     -------------------------------------------------
     Parameters for Dispersion (Grimme-D2) Correction:
     -------------------------------------------------
       atom      VdW radius       C_6     

        Ni         2.952        374.666
        Mn         2.952        374.666
        P          3.222        271.980
        O          2.536         24.284
        H          1.892          4.857

     number of k points=     1  Gaussian smearing, width (Ry)=  0.0100
                       cart. coord. in units 2pi/alat
        k(    1) = (   0.0000000   0.0000000   0.0000000), wk =   1.0000000

     Dense  grid:  1918138 G-vectors     FFT dimensions: ( 125, 135, 432)

     Smooth grid:   485265 G-vectors     FFT dimensions: (  80,  90, 288)

     Estimated max dynamical RAM per process >     320.12 MB

     Estimated total dynamical RAM >      20.01 GB
     Generating pointlists ...
     new r_m :   0.0804 (alat units)  1.4230 (a.u.) for type    1
     new r_m :   0.0869 (alat units)  1.5388 (a.u.) for type    2
     new r_m :   0.0650 (alat units)  1.1499 (a.u.) for type    3
     new r_m :   0.0433 (alat units)  0.7667 (a.u.) for type    4
     new r_m :   0.0433 (alat units)  0.7667 (a.u.) for type    5

     Initial potential from superposition of free atoms

     starting charge    1077.8900, renormalised to    1078.0000

     negative rho (up, down):  1.237E-03 4.528E-04
 
     Adding external electric field

     Computed dipole along edir(3) : 
        Dipole                1.6169 Ry au,          4.1098 Debye
        Dipole field          0.0010 Ry au, 
 
        Potential amp.       -0.1085 Ry
        Total length         54.2615 bohr
 
 
     Adding external electric field

     Computed dipole along edir(3) : 
        Dipole                1.6169 Ry au,          4.1098 Debye
        Dipole field          0.0010 Ry au, 
 
        Potential amp.       -0.1085 Ry
        Total length         54.2615 bohr
 
     Starting wfcs are  812 randomized atomic wfcs

     total cpu time spent up to now is       13.5 secs

     Self-consistent Calculation

     iteration #  1     ecut=    50.00 Ry     beta= 0.10
     Davidson diagonalization with overlap
     ethr =  1.00E-02,  avg # of iterations =  6.0

     negative rho (up, down):  3.317E-01 2.695E-06
 
     Adding external electric field

     Computed dipole along edir(3) : 
        Dipole               -3.5843 Ry au,         -9.1105 Debye
        Dipole field         -0.0022 Ry au, 
 
        Potential amp.        0.2406 Ry
        Total length         54.2615 bohr
 
 
     Adding external electric field

     Computed dipole along edir(3) : 
        Dipole               -3.5843 Ry au,         -9.1105 Debye
        Dipole field         -0.0022 Ry au, 
 
        Potential amp.        0.2406 Ry
        Total length         54.2615 bohr
 

     total cpu time spent up to now is       49.0 secs

     total energy              =   -7178.78966424 Ry
     estimated scf accuracy    <     757.46982799 Ry

     total magnetization       =   216.00 Bohr mag/cell
     absolute magnetization    =   296.63 Bohr mag/cell

     iteration #  2     ecut=    50.00 Ry     beta= 0.10
     Davidson diagonalization with overlap
     ethr =  1.00E-02,  avg # of iterations =  2.0

     negative rho (up, down):  3.146E-01 2.312E-06
 
     Adding external electric field

     Computed dipole along edir(3) : 
        Dipole               -2.3984 Ry au,         -6.0961 Debye
        Dipole field         -0.0015 Ry au, 
 
        Potential amp.        0.1610 Ry
        Total length         54.2615 bohr
 
 
     Adding external electric field

     Computed dipole along edir(3) : 
        Dipole               -2.3984 Ry au,         -6.0961 Debye
        Dipole field         -0.0015 Ry au, 
 
        Potential amp.        0.1610 Ry
        Total length         54.2615 bohr
 

     total cpu time spent up to now is       70.4 secs

     total energy              =   -7262.25641403 Ry
     estimated scf accuracy    <     206.85259765 Ry

     total magnetization       =   150.11 Bohr mag/cell
     absolute magnetization    =   199.93 Bohr mag/cell

     iteration #  3     ecut=    50.00 Ry     beta= 0.10
     Davidson diagonalization with overlap
     ethr =  1.00E-02,  avg # of iterations =  1.5

     negative rho (up, down):  2.773E-01 2.120E-06
 
     Adding external electric field

     Computed dipole along edir(3) : 
        Dipole               -2.0461 Ry au,         -5.2006 Debye
        Dipole field         -0.0013 Ry au, 
 
        Potential amp.        0.1373 Ry
        Total length         54.2615 bohr
 
 
     Adding external electric field

     Computed dipole along edir(3) : 
        Dipole               -2.0461 Ry au,         -5.2006 Debye
        Dipole field         -0.0013 Ry au, 
 
        Potential amp.        0.1373 Ry
        Total length         54.2615 bohr
 

     total cpu time spent up to now is       87.4 secs

     total energy              =   -7292.89925621 Ry
     estimated scf accuracy    <      98.08191047 Ry

     total magnetization       =   125.25 Bohr mag/cell
     absolute magnetization    =   179.12 Bohr mag/cell

     iteration #  4     ecut=    50.00 Ry     beta= 0.10
     Davidson diagonalization with overlap
     ethr =  9.10E-03,  avg # of iterations =  1.5

     negative rho (up, down):  2.055E-01 8.799E-07
 
     Adding external electric field

     Computed dipole along edir(3) : 
        Dipole               -1.9709 Ry au,         -5.0096 Debye
        Dipole field         -0.0012 Ry au, 
 
        Potential amp.        0.1323 Ry
        Total length         54.2615 bohr
 
 
     Adding external electric field

     Computed dipole along edir(3) : 
        Dipole               -1.9709 Ry au,         -5.0096 Debye
        Dipole field         -0.0012 Ry au, 
 
        Potential amp.        0.1323 Ry
        Total length         54.2615 bohr
 

     total cpu time spent up to now is      104.4 secs

     total energy              =   -7327.75839235 Ry
     estimated scf accuracy    <      78.35074604 Ry

     total magnetization       =   110.29 Bohr mag/cell
     absolute magnetization    =   164.79 Bohr mag/cell

     iteration #  5     ecut=    50.00 Ry     beta= 0.10
     Davidson diagonalization with overlap
     ethr =  7.27E-03,  avg # of iterations =  1.5

     negative rho (up, down):  7.820E-03 1.406E-06
 
     Adding external electric field

     Computed dipole along edir(3) : 
        Dipole               -1.5165 Ry au,         -3.8546 Debye
        Dipole field         -0.0009 Ry au, 
 
        Potential amp.        0.1018 Ry
        Total length         54.2615 bohr
 
 
     Adding external electric field

     Computed dipole along edir(3) : 
        Dipole               -1.5165 Ry au,         -3.8546 Debye
        Dipole field         -0.0009 Ry au, 
 
        Potential amp.        0.1018 Ry
        Total length         54.2615 bohr
 

     total cpu time spent up to now is      121.1 secs

     total energy              =   -7386.51796256 Ry
     estimated scf accuracy    <      60.46163634 Ry

     total magnetization       =    88.01 Bohr mag/cell
     absolute magnetization    =   145.63 Bohr mag/cell

     iteration #  6     ecut=    50.00 Ry     beta= 0.10
     Davidson diagonalization with overlap
     ethr =  5.61E-03,  avg # of iterations =  1.5

     negative rho (up, down):  3.779E-04 4.715E-04
 
     Adding external electric field

     Computed dipole along edir(3) : 
        Dipole               -1.1754 Ry au,         -2.9877 Debye
        Dipole field         -0.0007 Ry au, 
 
        Potential amp.        0.0789 Ry
        Total length         54.2615 bohr
 
 
     Adding external electric field

     Computed dipole along edir(3) : 
        Dipole               -1.1754 Ry au,         -2.9877 Debye
        Dipole field         -0.0007 Ry au, 
 
        Potential amp.        0.0789 Ry
        Total length         54.2615 bohr
 

     total cpu time spent up to now is      138.2 secs

     total energy              =   -7395.51316275 Ry
     estimated scf accuracy    <       9.64625984 Ry

     total magnetization       =    81.65 Bohr mag/cell
     absolute magnetization    =   114.86 Bohr mag/cell

     iteration #  7     ecut=    50.00 Ry     beta= 0.10
     Davidson diagonalization with overlap
     ethr =  8.95E-04,  avg # of iterations =  7.0

     negative rho (up, down):  3.585E-04 4.538E-04
 
     Adding external electric field

     Computed dipole along edir(3) : 
        Dipole               -1.1790 Ry au,         -2.9968 Debye
        Dipole field         -0.0007 Ry au, 
 
        Potential amp.        0.0791 Ry
        Total length         54.2615 bohr
 
 
     Adding external electric field

     Computed dipole along edir(3) : 
        Dipole               -1.1790 Ry au,         -2.9968 Debye
        Dipole field         -0.0007 Ry au, 
 
        Potential amp.        0.0791 Ry
        Total length         54.2615 bohr
 

     total cpu time spent up to now is      169.5 secs

     total energy              =   -7397.60995501 Ry
     estimated scf accuracy    <      10.69980348 Ry

     total magnetization       =    71.62 Bohr mag/cell
     absolute magnetization    =    89.14 Bohr mag/cell

     iteration #  8     ecut=    50.00 Ry     beta= 0.10
     Davidson diagonalization with overlap
     ethr =  8.95E-04,  avg # of iterations =  1.0

     negative rho (up, down):  2.531E-04 3.245E-04
 
     Adding external electric field

     Computed dipole along edir(3) : 
        Dipole               -1.1817 Ry au,         -3.0036 Debye
        Dipole field         -0.0007 Ry au, 
 
        Potential amp.        0.0793 Ry
        Total length         54.2615 bohr
 
 
     Adding external electric field

     Computed dipole along edir(3) : 
        Dipole               -1.1817 Ry au,         -3.0036 Debye
        Dipole field         -0.0007 Ry au, 
 
        Potential amp.        0.0793 Ry
        Total length         54.2615 bohr
 

     total cpu time spent up to now is      185.4 secs

     total energy              =   -7397.58457059 Ry
     estimated scf accuracy    <      10.43513983 Ry

     total magnetization       =    71.73 Bohr mag/cell
     absolute magnetization    =    88.84 Bohr mag/cell

     iteration #  9     ecut=    50.00 Ry     beta= 0.10
     Davidson diagonalization with overlap
     ethr =  8.95E-04,  avg # of iterations =  1.0

     negative rho (up, down):  4.292E-04 6.928E-04
 
     Adding external electric field

     Computed dipole along edir(3) : 
        Dipole               -1.2271 Ry au,         -3.1190 Debye
        Dipole field         -0.0008 Ry au, 
 
        Potential amp.        0.0824 Ry
        Total length         54.2615 bohr
 
 
     Adding external electric field

     Computed dipole along edir(3) : 
        Dipole               -1.2271 Ry au,         -3.1190 Debye
        Dipole field         -0.0008 Ry au, 
 
        Potential amp.        0.0824 Ry
        Total length         54.2615 bohr
 

     total cpu time spent up to now is      201.1 secs

     total energy              =   -7397.35765457 Ry
     estimated scf accuracy    <       9.19248290 Ry

     total magnetization       =    72.00 Bohr mag/cell
     absolute magnetization    =    88.33 Bohr mag/cell

     iteration # 10     ecut=    50.00 Ry     beta= 0.10
     Davidson diagonalization with overlap
     ethr =  8.53E-04,  avg # of iterations =  1.0

     negative rho (up, down):  2.559E-04 5.467E-04
 
     Adding external electric field

     Computed dipole along edir(3) : 
        Dipole               -1.2571 Ry au,         -3.1953 Debye
        Dipole field         -0.0008 Ry au, 
 
        Potential amp.        0.0844 Ry
        Total length         54.2615 bohr
 
 
     Adding external electric field

     Computed dipole along edir(3) : 
        Dipole               -1.2571 Ry au,         -3.1953 Debye
        Dipole field         -0.0008 Ry au, 
 
        Potential amp.        0.0844 Ry
        Total length         54.2615 bohr
 

     total cpu time spent up to now is      216.1 secs

     total energy              =   -7397.58758340 Ry
     estimated scf accuracy    <       1.51663907 Ry

     total magnetization       =    78.79 Bohr mag/cell
     absolute magnetization    =    90.38 Bohr mag/cell

     iteration # 11     ecut=    50.00 Ry     beta= 0.10
     Davidson diagonalization with overlap
     ethr =  1.41E-04,  avg # of iterations = 12.0

     negative rho (up, down):  2.608E-04 5.786E-04
 
     Adding external electric field

     Computed dipole along edir(3) : 
        Dipole               -1.2585 Ry au,         -3.1989 Debye
        Dipole field         -0.0008 Ry au, 
 
        Potential amp.        0.0845 Ry
        Total length         54.2615 bohr
 
 
     Adding external electric field

     Computed dipole along edir(3) : 
        Dipole               -1.2585 Ry au,         -3.1989 Debye
        Dipole field         -0.0008 Ry au, 
 
        Potential amp.        0.0845 Ry
        Total length         54.2615 bohr
 

     total cpu time spent up to now is      247.3 secs

     total energy              =   -7397.61771189 Ry
     estimated scf accuracy    <       2.05187188 Ry

     total magnetization       =    76.85 Bohr mag/cell
     absolute magnetization    =    87.53 Bohr mag/cell

     iteration # 12     ecut=    50.00 Ry     beta= 0.10
     Davidson diagonalization with overlap
     ethr =  1.41E-04,  avg # of iterations =  1.0

     negative rho (up, down):  2.381E-04 6.712E-04
 
     Adding external electric field

     Computed dipole along edir(3) : 
        Dipole               -1.3605 Ry au,         -3.4581 Debye
        Dipole field         -0.0008 Ry au, 
 
        Potential amp.        0.0913 Ry
        Total length         54.2615 bohr
 
 
     Adding external electric field

     Computed dipole along edir(3) : 
        Dipole               -1.3605 Ry au,         -3.4581 Debye
        Dipole field         -0.0008 Ry au, 
 
        Potential amp.        0.0913 Ry
        Total length         54.2615 bohr
 

     total cpu time spent up to now is      262.4 secs

     total energy              =   -7397.73666426 Ry
     estimated scf accuracy    <       1.82995879 Ry

     total magnetization       =    77.07 Bohr mag/cell
     absolute magnetization    =    87.44 Bohr mag/cell

     iteration # 13     ecut=    50.00 Ry     beta= 0.10
     Davidson diagonalization with overlap
     ethr =  1.41E-04,  avg # of iterations =  1.5

     negative rho (up, down):  2.251E-03 4.039E-03
 
     Adding external electric field

     Computed dipole along edir(3) : 
        Dipole               -1.3945 Ry au,         -3.5445 Debye
        Dipole field         -0.0009 Ry au, 
 
        Potential amp.        0.0936 Ry
        Total length         54.2615 bohr
 
 
     Adding external electric field

     Computed dipole along edir(3) : 
        Dipole               -1.3945 Ry au,         -3.5445 Debye
        Dipole field         -0.0009 Ry au, 
 
        Potential amp.        0.0936 Ry
        Total length         54.2615 bohr
 

     total cpu time spent up to now is      278.9 secs

     total energy              =   -7397.80775972 Ry
     estimated scf accuracy    <       2.96322538 Ry

     total magnetization       =    76.98 Bohr mag/cell
     absolute magnetization    =    85.56 Bohr mag/cell

     iteration # 14     ecut=    50.00 Ry     beta= 0.10
     Davidson diagonalization with overlap
     ethr =  1.41E-04,  avg # of iterations =  2.0

     negative rho (up, down):  6.769E-04 2.018E-03
 
     Adding external electric field

     Computed dipole along edir(3) : 
        Dipole               -1.3369 Ry au,         -3.3981 Debye
        Dipole field         -0.0008 Ry au, 
 
        Potential amp.        0.0897 Ry
        Total length         54.2615 bohr
 
 
     Adding external electric field

     Computed dipole along edir(3) : 
        Dipole               -1.3369 Ry au,         -3.3981 Debye
        Dipole field         -0.0008 Ry au, 
 
        Potential amp.        0.0897 Ry
        Total length         54.2615 bohr
 

     total cpu time spent up to now is      296.9 secs

     total energy              =   -7397.85885538 Ry
     estimated scf accuracy    <       0.67168881 Ry

     total magnetization       =    81.73 Bohr mag/cell
     absolute magnetization    =    86.76 Bohr mag/cell

     iteration # 15     ecut=    50.00 Ry     beta= 0.10
     Davidson diagonalization with overlap
     ethr =  6.23E-05,  avg # of iterations =  1.5

     negative rho (up, down):  2.987E-05 4.712E-04
 
     Adding external electric field

     Computed dipole along edir(3) : 
        Dipole               -1.2114 Ry au,         -3.0791 Debye
        Dipole field         -0.0007 Ry au, 
 
        Potential amp.        0.0813 Ry
        Total length         54.2615 bohr
 
 
     Adding external electric field

     Computed dipole along edir(3) : 
        Dipole               -1.2114 Ry au,         -3.0791 Debye
        Dipole field         -0.0007 Ry au, 
 
        Potential amp.        0.0813 Ry
        Total length         54.2615 bohr
 

     total cpu time spent up to now is      313.5 secs

     total energy              =   -7397.91901487 Ry
     estimated scf accuracy    <       0.44640829 Ry

     total magnetization       =    80.71 Bohr mag/cell
     absolute magnetization    =    86.04 Bohr mag/cell

     iteration # 16     ecut=    50.00 Ry     beta= 0.10
     Davidson diagonalization with overlap
     ethr =  4.14E-05,  avg # of iterations =  2.0

     negative rho (up, down):  9.345E-05 4.697E-04
 
     Adding external electric field

     Computed dipole along edir(3) : 
        Dipole               -1.1572 Ry au,         -2.9413 Debye
        Dipole field         -0.0007 Ry au, 
 
        Potential amp.        0.0777 Ry
        Total length         54.2615 bohr
 
 
     Adding external electric field

     Computed dipole along edir(3) : 
        Dipole               -1.1572 Ry au,         -2.9413 Debye
        Dipole field         -0.0007 Ry au, 
 
        Potential amp.        0.0777 Ry
        Total length         54.2615 bohr
 

     total cpu time spent up to now is      331.2 secs

     total energy              =   -7398.00102750 Ry
     estimated scf accuracy    <       0.23271065 Ry

     total magnetization       =    79.63 Bohr mag/cell
     absolute magnetization    =    83.91 Bohr mag/cell

     iteration # 17     ecut=    50.00 Ry     beta= 0.10
     Davidson diagonalization with overlap
     ethr =  2.16E-05,  avg # of iterations =  2.0

     negative rho (up, down):  5.457E-06 4.139E-05
 
     Adding external electric field

     Computed dipole along edir(3) : 
        Dipole               -0.9750 Ry au,         -2.4783 Debye
        Dipole field         -0.0006 Ry au, 
 
        Potential amp.        0.0654 Ry
        Total length         54.2615 bohr
 
 
     Adding external electric field

     Computed dipole along edir(3) : 
        Dipole               -0.9750 Ry au,         -2.4783 Debye
        Dipole field         -0.0006 Ry au, 
 
        Potential amp.        0.0654 Ry
        Total length         54.2615 bohr
 

     total cpu time spent up to now is      348.9 secs

     total energy              =   -7398.02862236 Ry
     estimated scf accuracy    <       0.23167827 Ry

     total magnetization       =    81.14 Bohr mag/cell
     absolute magnetization    =    84.04 Bohr mag/cell

     iteration # 18     ecut=    50.00 Ry     beta= 0.10
     Davidson diagonalization with overlap
     ethr =  2.15E-05,  avg # of iterations =  2.0

     negative rho (up, down):  1.055E-04 1.024E-04
 
     Adding external electric field

     Computed dipole along edir(3) : 
        Dipole               -0.9154 Ry au,         -2.3268 Debye
        Dipole field         -0.0006 Ry au, 
 
        Potential amp.        0.0614 Ry
        Total length         54.2615 bohr
 
 
     Adding external electric field

     Computed dipole along edir(3) : 
        Dipole               -0.9154 Ry au,         -2.3268 Debye
        Dipole field         -0.0006 Ry au, 
 
        Potential amp.        0.0614 Ry
        Total length         54.2615 bohr
 

     total cpu time spent up to now is      367.2 secs

     total energy              =   -7398.03964938 Ry
     estimated scf accuracy    <       0.41199058 Ry

     total magnetization       =    80.00 Bohr mag/cell
     absolute magnetization    =    82.27 Bohr mag/cell

     iteration # 19     ecut=    50.00 Ry     beta= 0.10
     Davidson diagonalization with overlap
     ethr =  2.15E-05,  avg # of iterations =  1.5

     negative rho (up, down):  6.557E-05 4.541E-05
 
     Adding external electric field

     Computed dipole along edir(3) : 
        Dipole               -0.9280 Ry au,         -2.3589 Debye
        Dipole field         -0.0006 Ry au, 
 
        Potential amp.        0.0623 Ry
        Total length         54.2615 bohr
 
 
     Adding external electric field

     Computed dipole along edir(3) : 
        Dipole               -0.9280 Ry au,         -2.3589 Debye
        Dipole field         -0.0006 Ry au, 
 
        Potential amp.        0.0623 Ry
        Total length         54.2615 bohr
 

     total cpu time spent up to now is      384.3 secs

     total energy              =   -7398.03865843 Ry
     estimated scf accuracy    <       0.27104039 Ry

     total magnetization       =    80.06 Bohr mag/cell
     absolute magnetization    =    82.00 Bohr mag/cell

     iteration # 20     ecut=    50.00 Ry     beta= 0.10
     Davidson diagonalization with overlap
     ethr =  2.15E-05,  avg # of iterations =  2.0

     negative rho (up, down):  9.484E-05 3.407E-05
 
     Adding external electric field

     Computed dipole along edir(3) : 
        Dipole               -0.8813 Ry au,         -2.2400 Debye
        Dipole field         -0.0005 Ry au, 
 
        Potential amp.        0.0591 Ry
        Total length         54.2615 bohr
 
 
     Adding external electric field

     Computed dipole along edir(3) : 
        Dipole               -0.8813 Ry au,         -2.2400 Debye
        Dipole field         -0.0005 Ry au, 
 
        Potential amp.        0.0591 Ry
        Total length         54.2615 bohr
 

     total cpu time spent up to now is      402.2 secs

     total energy              =   -7398.03531994 Ry
     estimated scf accuracy    <       0.11448256 Ry

     total magnetization       =    80.62 Bohr mag/cell
     absolute magnetization    =    82.42 Bohr mag/cell

     iteration # 21     ecut=    50.00 Ry     beta= 0.10
     Davidson diagonalization with overlap
     ethr =  1.06E-05,  avg # of iterations =  2.0

     negative rho (up, down):  5.797E-05 1.829E-05
 
     Adding external electric field

     Computed dipole along edir(3) : 
        Dipole               -0.8673 Ry au,         -2.2044 Debye
        Dipole field         -0.0005 Ry au, 
 
        Potential amp.        0.0582 Ry
        Total length         54.2615 bohr
 
 
     Adding external electric field

     Computed dipole along edir(3) : 
        Dipole               -0.8673 Ry au,         -2.2044 Debye
        Dipole field         -0.0005 Ry au, 
 
        Potential amp.        0.0582 Ry
        Total length         54.2615 bohr
 

     total cpu time spent up to now is      419.9 secs

     total energy              =   -7398.03782790 Ry
     estimated scf accuracy    <       0.07032400 Ry

     total magnetization       =    80.33 Bohr mag/cell
     absolute magnetization    =    82.10 Bohr mag/cell

     iteration # 22     ecut=    50.00 Ry     beta= 0.10
     Davidson diagonalization with overlap
     c_bands:  2 eigenvalues not converged
     ethr =  6.52E-06,  avg # of iterations = 11.0

     negative rho (up, down):  1.631E-05 9.871E-06
 
     Adding external electric field

     Computed dipole along edir(3) : 
        Dipole               -0.7899 Ry au,         -2.0076 Debye
        Dipole field         -0.0005 Ry au, 
 
        Potential amp.        0.0530 Ry
        Total length         54.2615 bohr
 
 
     Adding external electric field

     Computed dipole along edir(3) : 
        Dipole               -0.7899 Ry au,         -2.0076 Debye
        Dipole field         -0.0005 Ry au, 
 
        Potential amp.        0.0530 Ry
        Total length         54.2615 bohr
 

     total cpu time spent up to now is      445.3 secs

     total energy              =   -7398.04122750 Ry
     estimated scf accuracy    <       0.07463278 Ry

     total magnetization       =    80.26 Bohr mag/cell
     absolute magnetization    =    81.98 Bohr mag/cell

     iteration # 23     ecut=    50.00 Ry     beta= 0.10
     Davidson diagonalization with overlap
     c_bands:  5 eigenvalues not converged
     ethr =  6.52E-06,  avg # of iterations = 16.5

     negative rho (up, down):  3.364E-06 3.293E-07
 
     Adding external electric field

     Computed dipole along edir(3) : 
        Dipole               -0.8573 Ry au,         -2.1791 Debye
        Dipole field         -0.0005 Ry au, 
 
        Potential amp.        0.0575 Ry
        Total length         54.2615 bohr
 
 
     Adding external electric field

     Computed dipole along edir(3) : 
        Dipole               -0.8573 Ry au,         -2.1791 Debye
        Dipole field         -0.0005 Ry au, 
 
        Potential amp.        0.0575 Ry
        Total length         54.2615 bohr
 

     total cpu time spent up to now is      477.2 secs

     total energy              =   -7398.03540311 Ry
     estimated scf accuracy    <       0.34169271 Ry

     total magnetization       =    79.20 Bohr mag/cell
     absolute magnetization    =    80.93 Bohr mag/cell

     iteration # 24     ecut=    50.00 Ry     beta= 0.10
     Davidson diagonalization with overlap
     ethr =  6.52E-06,  avg # of iterations =  2.0

     negative rho (up, down):  7.863E-06 5.282E-06
 
     Adding external electric field

     Computed dipole along edir(3) : 
        Dipole               -0.7990 Ry au,         -2.0309 Debye
        Dipole field         -0.0005 Ry au, 
 
        Potential amp.        0.0536 Ry
        Total length         54.2615 bohr
 
 
     Adding external electric field

     Computed dipole along edir(3) : 
        Dipole               -0.7990 Ry au,         -2.0309 Debye
        Dipole field         -0.0005 Ry au, 
 
        Potential amp.        0.0536 Ry
        Total length         54.2615 bohr
 

     total cpu time spent up to now is      494.2 secs

     total energy              =   -7398.03986739 Ry
     estimated scf accuracy    <       0.03310826 Ry

     total magnetization       =    80.41 Bohr mag/cell
     absolute magnetization    =    82.07 Bohr mag/cell

     iteration # 25     ecut=    50.00 Ry     beta= 0.10
     Davidson diagonalization with overlap
     ethr =  3.07E-06,  avg # of iterations =  2.0

     negative rho (up, down):  1.054E-05 7.189E-06
 
     Adding external electric field

     Computed dipole along edir(3) : 
        Dipole               -0.7924 Ry au,         -2.0141 Debye
        Dipole field         -0.0005 Ry au, 
 
        Potential amp.        0.0532 Ry
        Total length         54.2615 bohr
 
 
     Adding external electric field

     Computed dipole along edir(3) : 
        Dipole               -0.7924 Ry au,         -2.0141 Debye
        Dipole field         -0.0005 Ry au, 
 
        Potential amp.        0.0532 Ry
        Total length         54.2615 bohr
 

     total cpu time spent up to now is      510.4 secs

     total energy              =   -7398.04004699 Ry
     estimated scf accuracy    <       0.04364873 Ry

     total magnetization       =    80.27 Bohr mag/cell
     absolute magnetization    =    81.79 Bohr mag/cell

     iteration # 26     ecut=    50.00 Ry     beta= 0.10
     Davidson diagonalization with overlap
     ethr =  3.07E-06,  avg # of iterations =  1.0

     negative rho (up, down):  4.016E-05 2.973E-05
 
     Adding external electric field

     Computed dipole along edir(3) : 
        Dipole               -0.8163 Ry au,         -2.0747 Debye
        Dipole field         -0.0005 Ry au, 
 
        Potential amp.        0.0548 Ry
        Total length         54.2615 bohr
 
 
     Adding external electric field

     Computed dipole along edir(3) : 
        Dipole               -0.8163 Ry au,         -2.0747 Debye
        Dipole field         -0.0005 Ry au, 
 
        Potential amp.        0.0548 Ry
        Total length         54.2615 bohr
 

     total cpu time spent up to now is      524.4 secs

     total energy              =   -7398.03969978 Ry
     estimated scf accuracy    <       0.04650171 Ry

     total magnetization       =    80.31 Bohr mag/cell
     absolute magnetization    =    81.80 Bohr mag/cell

     iteration # 27     ecut=    50.00 Ry     beta= 0.10
     Davidson diagonalization with overlap
     ethr =  3.07E-06,  avg # of iterations =  1.5

     negative rho (up, down):  3.553E-06 1.473E-05
 
     Adding external electric field

     Computed dipole along edir(3) : 
        Dipole               -0.7933 Ry au,         -2.0163 Debye
        Dipole field         -0.0005 Ry au, 
 
        Potential amp.        0.0532 Ry
        Total length         54.2615 bohr
 
 
     Adding external electric field

     Computed dipole along edir(3) : 
        Dipole               -0.7933 Ry au,         -2.0163 Debye
        Dipole field         -0.0005 Ry au, 
 
        Potential amp.        0.0532 Ry
        Total length         54.2615 bohr
 

     total cpu time spent up to now is      539.5 secs

     total energy              =   -7398.03936972 Ry
     estimated scf accuracy    <       0.03411583 Ry

     total magnetization       =    80.61 Bohr mag/cell
     absolute magnetization    =    82.04 Bohr mag/cell

     iteration # 28     ecut=    50.00 Ry     beta= 0.10
     Davidson diagonalization with overlap
     ethr =  3.07E-06,  avg # of iterations =  1.0

     negative rho (up, down):  7.606E-06 1.026E-05
 
     Adding external electric field

     Computed dipole along edir(3) : 
        Dipole               -0.7320 Ry au,         -1.8606 Debye
        Dipole field         -0.0005 Ry au, 
 
        Potential amp.        0.0491 Ry
        Total length         54.2615 bohr
 
 
     Adding external electric field

     Computed dipole along edir(3) : 
        Dipole               -0.7320 Ry au,         -1.8606 Debye
        Dipole field         -0.0005 Ry au, 
 
        Potential amp.        0.0491 Ry
        Total length         54.2615 bohr
 

     total cpu time spent up to now is      554.9 secs

     total energy              =   -7398.04168828 Ry
     estimated scf accuracy    <       0.09840110 Ry

     total magnetization       =    80.13 Bohr mag/cell
     absolute magnetization    =    81.69 Bohr mag/cell

     iteration # 29     ecut=    50.00 Ry     beta= 0.10
     Davidson diagonalization with overlap
     ethr =  3.07E-06,  avg # of iterations =  2.0

     negative rho (up, down):  5.441E-06 7.278E-06
 
     Adding external electric field

     Computed dipole along edir(3) : 
        Dipole               -0.7289 Ry au,         -1.8526 Debye
        Dipole field         -0.0005 Ry au, 
 
        Potential amp.        0.0489 Ry
        Total length         54.2615 bohr
 
 
     Adding external electric field

     Computed dipole along edir(3) : 
        Dipole               -0.7289 Ry au,         -1.8526 Debye
        Dipole field         -0.0005 Ry au, 
 
        Potential amp.        0.0489 Ry
        Total length         54.2615 bohr
 

     total cpu time spent up to now is      572.3 secs

     total energy              =   -7398.04103268 Ry
     estimated scf accuracy    <       0.37609225 Ry

     total magnetization       =    79.59 Bohr mag/cell
     absolute magnetization    =    81.12 Bohr mag/cell

     iteration # 30     ecut=    50.00 Ry     beta= 0.10
     Davidson diagonalization with overlap
     ethr =  3.07E-06,  avg # of iterations =  1.0

     negative rho (up, down):  1.031E-05 1.392E-05
 
     Adding external electric field

     Computed dipole along edir(3) : 
        Dipole               -0.7516 Ry au,         -1.9104 Debye
        Dipole field         -0.0005 Ry au, 
 
        Potential amp.        0.0504 Ry
        Total length         54.2615 bohr
 
 
     Adding external electric field

     Computed dipole along edir(3) : 
        Dipole               -0.7516 Ry au,         -1.9104 Debye
        Dipole field         -0.0005 Ry au, 
 
        Potential amp.        0.0504 Ry
        Total length         54.2615 bohr
 

     total cpu time spent up to now is      587.6 secs

     total energy              =   -7398.04000699 Ry
     estimated scf accuracy    <       0.17329493 Ry

     total magnetization       =    79.77 Bohr mag/cell
     absolute magnetization    =    81.31 Bohr mag/cell

     iteration # 31     ecut=    50.00 Ry     beta= 0.10
     Davidson diagonalization with overlap
     ethr =  3.07E-06,  avg # of iterations =  1.0

     negative rho (up, down):  2.923E-05 3.535E-05
 
     Adding external electric field

     Computed dipole along edir(3) : 
        Dipole               -0.7709 Ry au,         -1.9594 Debye
        Dipole field         -0.0005 Ry au, 
 
        Potential amp.        0.0517 Ry
        Total length         54.2615 bohr
 
 
     Adding external electric field

     Computed dipole along edir(3) : 
        Dipole               -0.7709 Ry au,         -1.9594 Debye
        Dipole field         -0.0005 Ry au, 
 
        Potential amp.        0.0517 Ry
        Total length         54.2615 bohr
 

     total cpu time spent up to now is      603.2 secs

     total energy              =   -7398.03980122 Ry
     estimated scf accuracy    <       0.07508994 Ry

     total magnetization       =    80.11 Bohr mag/cell
     absolute magnetization    =    81.63 Bohr mag/cell

     iteration # 32     ecut=    50.00 Ry     beta= 0.10
     Davidson diagonalization with overlap
     ethr =  3.07E-06,  avg # of iterations =  1.0

     negative rho (up, down):  2.041E-05 2.353E-05
 
     Adding external electric field

     Computed dipole along edir(3) : 
        Dipole               -0.7839 Ry au,         -1.9924 Debye
        Dipole field         -0.0005 Ry au, 
 
        Potential amp.        0.0526 Ry
        Total length         54.2615 bohr
 
 
     Adding external electric field

     Computed dipole along edir(3) : 
        Dipole               -0.7839 Ry au,         -1.9924 Debye
        Dipole field         -0.0005 Ry au, 
 
        Potential amp.        0.0526 Ry
        Total length         54.2615 bohr
 

     total cpu time spent up to now is      618.7 secs

     total energy              =   -7398.04018122 Ry
     estimated scf accuracy    <       0.04078651 Ry

     total magnetization       =    80.35 Bohr mag/cell
     absolute magnetization    =    81.87 Bohr mag/cell

     iteration # 33     ecut=    50.00 Ry     beta= 0.10
     Davidson diagonalization with overlap
     ethr =  3.07E-06,  avg # of iterations =  1.0

     negative rho (up, down):  9.388E-05 1.001E-04
 
     Adding external electric field

     Computed dipole along edir(3) : 
        Dipole               -0.7471 Ry au,         -1.8990 Debye
        Dipole field         -0.0005 Ry au, 
 
        Potential amp.        0.0501 Ry
        Total length         54.2615 bohr
 
 
     Adding external electric field

     Computed dipole along edir(3) : 
        Dipole               -0.7471 Ry au,         -1.8990 Debye
        Dipole field         -0.0005 Ry au, 
 
        Potential amp.        0.0501 Ry
        Total length         54.2615 bohr
 

     total cpu time spent up to now is      634.4 secs

     total energy              =   -7398.03979679 Ry
     estimated scf accuracy    <       0.03841832 Ry

     total magnetization       =    80.38 Bohr mag/cell
     absolute magnetization    =    81.89 Bohr mag/cell

     iteration # 34     ecut=    50.00 Ry     beta= 0.10
     Davidson diagonalization with overlap
     ethr =  3.07E-06,  avg # of iterations =  1.0

     negative rho (up, down):  1.201E-04 1.218E-04
 
     Adding external electric field

     Computed dipole along edir(3) : 
        Dipole               -0.7569 Ry au,         -1.9238 Debye
        Dipole field         -0.0005 Ry au, 
 
        Potential amp.        0.0508 Ry
        Total length         54.2615 bohr
 
 
     Adding external electric field

     Computed dipole along edir(3) : 
        Dipole               -0.7569 Ry au,         -1.9238 Debye
        Dipole field         -0.0005 Ry au, 
 
        Potential amp.        0.0508 Ry
        Total length         54.2615 bohr
 

     total cpu time spent up to now is      650.1 secs

     total energy              =   -7398.04010162 Ry
     estimated scf accuracy    <       0.04924183 Ry

     total magnetization       =    80.29 Bohr mag/cell
     absolute magnetization    =    81.78 Bohr mag/cell

     iteration # 35     ecut=    50.00 Ry     beta= 0.10
     Davidson diagonalization with overlap
     ethr =  3.07E-06,  avg # of iterations =  1.0

     negative rho (up, down):  1.673E-04 1.894E-04
 
     Adding external electric field

     Computed dipole along edir(3) : 
        Dipole               -0.7492 Ry au,         -1.9043 Debye
        Dipole field         -0.0005 Ry au, 
 
        Potential amp.        0.0503 Ry
        Total length         54.2615 bohr
 
 
     Adding external electric field

     Computed dipole along edir(3) : 
        Dipole               -0.7492 Ry au,         -1.9043 Debye
        Dipole field         -0.0005 Ry au, 
 
        Potential amp.        0.0503 Ry
        Total length         54.2615 bohr
 

     total cpu time spent up to now is      666.0 secs

     total energy              =   -7398.04010654 Ry
     estimated scf accuracy    <       0.04684106 Ry

     total magnetization       =    80.29 Bohr mag/cell
     absolute magnetization    =    81.78 Bohr mag/cell

     iteration # 36     ecut=    50.00 Ry     beta= 0.10
     Davidson diagonalization with overlap
     ethr =  3.07E-06,  avg # of iterations =  1.0

     negative rho (up, down):  1.233E-04 1.162E-04
 
     Adding external electric field

     Computed dipole along edir(3) : 
        Dipole               -0.7653 Ry au,         -1.9451 Debye
        Dipole field         -0.0005 Ry au, 
 
        Potential amp.        0.0514 Ry
        Total length         54.2615 bohr
 
 
     Adding external electric field

     Computed dipole along edir(3) : 
        Dipole               -0.7653 Ry au,         -1.9451 Debye
        Dipole field         -0.0005 Ry au, 
 
        Potential amp.        0.0514 Ry
        Total length         54.2615 bohr
 

     total cpu time spent up to now is      681.5 secs

     total energy              =   -7398.04020827 Ry
     estimated scf accuracy    <       0.05011099 Ry

     total magnetization       =    80.27 Bohr mag/cell
     absolute magnetization    =    81.77 Bohr mag/cell

     iteration # 37     ecut=    50.00 Ry     beta= 0.10
     Davidson diagonalization with overlap
     ethr =  3.07E-06,  avg # of iterations =  1.0

     negative rho (up, down):  1.785E-04 1.315E-04
 
     Adding external electric field

     Computed dipole along edir(3) : 
        Dipole               -0.7527 Ry au,         -1.9132 Debye
        Dipole field         -0.0005 Ry au, 
 
        Potential amp.        0.0505 Ry
        Total length         54.2615 bohr
 
 
     Adding external electric field

     Computed dipole along edir(3) : 
        Dipole               -0.7527 Ry au,         -1.9132 Debye
        Dipole field         -0.0005 Ry au, 
 
        Potential amp.        0.0505 Ry
        Total length         54.2615 bohr
 

     total cpu time spent up to now is      697.0 secs

     total energy              =   -7398.03967979 Ry
     estimated scf accuracy    <       0.04482098 Ry

     total magnetization       =    80.29 Bohr mag/cell
     absolute magnetization    =    81.80 Bohr mag/cell

     iteration # 38     ecut=    50.00 Ry     beta= 0.10
     Davidson diagonalization with overlap
     ethr =  3.07E-06,  avg # of iterations =  1.0

     negative rho (up, down):  6.313E-05 5.622E-05
 
     Adding external electric field

     Computed dipole along edir(3) : 
        Dipole               -0.8130 Ry au,         -2.0666 Debye
        Dipole field         -0.0005 Ry au, 
 
        Potential amp.        0.0546 Ry
        Total length         54.2615 bohr
 
 
     Adding external electric field

     Computed dipole along edir(3) : 
        Dipole               -0.8130 Ry au,         -2.0666 Debye
        Dipole field         -0.0005 Ry au, 
 
        Potential amp.        0.0546 Ry
        Total length         54.2615 bohr
 

     total cpu time spent up to now is      712.4 secs

     total energy              =   -7398.04063355 Ry
     estimated scf accuracy    <       0.03894589 Ry

     total magnetization       =    80.35 Bohr mag/cell
     absolute magnetization    =    81.82 Bohr mag/cell

     iteration # 39     ecut=    50.00 Ry     beta= 0.10
     Davidson diagonalization with overlap
     ethr =  3.07E-06,  avg # of iterations =  1.0

     negative rho (up, down):  3.322E-04 2.822E-04
 
     Adding external electric field

     Computed dipole along edir(3) : 
        Dipole               -0.7408 Ry au,         -1.8829 Debye
        Dipole field         -0.0005 Ry au, 
 
        Potential amp.        0.0497 Ry
        Total length         54.2615 bohr
 
 
     Adding external electric field

     Computed dipole along edir(3) : 
        Dipole               -0.7408 Ry au,         -1.8829 Debye
        Dipole field         -0.0005 Ry au, 
 
        Potential amp.        0.0497 Ry
        Total length         54.2615 bohr
 

     total cpu time spent up to now is      728.0 secs

     total energy              =   -7398.03902844 Ry
     estimated scf accuracy    <       0.07583757 Ry

     total magnetization       =    80.16 Bohr mag/cell
     absolute magnetization    =    81.64 Bohr mag/cell

     iteration # 40     ecut=    50.00 Ry     beta= 0.10
     Davidson diagonalization with overlap
     ethr =  3.07E-06,  avg # of iterations =  1.0

     negative rho (up, down):  2.480E-04 2.128E-04
 
     Adding external electric field

     Computed dipole along edir(3) : 
        Dipole               -0.7940 Ry au,         -2.0182 Debye
        Dipole field         -0.0005 Ry au, 
 
        Potential amp.        0.0533 Ry
        Total length         54.2615 bohr
 
 
     Adding external electric field

     Computed dipole along edir(3) : 
        Dipole               -0.7940 Ry au,         -2.0182 Debye
        Dipole field         -0.0005 Ry au, 
 
        Potential amp.        0.0533 Ry
        Total length         54.2615 bohr
 

     total cpu time spent up to now is      743.3 secs

     total energy              =   -7398.03997178 Ry
     estimated scf accuracy    <       0.03124851 Ry

     total magnetization       =    80.42 Bohr mag/cell
     absolute magnetization    =    81.94 Bohr mag/cell

     iteration # 41     ecut=    50.00 Ry     beta= 0.10
     Davidson diagonalization with overlap
     ethr =  2.90E-06,  avg # of iterations =  1.0

     negative rho (up, down):  9.130E-04 7.848E-04
 
     Adding external electric field

     Computed dipole along edir(3) : 
        Dipole               -0.6585 Ry au,         -1.6736 Debye
        Dipole field         -0.0004 Ry au, 
 
        Potential amp.        0.0442 Ry
        Total length         54.2615 bohr
 
 
     Adding external electric field

     Computed dipole along edir(3) : 
        Dipole               -0.6585 Ry au,         -1.6736 Debye
        Dipole field         -0.0004 Ry au, 
 
        Potential amp.        0.0442 Ry
        Total length         54.2615 bohr
 

     total cpu time spent up to now is      759.0 secs

     total energy              =   -7398.03826030 Ry
     estimated scf accuracy    <       0.03130853 Ry

     total magnetization       =    80.44 Bohr mag/cell
     absolute magnetization    =    81.98 Bohr mag/cell

     iteration # 42     ecut=    50.00 Ry     beta= 0.10
     Davidson diagonalization with overlap
     ethr =  2.90E-06,  avg # of iterations =  2.0

     negative rho (up, down):  2.761E-04 2.427E-04
 
     Adding external electric field

     Computed dipole along edir(3) : 
        Dipole               -0.7371 Ry au,         -1.8736 Debye
        Dipole field         -0.0005 Ry au, 
 
        Potential amp.        0.0495 Ry
        Total length         54.2615 bohr
 
 
     Adding external electric field

     Computed dipole along edir(3) : 
        Dipole               -0.7371 Ry au,         -1.8736 Debye
        Dipole field         -0.0005 Ry au, 
 
        Potential amp.        0.0495 Ry
        Total length         54.2615 bohr
 

     total cpu time spent up to now is      776.0 secs

     total energy              =   -7398.03966050 Ry
     estimated scf accuracy    <       0.03224290 Ry

     total magnetization       =    80.42 Bohr mag/cell
     absolute magnetization    =    82.02 Bohr mag/cell

     iteration # 43     ecut=    50.00 Ry     beta= 0.10
     Davidson diagonalization with overlap
     ethr =  2.90E-06,  avg # of iterations =  1.0

     negative rho (up, down):  1.631E-03 1.501E-03
 
     Adding external electric field

     Computed dipole along edir(3) : 
        Dipole               -0.5643 Ry au,         -1.4342 Debye
        Dipole field         -0.0003 Ry au, 
 
        Potential amp.        0.0379 Ry
        Total length         54.2615 bohr
 
 
     Adding external electric field

     Computed dipole along edir(3) : 
        Dipole               -0.5643 Ry au,         -1.4342 Debye
        Dipole field         -0.0003 Ry au, 
 
        Potential amp.        0.0379 Ry
        Total length         54.2615 bohr
 

     total cpu time spent up to now is      791.3 secs

     total energy              =   -7398.03788861 Ry
     estimated scf accuracy    <       0.03137971 Ry

     total magnetization       =    80.41 Bohr mag/cell
     absolute magnetization    =    81.96 Bohr mag/cell

     iteration # 44     ecut=    50.00 Ry     beta= 0.10
     Davidson diagonalization with overlap
     ethr =  2.90E-06,  avg # of iterations =  2.0

     negative rho (up, down):  1.610E-03 1.515E-03
 
     Adding external electric field

     Computed dipole along edir(3) : 
        Dipole               -0.5837 Ry au,         -1.4837 Debye
        Dipole field         -0.0004 Ry au, 
 
        Potential amp.        0.0392 Ry
        Total length         54.2615 bohr
 
 
     Adding external electric field

     Computed dipole along edir(3) : 
        Dipole               -0.5837 Ry au,         -1.4837 Debye
        Dipole field         -0.0004 Ry au, 
 
        Potential amp.        0.0392 Ry
        Total length         54.2615 bohr
 

     total cpu time spent up to now is      808.5 secs

     total energy              =   -7398.03832422 Ry
     estimated scf accuracy    <       0.02747498 Ry

     total magnetization       =    80.48 Bohr mag/cell
     absolute magnetization    =    82.05 Bohr mag/cell

     iteration # 45     ecut=    50.00 Ry     beta= 0.10
     Davidson diagonalization with overlap
     ethr =  2.55E-06,  avg # of iterations =  1.0

     negative rho (up, down):  2.768E-03 2.558E-03
 
     Adding external electric field

     Computed dipole along edir(3) : 
        Dipole               -0.5255 Ry au,         -1.3356 Debye
        Dipole field         -0.0003 Ry au, 
 
        Potential amp.        0.0353 Ry
        Total length         54.2615 bohr
 
 
     Adding external electric field

     Computed dipole along edir(3) : 
        Dipole               -0.5255 Ry au,         -1.3356 Debye
        Dipole field         -0.0003 Ry au, 
 
        Potential amp.        0.0353 Ry
        Total length         54.2615 bohr
 

     total cpu time spent up to now is      823.6 secs

     total energy              =   -7398.03742938 Ry
     estimated scf accuracy    <       0.02833379 Ry

     total magnetization       =    80.47 Bohr mag/cell
     absolute magnetization    =    82.06 Bohr mag/cell

     iteration # 46     ecut=    50.00 Ry     beta= 0.10
     Davidson diagonalization with overlap
     ethr =  2.55E-06,  avg # of iterations =  2.0

     negative rho (up, down):  2.277E-03 1.994E-03
 
     Adding external electric field

     Computed dipole along edir(3) : 
        Dipole               -0.5287 Ry au,         -1.3438 Debye
        Dipole field         -0.0003 Ry au, 
 
        Potential amp.        0.0355 Ry
        Total length         54.2615 bohr
 
 
     Adding external electric field

     Computed dipole along edir(3) : 
        Dipole               -0.5287 Ry au,         -1.3438 Debye
        Dipole field         -0.0003 Ry au, 
 
        Potential amp.        0.0355 Ry
        Total length         54.2615 bohr
 

     total cpu time spent up to now is      841.1 secs

     total energy              =   -7398.03724742 Ry
     estimated scf accuracy    <       0.02866245 Ry

     total magnetization       =    80.52 Bohr mag/cell
     absolute magnetization    =    82.06 Bohr mag/cell

     iteration # 47     ecut=    50.00 Ry     beta= 0.10
     Davidson diagonalization with overlap
     ethr =  2.55E-06,  avg # of iterations =  1.0

     negative rho (up, down):  6.430E-04 4.315E-04
 
     Adding external electric field

     Computed dipole along edir(3) : 
        Dipole               -0.5518 Ry au,         -1.4024 Debye
        Dipole field         -0.0003 Ry au, 
 
        Potential amp.        0.0370 Ry
        Total length         54.2615 bohr
 
 
     Adding external electric field

     Computed dipole along edir(3) : 
        Dipole               -0.5518 Ry au,         -1.4024 Debye
        Dipole field         -0.0003 Ry au, 
 
        Potential amp.        0.0370 Ry
        Total length         54.2615 bohr
 

     total cpu time spent up to now is      856.7 secs

     total energy              =   -7398.03674136 Ry
     estimated scf accuracy    <       0.02734703 Ry

     total magnetization       =    80.54 Bohr mag/cell
     absolute magnetization    =    82.08 Bohr mag/cell

     iteration # 48     ecut=    50.00 Ry     beta= 0.10
     Davidson diagonalization with overlap
     ethr =  2.54E-06,  avg # of iterations =  2.0

     negative rho (up, down):  1.312E-03 1.134E-03
 
     Adding external electric field

     Computed dipole along edir(3) : 
        Dipole               -0.5560 Ry au,         -1.4131 Debye
        Dipole field         -0.0003 Ry au, 
 
        Potential amp.        0.0373 Ry
        Total length         54.2615 bohr
 
 
     Adding external electric field

     Computed dipole along edir(3) : 
        Dipole               -0.5560 Ry au,         -1.4131 Debye
        Dipole field         -0.0003 Ry au, 
 
        Potential amp.        0.0373 Ry
        Total length         54.2615 bohr
 

     total cpu time spent up to now is      873.9 secs

     total energy              =   -7398.03772856 Ry
     estimated scf accuracy    <       0.03397563 Ry

     total magnetization       =    80.51 Bohr mag/cell
     absolute magnetization    =    81.94 Bohr mag/cell

     iteration # 49     ecut=    50.00 Ry     beta= 0.10
     Davidson diagonalization with overlap
     ethr =  2.54E-06,  avg # of iterations =  1.0

     negative rho (up, down):  2.113E-03 2.039E-03
 
     Adding external electric field

     Computed dipole along edir(3) : 
        Dipole               -0.6048 Ry au,         -1.5372 Debye
        Dipole field         -0.0004 Ry au, 
 
        Potential amp.        0.0406 Ry
        Total length         54.2615 bohr
 
 
     Adding external electric field

     Computed dipole along edir(3) : 
        Dipole               -0.6048 Ry au,         -1.5372 Debye
        Dipole field         -0.0004 Ry au, 
 
        Potential amp.        0.0406 Ry
        Total length         54.2615 bohr
 

     total cpu time spent up to now is      889.3 secs

     total energy              =   -7398.03757161 Ry
     estimated scf accuracy    <       0.02857581 Ry

     total magnetization       =    80.53 Bohr mag/cell
     absolute magnetization    =    82.06 Bohr mag/cell

     iteration # 50     ecut=    50.00 Ry     beta= 0.10
     Davidson diagonalization with overlap
     ethr =  2.54E-06,  avg # of iterations =  1.5

     negative rho (up, down):  1.447E-03 1.414E-03
 
     Adding external electric field

     Computed dipole along edir(3) : 
        Dipole               -0.6063 Ry au,         -1.5412 Debye
        Dipole field         -0.0004 Ry au, 
 
        Potential amp.        0.0407 Ry
        Total length         54.2615 bohr
 
 
     Adding external electric field

     Computed dipole along edir(3) : 
        Dipole               -0.6063 Ry au,         -1.5412 Debye
        Dipole field         -0.0004 Ry au, 
 
        Potential amp.        0.0407 Ry
        Total length         54.2615 bohr
 

     total cpu time spent up to now is      906.0 secs

     total energy              =   -7398.03755999 Ry
     estimated scf accuracy    <       0.02469542 Ry

     total magnetization       =    80.49 Bohr mag/cell
     absolute magnetization    =    82.03 Bohr mag/cell

     iteration # 51     ecut=    50.00 Ry     beta= 0.10
     Davidson diagonalization with overlap
     ethr =  2.29E-06,  avg # of iterations =  1.5

     negative rho (up, down):  1.792E-03 1.712E-03
 
     Adding external electric field

     Computed dipole along edir(3) : 
        Dipole               -0.6025 Ry au,         -1.5313 Debye
        Dipole field         -0.0004 Ry au, 
 
        Potential amp.        0.0404 Ry
        Total length         54.2615 bohr
 
 
     Adding external electric field

     Computed dipole along edir(3) : 
        Dipole               -0.6025 Ry au,         -1.5313 Debye
        Dipole field         -0.0004 Ry au, 
 
        Potential amp.        0.0404 Ry
        Total length         54.2615 bohr
 

     total cpu time spent up to now is      922.4 secs

     total energy              =   -7398.03758841 Ry
     estimated scf accuracy    <       0.02483075 Ry

     total magnetization       =    80.51 Bohr mag/cell
     absolute magnetization    =    82.07 Bohr mag/cell

     iteration # 52     ecut=    50.00 Ry     beta= 0.10
     Davidson diagonalization with overlap
     ethr =  2.29E-06,  avg # of iterations =  1.0

     negative rho (up, down):  2.265E-03 2.212E-03
 
     Adding external electric field

     Computed dipole along edir(3) : 
        Dipole               -0.5332 Ry au,         -1.3554 Debye
        Dipole field         -0.0003 Ry au, 
 
        Potential amp.        0.0358 Ry
        Total length         54.2615 bohr
 
 
     Adding external electric field

     Computed dipole along edir(3) : 
        Dipole               -0.5332 Ry au,         -1.3554 Debye
        Dipole field         -0.0003 Ry au, 
 
        Potential amp.        0.0358 Ry
        Total length         54.2615 bohr
 

     total cpu time spent up to now is      937.6 secs

     total energy              =   -7398.03733041 Ry
     estimated scf accuracy    <       0.02475348 Ry

     total magnetization       =    80.49 Bohr mag/cell
     absolute magnetization    =    82.04 Bohr mag/cell

     iteration # 53     ecut=    50.00 Ry     beta= 0.10
     Davidson diagonalization with overlap
     ethr =  2.29E-06,  avg # of iterations =  2.0

     negative rho (up, down):  1.040E-03 9.670E-04
 
     Adding external electric field

     Computed dipole along edir(3) : 
        Dipole               -0.7146 Ry au,         -1.8163 Debye
        Dipole field         -0.0004 Ry au, 
 
        Potential amp.        0.0480 Ry
        Total length         54.2615 bohr
 
 
     Adding external electric field

     Computed dipole along edir(3) : 
        Dipole               -0.7146 Ry au,         -1.8163 Debye
        Dipole field         -0.0004 Ry au, 
 
        Potential amp.        0.0480 Ry
        Total length         54.2615 bohr
 

     total cpu time spent up to now is      955.2 secs

     total energy              =   -7398.03752447 Ry
     estimated scf accuracy    <       0.02515945 Ry

     total magnetization       =    80.50 Bohr mag/cell
     absolute magnetization    =    82.09 Bohr mag/cell

     iteration # 54     ecut=    50.00 Ry     beta= 0.10
     Davidson diagonalization with overlap
     ethr =  2.29E-06,  avg # of iterations =  2.0

     negative rho (up, down):  1.312E-03 1.277E-03
 
     Adding external electric field

     Computed dipole along edir(3) : 
        Dipole               -0.6416 Ry au,         -1.6307 Debye
        Dipole field         -0.0004 Ry au, 
 
        Potential amp.        0.0431 Ry
        Total length         54.2615 bohr
 
 
     Adding external electric field

     Computed dipole along edir(3) : 
        Dipole               -0.6416 Ry au,         -1.6307 Debye
        Dipole field         -0.0004 Ry au, 
 
        Potential amp.        0.0431 Ry
        Total length         54.2615 bohr
 

     total cpu time spent up to now is      972.7 secs

     total energy              =   -7398.03779453 Ry
     estimated scf accuracy    <       0.02633959 Ry

     total magnetization       =    80.52 Bohr mag/cell
     absolute magnetization    =    82.14 Bohr mag/cell

     iteration # 55     ecut=    50.00 Ry     beta= 0.10
     Davidson diagonalization with overlap
     ethr =  2.29E-06,  avg # of iterations =  1.0

     negative rho (up, down):  2.913E-03 2.966E-03
 
     Adding external electric field

     Computed dipole along edir(3) : 
        Dipole               -0.6636 Ry au,         -1.6867 Debye
        Dipole field         -0.0004 Ry au, 
 
        Potential amp.        0.0445 Ry
        Total length         54.2615 bohr
 
 
     Adding external electric field

     Computed dipole along edir(3) : 
        Dipole               -0.6636 Ry au,         -1.6867 Debye
        Dipole field         -0.0004 Ry au, 
 
        Potential amp.        0.0445 Ry
        Total length         54.2615 bohr
 

     total cpu time spent up to now is      988.1 secs

     total energy              =   -7398.03771101 Ry
     estimated scf accuracy    <       0.02466063 Ry

     total magnetization       =    80.50 Bohr mag/cell
     absolute magnetization    =    82.04 Bohr mag/cell

     iteration # 56     ecut=    50.00 Ry     beta= 0.10
     Davidson diagonalization with overlap
     ethr =  2.29E-06,  avg # of iterations =  1.5

     negative rho (up, down):  1.029E-03 1.068E-03
 
     Adding external electric field

     Computed dipole along edir(3) : 
        Dipole               -0.5763 Ry au,         -1.4648 Debye
        Dipole field         -0.0004 Ry au, 
 
        Potential amp.        0.0387 Ry
        Total length         54.2615 bohr
 
 
     Adding external electric field

     Computed dipole along edir(3) : 
        Dipole               -0.5763 Ry au,         -1.4648 Debye
        Dipole field         -0.0004 Ry au, 
 
        Potential amp.        0.0387 Ry
        Total length         54.2615 bohr
 

     total cpu time spent up to now is     1004.4 secs

     total energy              =   -7398.03741101 Ry
     estimated scf accuracy    <       0.02667092 Ry

     total magnetization       =    80.47 Bohr mag/cell
     absolute magnetization    =    82.04 Bohr mag/cell

     iteration # 57     ecut=    50.00 Ry     beta= 0.10
     Davidson diagonalization with overlap
     ethr =  2.29E-06,  avg # of iterations =  1.5

     negative rho (up, down):  1.122E-03 1.159E-03
 
     Adding external electric field

     Computed dipole along edir(3) : 
        Dipole               -0.5488 Ry au,         -1.3949 Debye
        Dipole field         -0.0003 Ry au, 
 
        Potential amp.        0.0368 Ry
        Total length         54.2615 bohr
 
 
     Adding external electric field

     Computed dipole along edir(3) : 
        Dipole               -0.5488 Ry au,         -1.3949 Debye
        Dipole field         -0.0003 Ry au, 
 
        Potential amp.        0.0368 Ry
        Total length         54.2615 bohr
 

     total cpu time spent up to now is     1020.9 secs

     total energy              =   -7398.03695615 Ry
     estimated scf accuracy    <       0.02435217 Ry

     total magnetization       =    80.48 Bohr mag/cell
     absolute magnetization    =    82.01 Bohr mag/cell

     iteration # 58     ecut=    50.00 Ry     beta= 0.10
     Davidson diagonalization with overlap
     ethr =  2.26E-06,  avg # of iterations =  1.5

     negative rho (up, down):  4.728E-04 4.281E-04
 
     Adding external electric field

     Computed dipole along edir(3) : 
        Dipole               -0.5719 Ry au,         -1.4536 Debye
        Dipole field         -0.0004 Ry au, 
 
        Potential amp.        0.0384 Ry
        Total length         54.2615 bohr
 
 
[...]
    -6.0004  -5.9874  -5.9585  -5.9371  -5.9177  -5.8869  -5.8517  -5.8438
    -5.8213  -5.8080  -5.7611  -5.7371  -5.7330  -5.7156  -5.6980  -5.6891
    -5.6768  -5.6707  -5.6401  -5.6253  -5.6143  -5.6001  -5.5305  -5.5148
    -5.4626  -5.4522  -5.4080  -5.4069  -5.3901  -5.3546  -5.3087  -5.2876
    -5.2452  -5.2163  -5.1910  -5.1801  -5.1695  -5.0846  -5.0831  -5.0611
    -4.9985  -4.9671  -4.9554  -4.9162  -4.8935  -4.8715  -4.8509  -4.8011
    -4.7847  -4.7672  -4.7622  -4.7373  -4.6469  -4.6322  -4.5840  -4.5517
    -4.5312  -4.5226  -4.4982  -4.4526  -4.4183  -4.3977  -4.3837  -4.3746
    -4.3652  -4.2966  -4.2924  -4.2325  -4.1788  -4.1498  -4.1107  -4.0945
    -4.0811  -4.0479  -4.0414  -4.0057  -3.9635  -3.9575  -3.9130  -3.9045
    -3.8865  -3.8477  -3.8282  -3.8174  -3.8073  -3.7724  -3.7468  -3.7366
    -3.7100  -3.6862  -3.6685  -3.6575  -3.6446  -3.6328  -3.6057  -3.5811
    -3.5487  -3.5300  -3.5267  -3.5039  -3.5019  -3.4879  -3.4551  -3.4466
    -3.4167  -3.4077  -3.3878  -3.3551  -3.3469  -3.3089  -3.2778  -3.2596
    -3.2384  -3.2220  -3.2110  -3.1936  -3.1759  -3.1688  -3.1511  -3.1446
    -3.1206  -3.0875  -3.0442  -3.0303  -3.0161  -2.9966  -2.9673  -2.9592
    -2.9269  -2.9187  -2.9002  -2.8760  -2.8633  -2.8487  -2.8244  -2.8140
    -2.8002  -2.7910  -2.7862  -2.7781  -2.7567  -2.7474  -2.7271  -2.7078
    -2.6921  -2.6683  -2.6668  -2.6547  -2.6271  -2.6129  -2.5978  -2.5840
    -2.5519  -2.5381  -2.5240  -2.5130  -2.4941  -2.4905  -2.4717  -2.4462
    -2.4283  -2.4037  -2.3923  -2.3697  -2.3532  -2.3171  -2.3038  -2.2879
    -2.2660  -2.2521  -2.2391  -2.2103  -2.1721  -2.1654  -2.1345  -2.1301
    -2.1142  -2.0876  -2.0858  -2.0763  -2.0675  -2.0427  -2.0106  -1.9956
    -1.9788  -1.9661  -1.9570  -1.9403  -1.9345  -1.9189  -1.9010  -1.8732
    -1.8483  -1.8235  -1.7957  -1.7694  -1.7410  -1.7295  -1.7086  -1.7016
    -1.6778  -1.6595  -1.6451  -1.6339  -1.6156  -1.6019  -1.5746  -1.5509
    -1.5329  -1.5184  -1.4908  -1.4687  -1.4580  -1.4311  -1.4235  -1.4195
    -1.4105  -1.3749  -1.3442  -1.3129  -1.3012  -1.2478  -1.2245  -1.2070
    -1.1546  -1.0961  -1.0686  -1.0566  -1.0177  -0.9305  -0.8846  -0.8801
    -0.7641  -0.6565  -0.6178  -0.6128  -0.4674  -0.3708  -0.3074  -0.2631
     0.0984   0.1217   0.1507   0.1866   0.2208   0.2398   0.2561   0.2667
     0.2794   0.2875   0.2962   0.3027   0.3102   0.3287   0.3395   0.3396
     0.3521   0.3583   0.3680   0.3746   0.3830   0.3879   0.3948   0.3990
     0.4068   0.4090   0.4216   0.4325   0.4427   0.4508   0.4533   0.4569
     0.4615   0.4636   0.4719   0.4783   0.4893   0.4972   0.5005   0.5094
     0.5139   0.5309   0.5364   0.5437   0.5580   0.5588   0.5630   0.5716
     0.5777   0.5849   0.5925   0.5949   0.6021   0.6113   0.6222   0.6310
     0.6419   0.6521   0.6587   0.6599   0.6635   0.6714   0.6818   0.6835
     0.6922   0.7009   0.7070   0.7107   0.7167   0.7213   0.7397   0.7428
     0.7470   0.7513   0.7756   0.7831   0.7854   0.7936   0.8042   0.8214
     0.8362   0.8392   0.8405   0.8506   0.8601   0.8629   0.8758   0.8799
     0.8939   0.8990   0.9096   0.9161   0.9227   0.9826   1.0119   1.0160
     1.0678   1.1316   1.6039   1.6542   1.6944   1.6969   1.7100   1.7409
     1.7562   1.8361   1.8674   1.8708   1.8877   1.9171   1.9295   1.9599
     1.9869   1.9930   2.0109   2.0158   2.0550   2.0684   2.0764   2.1149
     2.1421   2.1547   2.1803   2.1879   2.1927   2.2115   2.2212   2.2345
     2.2484   2.2529   2.2631   2.2799   2.2880   2.2965   2.3018   2.3209
     2.3319   2.3391   2.3683   2.3807   2.4073   2.4130   2.4169   2.4362
     2.4510   2.4706   2.4935   2.4974   2.5117   2.5319   2.5362   2.5494
     2.5773   2.5891   2.6252   2.6430   2.6627   2.6864   2.7284   2.7531
     2.7836   2.8309   2.8385   2.8881   2.9007   3.5573   3.5868   3.6613
     3.7273   3.8150   3.8257   3.8403   3.8570   3.9942   4.0578   4.5533
     4.6390   4.6961   4.7702   4.9224   4.9416   5.0158   5.4125   6.2914
     6.3570   6.5386   6.5786   6.7371   6.8292   6.8411   6.8792   6.9218
     7.0244   7.0785   7.0878   7.1216   7.3161   7.3652   7.3870   7.4269
     7.5010   7.5411   7.6559   7.6763   7.6908   7.7255   7.7888   7.8036
     7.8477   7.9198   7.9606   7.9728   8.0077   8.0198   8.0463   8.0694
     8.0961   8.1162   8.1682   8.2003   8.2323   8.2500   8.2841   8.3183
     8.3767   8.3987   8.4131   8.4594   8.4725   8.4750   8.4975   8.5107
     8.5471   8.5517   8.5916   8.5961   8.6119   8.6343   8.6681   8.6781
     8.7158   8.7527   8.7701   8.8014   8.8344   8.8516   8.9066

     the Fermi energy is     1.5614 ev

!    total energy              =   -7398.03604371 Ry
     estimated scf accuracy    <       0.00000081 Ry
     smearing contrib. (-TS)   =      -0.01416923 Ry
     internal energy E=F+TS    =   -7398.02187448 Ry

     The total energy is F=E-TS. E is the sum of the following terms:
     one-electron contribution =  -91723.67878065 Ry
     hartree contribution      =   46509.63199174 Ry
     xc contribution           =   -2260.27936325 Ry
     ewald contribution        =   40078.13817060 Ry
     Dispersion Correction     =      -1.83390704 Ry
     electric field correction =       0.00001413 Ry

     total magnetization       =    80.45 Bohr mag/cell
     absolute magnetization    =    81.98 Bohr mag/cell

     convergence has been achieved in 111 iterations

     negative rho (up, down):  9.284E-04 5.459E-04

     Forces acting on atoms (cartesian axes, Ry/au):

     atom    1 type  2   force =     0.03101527   -0.01966609   -0.01608462
     atom    2 type  1   force =     0.00229722   -0.00385710   -0.01051626
     atom    3 type  1   force =    -0.02153811   -0.02067465    0.01828976
     atom    4 type  1   force =     0.00136034    0.01023568   -0.01244894
     atom    5 type  1   force =    -0.00483636    0.02902059   -0.01812944
     atom    6 type  1   force =     0.00585038    0.00041619   -0.00011124
     atom    7 type  1   force =     0.02681543   -0.02084276    0.01751587
     atom    8 type  1   force =    -0.00966713   -0.00299164   -0.01084885
     atom    9 type  1   force =    -0.02971198   -0.01822652    0.01626609
     atom   10 type  1   force =    -0.00117210    0.00799684   -0.01272154
     atom   11 type  1   force =    -0.01306641    0.03037629   -0.02028949
     atom   12 type  1   force =     0.00124286    0.00650977   -0.00374797
     atom   13 type  3   force =     0.05101814   -0.11002957    0.00913227
     atom   14 type  3   force =    -0.02904607    0.03594265   -0.06521445
     atom   15 type  3   force =    -0.00918910    0.17547587   -0.08319617
     atom   16 type  3   force =     0.06070604    0.00054232   -0.00440636
     atom   17 type  4   force =     0.01516221   -0.02184633   -0.00976816
     atom   18 type  4   force =    -0.00538959    0.00482489    0.02968159
     atom   19 type  4   force =     0.00215511    0.00100722    0.03074989
     atom   20 type  4   force =     0.00512544    0.00187467    0.00237862
     atom   21 type  4   force =     0.00056119   -0.01198254   -0.00002891
     atom   22 type  4   force =    -0.00092847    0.00388544    0.03240396
     atom   23 type  4   force =    -0.00606386    0.01468489    0.02735460
     atom   24 type  4   force =     0.00864313    0.00325046   -0.00435694
     atom   25 type  4   force =     0.00648432   -0.00326627    0.00156550
     atom   26 type  4   force =     0.03120869   -0.17835744    0.00722732
     atom   27 type  4   force =     0.00291345    0.00098756    0.00170094
     atom   28 type  4   force =    -0.01707902    0.00167947    0.00474181
     atom   29 type  4   force =     0.09139235    0.00311656    0.00804884
     atom   30 type  4   force =     0.01304856   -0.02520529   -0.00091749
     atom   31 type  4   force =    -0.03844634    0.13331683   -0.00017355
     atom   32 type  4   force =    -0.00553248   -0.01187387    0.00653534
     atom   33 type  3   force =     0.04158906   -0.11920074    0.00958974
     atom   34 type  3   force =    -0.10167332    0.04258891   -0.07576896
     atom   35 type  3   force =    -0.01350505    0.16599021   -0.08813576
     atom   36 type  3   force =    -0.00359580    0.00255903   -0.01046303
     atom   37 type  4   force =     0.00824312   -0.01467660   -0.00234111
     atom   38 type  4   force =    -0.00586459   -0.00170051    0.02743566
     atom   39 type  4   force =    -0.00468611    0.00723841    0.03216903
     atom   40 type  4   force =     0.00130177    0.00003580    0.00249967
     atom   41 type  4   force =    -0.00146066   -0.00960027   -0.00157613
     atom   42 type  4   force =     0.00540299   -0.00050965    0.02926803
     atom   43 type  4   force =    -0.01043715    0.01351226    0.02700413
     atom   44 type  4   force =     0.00443143    0.00349975   -0.00453626
     atom   45 type  4   force =    -0.00032046   -0.00066435    0.00201620
     atom   46 type  4   force =     0.02816668   -0.17059017    0.00540057
     atom   47 type  4   force =    -0.06548755   -0.00075064   -0.00310043
     atom   48 type  4   force =    -0.01988273    0.00391044    0.00530244
     atom   49 type  4   force =     0.01411974    0.00084176    0.00204217
     atom   50 type  4   force =     0.00791967   -0.02442921   -0.00017129
     atom   51 type  4   force =    -0.03970836    0.13326561   -0.00136078
     atom   52 type  4   force =    -0.00784373   -0.01066328    0.00876894
     atom   53 type  2   force =     0.00646732   -0.00719666    0.00538529
     atom   54 type  1   force =     0.00103766   -0.00378608    0.00696962
     atom   55 type  1   force =     0.00496154   -0.00648604    0.00646678
     atom   56 type  1   force =    -0.00101894    0.00705173   -0.00087883
     atom   57 type  1   force =     0.00045576    0.02216906   -0.01426878
     atom   58 type  1   force =     0.00157359   -0.00339624    0.00231503
     atom   59 type  1   force =     0.00250013   -0.00994125    0.00360630
     atom   60 type  1   force =    -0.00751007   -0.00342727    0.00379391
     atom   61 type  1   force =    -0.00470116   -0.00514072    0.00642609
     atom   62 type  1   force =    -0.00211321    0.00479147    0.00204041
     atom   63 type  1   force =    -0.01074967    0.02519947   -0.01761510
     atom   64 type  1   force =    -0.00223446    0.00115807   -0.00086920
     atom   65 type  3   force =     0.04666754   -0.11943709    0.01679435
     atom   66 type  3   force =     0.00156381   -0.00440932    0.00064300
     atom   67 type  3   force =    -0.04058056    0.12367353   -0.00695000
     atom   68 type  3   force =     0.06322752   -0.00247083    0.00829253
     atom   69 type  4   force =     0.01278117   -0.01735987   -0.00205925
     atom   70 type  4   force =    -0.00174558    0.00343888   -0.00069124
     atom   71 type  4   force =    -0.00191373    0.00334936    0.00515551
     atom   72 type  4   force =     0.00472799    0.00155747    0.00086590
     atom   73 type  4   force =     0.00671782   -0.01712193    0.01175583
     atom   74 type  4   force =    -0.00438662   -0.00337252    0.00934605
     atom   75 type  4   force =     0.00347797    0.00858854    0.00460766
     atom   76 type  4   force =     0.00535662    0.00015517    0.00096694
     atom   77 type  4   force =     0.00601687   -0.00130512   -0.00074295
     atom   78 type  4   force =     0.04522342   -0.14078737    0.00575739
     atom   79 type  4   force =     0.00027533    0.00030326   -0.00098709
     atom   80 type  4   force =     0.00157879    0.00184333    0.00223800
     atom   81 type  4   force =     0.06733101    0.00014057    0.00649643
     atom   82 type  4   force =     0.00020559    0.00241629    0.00125775
     atom   83 type  4   force =    -0.03958811    0.13729572   -0.00230567
     atom   84 type  4   force =    -0.00209852   -0.01049876    0.00356698
     atom   85 type  3   force =     0.03901463   -0.12281098    0.02653614
     atom   86 type  3   force =    -0.06322751   -0.00178249   -0.00387369
     atom   87 type  3   force =    -0.04622102    0.12090824   -0.01042662
     atom   88 type  3   force =     0.00008410   -0.00108834    0.00188821
     atom   89 type  4   force =     0.00869975   -0.01532963   -0.00511029
     atom   90 type  4   force =    -0.00448328    0.00109758   -0.00079430
     atom   91 type  4   force =    -0.00947962    0.00829351    0.00545345
     atom   92 type  4   force =     0.00025055    0.00002331   -0.00010124
     atom   93 type  4   force =     0.00187296   -0.01183819    0.00089982
     atom   94 type  4   force =    -0.00903537   -0.00298437    0.00837578
     atom   95 type  4   force =    -0.00037450    0.00768458    0.00306520
     atom   96 type  4   force =    -0.00120372    0.00203724   -0.00199338
     atom   97 type  4   force =    -0.00095194    0.00165842   -0.00031858
     atom   98 type  4   force =     0.04060183   -0.13911860    0.00484596
     atom   99 type  4   force =    -0.06735263   -0.00068427   -0.00574113
     atom  100 type  4   force =    -0.00035184    0.00280373    0.00282310
     atom  101 type  4   force =    -0.00124902    0.00009774    0.00138166
     atom  102 type  4   force =    -0.00682246    0.00553920    0.00153523
     atom  103 type  4   force =    -0.03982045    0.13539709   -0.00469569
     atom  104 type  4   force =    -0.00544342   -0.01019881    0.00526490
     atom  105 type  2   force =     0.00008990    0.00039599    0.00015014
     atom  106 type  1   force =    -0.00006148   -0.00025658   -0.00009992
     atom  107 type  1   force =    -0.00044260   -0.00095151   -0.00001149
     atom  108 type  1   force =    -0.00055046   -0.00060091    0.00021482
     atom  109 type  1   force =     0.00017261   -0.00021914   -0.00025102
     atom  110 type  1   force =    -0.00015219   -0.00012664    0.00044677
     atom  111 type  1   force =     0.00002757    0.00044354    0.00023960
     atom  112 type  1   force =     0.00019853   -0.00024533    0.00017123
     atom  113 type  1   force =    -0.00037619   -0.00067496   -0.00055234
     atom  114 type  1   force =     0.00268121   -0.00192086    0.00259690
     atom  115 type  1   force =     0.00017418    0.00006852    0.00017858
     atom  116 type  1   force =     0.00015744   -0.00003350   -0.00009642
     atom  117 type  3   force =     0.00037828    0.00053184   -0.00055605
     atom  118 type  3   force =    -0.00040186   -0.00027150   -0.00016313
     atom  119 type  3   force =    -0.00011800    0.00005148    0.00040642
     atom  120 type  3   force =     0.00060281   -0.00032738    0.00052799
     atom  121 type  4   force =     0.00003135   -0.00015381    0.00018162
     atom  122 type  4   force =    -0.00008143    0.00003590   -0.00024687
     atom  123 type  4   force =     0.00022569    0.00001958    0.00011444
     atom  124 type  4   force =     0.00033927   -0.00039277   -0.00024595
     atom  125 type  4   force =    -0.00016471   -0.00024729    0.00016873
     atom  126 type  4   force =     0.00013492   -0.00035731   -0.00009119
     atom  127 type  4   force =    -0.00002265    0.00017041    0.00030636
     atom  128 type  4   force =     0.00007377    0.00071754   -0.00095382
     atom  129 type  4   force =    -0.00067466    0.00081395   -0.00043354
     atom  130 type  4   force =     0.00014968    0.00015923    0.00018047
     atom  131 type  4   force =     0.00003013   -0.00089207    0.00041265
     atom  132 type  4   force =     0.00010768   -0.00013276   -0.00024066
     atom  133 type  4   force =    -0.00012577   -0.00014525   -0.00020384
     atom  134 type  4   force =     0.00003841   -0.00021800   -0.00002539
     atom  135 type  4   force =     0.00002036   -0.00052660   -0.00010434
     atom  136 type  4   force =    -0.00012540   -0.00013712   -0.00009231
     atom  137 type  3   force =    -0.00040027   -0.00028345   -0.00018504
     atom  138 type  3   force =     0.00010614    0.00001322   -0.00007353
     atom  139 type  3   force =    -0.00000039   -0.00029388   -0.00014492
     atom  140 type  3   force =     0.00006177   -0.00023615   -0.00035877
     atom  141 type  4   force =     0.00083860    0.00050033    0.00066998
     atom  142 type  4   force =    -0.00020451    0.00013409   -0.00008198
     atom  143 type  4   force =    -0.00000602   -0.00035736   -0.00001171
     atom  144 type  4   force =     0.00003662    0.00074584   -0.00072849
     atom  145 type  4   force =    -0.00001039   -0.00009398    0.00002878
     atom  146 type  4   force =     0.00013548   -0.00020622    0.00021731
     atom  147 type  4   force =     0.00014022    0.00011037   -0.00022321
     atom  148 type  4   force =    -0.00050971    0.00012623    0.00024853
     atom  149 type  4   force =     0.00040117   -0.00017446   -0.00005470
     atom  150 type  4   force =     0.00014976   -0.00009415   -0.00002886
     atom  151 type  4   force =    -0.00003653   -0.00000120   -0.00039238
     atom  152 type  4   force =     0.00031610   -0.00038408    0.00027975
     atom  153 type  4   force =     0.00017062    0.00004185   -0.00005917
     atom  154 type  4   force =    -0.00039436   -0.00044427   -0.00007855
     atom  155 type  4   force =     0.00100333    0.00089373    0.00020998
     atom  156 type  4   force =    -0.00085840   -0.00005723   -0.00014202
     atom  157 type  4   force =    -0.01418440   -0.00667483   -0.00555974
     atom  158 type  5   force =     0.01085283    0.00847818    0.00347126

     Total force =     0.664860     Total SCF correction =     0.003412
 
     init_run     :     10.14s CPU     10.97s WALL (       1 calls)
     electrons    :   1852.82s CPU   1938.38s WALL (       1 calls)
     forces       :      6.49s CPU      6.98s WALL (       1 calls)
     force_london :      0.12s CPU      0.12s WALL (       1 calls)

     Called by init_run:
     wfcinit      :      5.69s CPU      5.91s WALL (       1 calls)
     potinit      :      0.77s CPU      0.95s WALL (       1 calls)
     hinit0       :      1.79s CPU      1.91s WALL (       1 calls)

     Called by electrons:
     c_bands      :   1395.47s CPU   1436.02s WALL (     111 calls)
     sum_band     :    284.80s CPU    308.81s WALL (     111 calls)
     v_of_rho     :     26.25s CPU     27.56s WALL (     112 calls)
     newd         :    105.05s CPU    124.65s WALL (     112 calls)
     mix_rho      :     39.34s CPU     39.59s WALL (     111 calls)
     energy_londo :      0.13s CPU      0.13s WALL (       1 calls)

     Called by c_bands:
     init_us_2    :      4.26s CPU      4.36s WALL (     448 calls)
     init_us_2:cp :      4.25s CPU      4.36s WALL (     448 calls)
     regterg      :   1360.60s CPU   1400.64s WALL (     223 calls)

     Called by *egterg:
     rdiaghg      :    309.48s CPU    325.99s WALL (     735 calls)
     h_psi        :    565.06s CPU    576.37s WALL (     737 calls)
     s_psi        :    100.66s CPU    100.74s WALL (     737 calls)
     g_psi        :      0.72s CPU      0.73s WALL (     512 calls)

     Called by h_psi:
     h_psi:calbec :    156.99s CPU    165.94s WALL (     737 calls)
     vloc_psi     :    305.42s CPU    306.49s WALL (     737 calls)
     add_vuspsi   :    101.28s CPU    102.54s WALL (     737 calls)

     General routines
     calbec       :    232.67s CPU    246.03s WALL (     967 calls)
     fft          :     66.78s CPU     68.47s WALL (    2029 calls)
     ffts         :     21.10s CPU     21.16s WALL (   13865 calls)
     fftw         :    342.95s CPU    344.14s WALL (  368536 calls)
     interpolate  :      2.52s CPU      2.67s WALL (     224 calls)
 
     Parallel routines
 
     PWSCF        :  31m11.88s CPU  32m39.07s WALL

 
   This run was terminated on:  19:37:46  19Nov2025            

=------------------------------------------------------------------------------=
   JOB DONE.
=------------------------------------------------------------------------------=
