
     Program PWSCF v.7.2 starts on 19Nov2025 at 22:11:22 

     This program is part of the open-source Quantum ESPRESSO suite
     for quantum simulation of materials; please cite
         "P. Giannozzi et al., J. Phys.:Condens. Matter 21 395502 (2009);
         "P. Giannozzi et al., J. Phys.:Condens. Matter 29 465901 (2017);
         "P. Giannozzi et al., J. Chem. Phys. 152 154105 (2020);
          URL http://www.quantum-espresso.org", 
     in publications or presentations arising from this work. More details at
     http://www.quantum-espresso.org/quote

     Parallel version (MPI), running on    64 processors

     MPI processes distributed on     4 nodes
     381313 MiB available memory on the printing compute node when the environment starts
 
     Reading input from PWINPUT_atm158_xm

     Current dimensions of program PWSCF are:
     Max number of different atomic species (ntypx) = 10
     Max number of k-points (npk) =  40000
     Max angular momentum in pseudopotentials (lmaxx) =  4
     Presently no symmetry can be used with electric field

     file Ni.pbe-n-rrkjus_psl.1.0.0.UPF: wavefunction(s)  3D renormalized
     file Mn.pbe-spn-rrkjus_psl.0.3.1.UPF: wavefunction(s)  3D renormalized
     file O.pbe-rrkjus.UPF: wavefunction(s)  2S renormalized
     file H.pbe-rrkjus.UPF: wavefunction(s)  1S renormalized

     gamma-point specific algorithms are used
 
     R & G space division:  proc/nbgrp/npool/nimage =      64
     Subspace diagonalization in iterative solution of the eigenvalue problem:
     one sub-group per band group will be used
     custom distributed-memory algorithm (size of sub-group:  6*  6 procs)

 
     Parallelization info
     --------------------
     sticks:   dense  smooth     PW     G-vecs:    dense   smooth      PW
     Min         208      82     20                59912    15118    1876
     Max         210      84     22                59974    15196    1926
     Sum       13399    5355   1345              3836275   970529  121367
 
     Using Slab Decomposition
 


     bravais-lattice index     =            0
     lattice parameter (alat)  =      17.7004  a.u.
     unit-cell volume          =   20319.7251 (a.u.)^3
     number of atoms/cell      =          158
     number of atomic types    =            5
     number of electrons       =      1078.00
     number of Kohn-Sham states=          647
     kinetic-energy cutoff     =      50.0000  Ry
     charge density cutoff     =     500.0000  Ry
     scf convergence threshold =      1.0E-06
     mixing beta               =       0.1000
     number of iterations used =            8  local-TF  mixing
     Exchange-correlation=  SLA  PW   PBE  PBE
                           (   1   4   3   4   0   0   0)

     celldm(1)=  17.700384  celldm(2)=   0.000000  celldm(3)=   0.000000
     celldm(4)=   0.000000  celldm(5)=   0.000000  celldm(6)=   0.000000

     crystal axes: (cart. coord. in units of alat)
               a(1) = (   1.000000   0.000000   0.000000 )  
               a(2) = (   0.000000   1.075730   0.000000 )  
               a(3) = (   0.000000   0.000000   3.406172 )  

     reciprocal axes: (cart. coord. in units 2 pi/alat)
               b(1) = (  1.000000  0.000000  0.000000 )  
               b(2) = (  0.000000  0.929602  0.000000 )  
               b(3) = (  0.000000  0.000000  0.293585 )  


     PseudoPot. # 1 for Ni read from file:
     ~/PSEUDO/Ni.pbe-n-rrkjus_psl.1.0.0.UPF
     MD5 check sum: Not computed, couldn't open file
     Pseudo is Ultrasoft + core correction, Zval = 10.0
     Generated using "atomic" code by A. Dal Corso  v.5.1.2
     Using radial grid of 1195 points,  6 beta functions with: 
                l(1) =   0
                l(2) =   0
                l(3) =   1
                l(4) =   1
                l(5) =   2
                l(6) =   2
     Q(r) pseudized with 0 coefficients 


     PseudoPot. # 2 for Mn read from file:
     ~/PSEUDO/Mn.pbe-spn-rrkjus_psl.0.3.1.UPF
     MD5 check sum: Not computed, couldn't open file
     Pseudo is Ultrasoft + core correction, Zval = 15.0
     Generated using &quot;atomic&quot; code by A. Dal Corso  v.6.2.2
     Using radial grid of 1187 points,  6 beta functions with: 
                l(1) =   0
                l(2) =   0
                l(3) =   1
                l(4) =   1
                l(5) =   2
                l(6) =   2
     Q(r) pseudized with 0 coefficients 


     PseudoPot. # 3 for P  read from file:
     ~/PSEUDO/P.pbe-n-rrkjus_psl.1.0.0.UPF
     MD5 check sum: Not computed, couldn't open file
     Pseudo is Ultrasoft + core correction, Zval =  5.0
     Generated using "atomic" code by A. Dal Corso  v.5.1
     Using radial grid of 1147 points,  6 beta functions with: 
                l(1) =   0
                l(2) =   0
                l(3) =   1
                l(4) =   1
                l(5) =   2
                l(6) =   2
     Q(r) pseudized with 0 coefficients 


     PseudoPot. # 4 for O  read from file:
     ~/PSEUDO/O.pbe-rrkjus.UPF
     MD5 check sum: Not computed, couldn't open file
     Pseudo is Ultrasoft, Zval =  6.0
     Generated by new atomic code, or converted to UPF format
     Using radial grid of 1269 points,  4 beta functions with: 
                l(1) =   0
                l(2) =   0
                l(3) =   1
                l(4) =   1
     Q(r) pseudized with 0 coefficients 


     PseudoPot. # 5 for H  read from file:
     ~/PSEUDO/H.pbe-rrkjus.UPF
     MD5 check sum: Not computed, couldn't open file
     Pseudo is Ultrasoft, Zval =  1.0
     Generated by new atomic code, or converted to UPF format
     Using radial grid of 1061 points,  2 beta functions with: 
                l(1) =   0
                l(2) =   0
     Q(r) pseudized with 0 coefficients 


     atomic species   valence    mass     pseudopotential
     Ni               10.00    58.69300     Ni( 1.00)
     Mn               15.00    54.93800     Mn( 1.00)
     P                 5.00    30.97300     P ( 1.00)
     O                 6.00    15.99900     O ( 1.00)
     H                 1.00     1.00790     H ( 1.00)

     Starting magnetic structure 
     atomic species   magnetization
     Ni              1.000
     Mn              1.000
     P               1.000
     O               1.000
     H               0.000

     No symmetry found



   Cartesian axes

     site n.     atom                  positions (alat units)
         1        Mn     tau(   1) = (   0.2404744   0.8371250   0.1168501  )
         2        Ni     tau(   2) = (   0.4968126   0.7726670   0.4415546  )
         3        Ni     tau(   3) = (   0.0066150   0.2936743   0.1241053  )
         4        Ni     tau(   4) = (   0.2585722   0.2355858   0.4448848  )
         5        Ni     tau(   5) = (   0.9987350   1.0696411   0.2854926  )
         6        Ni     tau(   6) = (   0.2517397   0.5330511   0.2829322  )
         7        Ni     tau(   7) = (   0.7451645   0.8337543   0.1221751  )
         8        Ni     tau(   8) = (   0.9939181   0.7738804   0.4407595  )
         9        Ni     tau(   9) = (   0.5111533   0.2924088   0.1251865  )
        10        Ni     tau(  10) = (   0.7606326   0.2319267   0.4451372  )
        11        Ni     tau(  11) = (   0.5024065   1.0688133   0.2870502  )
        12        Ni     tau(  12) = (   0.7529977   0.5317900   0.2845227  )
        13        P      tau(  13) = (   0.2092944   0.9731097   0.4345035  )
        14        P      tau(  14) = (   0.4655727   0.6359535   0.1274635  )
        15        P      tau(  15) = (   0.2910699   0.1027363   0.1296098  )
        16        P      tau(  16) = (   0.0396216   0.4288395   0.4398838  )
        17        O      tau(  17) = (   0.1294378   0.9013260   0.3010618  )
        18        O      tau(  18) = (   0.3874505   0.7054774   0.2637003  )
        19        O      tau(  19) = (   0.3702540   0.1714799   0.2660028  )
        20        O      tau(  20) = (   0.1184398   0.3582958   0.3038353  )
        21        O      tau(  21) = (   0.1451572   0.8850881   0.5587578  )
        22        O      tau(  22) = (   0.4048762   0.7245585   0.0017492  )
        23        O      tau(  23) = (   0.3523506   0.1900579   0.0035744  )
        24        O      tau(  24) = (   0.1017610   0.3410484   0.5656572  )
        25        O      tau(  25) = (   0.0975396   0.5849288   0.4357922  )
        26        O      tau(  26) = (   0.3483552   1.0314945   0.1270322  )
        27        O      tau(  27) = (   0.3784305   0.4225118   0.4308928  )
        28        O      tau(  28) = (   0.1268237   0.1067944   0.1392744  )
        29        O      tau(  29) = (   0.1212267   0.6424170   0.1362896  )
        30        O      tau(  30) = (   0.4053315   0.4809387   0.1300622  )
        31        O      tau(  31) = (   0.1536621   0.0446918   0.4373386  )
        32        O      tau(  32) = (   0.3732349   0.9631717   0.4256642  )
        33        P      tau(  33) = (   0.7119823   0.9695974   0.4373010  )
        34        P      tau(  34) = (   0.9615208   0.6363392   0.1262932  )
        35        P      tau(  35) = (   0.7927710   0.0970060   0.1292164  )
        36        P      tau(  36) = (   0.5426404   0.4269675   0.4410738  )
        37        O      tau(  37) = (   0.6326879   0.8991182   0.3013240  )
        38        O      tau(  38) = (   0.8842163   0.7083206   0.2625155  )
        39        O      tau(  39) = (   0.8716178   0.1677751   0.2653504  )
        40        O      tau(  40) = (   0.6212010   0.3558666   0.3051085  )
        41        O      tau(  41) = (   0.6507714   0.8812342   0.5631722  )
        42        O      tau(  42) = (   0.9014054   0.7264458   0.0010676  )
        43        O      tau(  43) = (   0.8548963   0.1847909   0.0035471  )
        44        O      tau(  44) = (   0.6044469   0.3378706   0.5660366  )
        45        O      tau(  45) = (   0.6024424   0.5823140   0.4379016  )
        46        O      tau(  46) = (   0.8498940   1.0254482   0.1275156  )
        47        O      tau(  47) = (   0.8798395   0.4205825   0.4305771  )
        48        O      tau(  48) = (   0.6286921   0.1034636   0.1397346  )
        49        O      tau(  49) = (   0.6294973   0.6427753   0.1372553  )
        50        O      tau(  50) = (   0.9024339   0.4810312   0.1296418  )
        51        O      tau(  51) = (   0.6547812   0.0410987   0.4396636  )
        52        O      tau(  52) = (   0.8760507   0.9632605   0.4264507  )
        53        Mn     tau(  53) = (   0.2404744   0.8246335   0.7367378  )
        54        Ni     tau(  54) = (   0.4968126   0.7601755   1.0614423  )
        55        Ni     tau(  55) = (   0.0066150   0.2811828   0.7439929  )
        56        Ni     tau(  56) = (   0.2585722   0.2230943   1.0647725  )
        57        Ni     tau(  57) = (   0.9987350   1.0571496   0.9053803  )
        58        Ni     tau(  58) = (   0.2517397   0.5205596   0.9028199  )
        59        Ni     tau(  59) = (   0.7451645   0.8212628   0.7420628  )
        60        Ni     tau(  60) = (   0.9939181   0.7613889   1.0606471  )
        61        Ni     tau(  61) = (   0.5111533   0.2799173   0.7450742  )
        62        Ni     tau(  62) = (   0.7606326   0.2194352   1.0650249  )
        63        Ni     tau(  63) = (   0.5024065   1.0563218   0.9069379  )
        64        Ni     tau(  64) = (   0.7529977   0.5192985   0.9044104  )
        65        P      tau(  65) = (   0.2092944   0.9606182   1.0543912  )
        66        P      tau(  66) = (   0.4655727   0.6234620   0.7473512  )
        67        P      tau(  67) = (   0.2910699   0.0902448   0.7494974  )
        68        P      tau(  68) = (   0.0396216   0.4163480   1.0597715  )
        69        O      tau(  69) = (   0.1294378   0.8888345   0.9209495  )
        70        O      tau(  70) = (   0.3874505   0.6929859   0.8835880  )
        71        O      tau(  71) = (   0.3702540   0.1589885   0.8858904  )
        72        O      tau(  72) = (   0.1184398   0.3458043   0.9237230  )
        73        O      tau(  73) = (   0.1451572   0.8725966   1.1786454  )
        74        O      tau(  74) = (   0.4048762   0.7120670   0.6216369  )
        75        O      tau(  75) = (   0.3523506   0.1775664   0.6234620  )
        76        O      tau(  76) = (   0.1017610   0.3285569   1.1855448  )
        77        O      tau(  77) = (   0.0975396   0.5724373   1.0556799  )
        78        O      tau(  78) = (   0.3483552   1.0190030   0.7469198  )
        79        O      tau(  79) = (   0.3784305   0.4100203   1.0507804  )
        80        O      tau(  80) = (   0.1268237   0.0943029   0.7591620  )
        81        O      tau(  81) = (   0.1212267   0.6299255   0.7561772  )
        82        O      tau(  82) = (   0.4053315   0.4684472   0.7499499  )
        83        O      tau(  83) = (   0.1536621   0.0322003   1.0572263  )
        84        O      tau(  84) = (   0.3732349   0.9506802   1.0455518  )
        85        P      tau(  85) = (   0.7119823   0.9571059   1.0571887  )
        86        P      tau(  86) = (   0.9615208   0.6238477   0.7461808  )
        87        P      tau(  87) = (   0.7927710   0.0845145   0.7491041  )
        88        P      tau(  88) = (   0.5426404   0.4144760   1.0609615  )
        89        O      tau(  89) = (   0.6326879   0.8866267   0.9212117  )
        90        O      tau(  90) = (   0.8842163   0.6958291   0.8824032  )
        91        O      tau(  91) = (   0.8716178   0.1552836   0.8852381  )
        92        O      tau(  92) = (   0.6212010   0.3433751   0.9249961  )
        93        O      tau(  93) = (   0.6507714   0.8687427   1.1830599  )
        94        O      tau(  94) = (   0.9014054   0.7139543   0.6209553  )
        95        O      tau(  95) = (   0.8548963   0.1722994   0.6234348  )
        96        O      tau(  96) = (   0.6044469   0.3253792   1.1859242  )
        97        O      tau(  97) = (   0.6024424   0.5698225   1.0577892  )
        98        O      tau(  98) = (   0.8498940   1.0129567   0.7474033  )
        99        O      tau(  99) = (   0.8798395   0.4080910   1.0504647  )
       100        O      tau( 100) = (   0.6286921   0.0909721   0.7596222  )
       101        O      tau( 101) = (   0.6294973   0.6302838   0.7571429  )
       102        O      tau( 102) = (   0.9024339   0.4685397   0.7495295  )
       103        O      tau( 103) = (   0.6547812   0.0286072   1.0595512  )
       104        O      tau( 104) = (   0.8760507   0.9507690   1.0463383  )
       105        Mn     tau( 105) = (   0.2350290   0.8103679   1.3650506  )
       106        Ni     tau( 106) = (   0.5049839   0.7430999   1.6752764  )
       107        Ni     tau( 107) = (   0.0085805   0.2677647   1.3705110  )
       108        Ni     tau( 108) = (   0.2524821   0.2108176   1.6762258  )
       109        Ni     tau( 109) = (   1.0031726   1.0464924   1.5386166  )
       110        Ni     tau( 110) = (   0.2502641   0.5060972   1.5295441  )
       111        Ni     tau( 111) = (   0.7425850   0.8051724   1.3682278  )
       112        Ni     tau( 112) = (   1.0032085   0.7480271   1.6782163  )
       113        Ni     tau( 113) = (   0.5109976   0.2668978   1.3695351  )
       114        Ni     tau( 114) = (   0.7617415   0.2002392   1.7047113  )
       115        Ni     tau( 115) = (   0.5060216   1.0426794   1.5329327  )
       116        Ni     tau( 116) = (   0.7493328   0.5030112   1.5332002  )
       117        P      tau( 117) = (   0.2170385   0.9354274   1.6987551  )
       118        P      tau( 118) = (   0.4625170   0.6079979   1.3696033  )
       119        P      tau( 119) = (   0.2922201   0.0744200   1.3728508  )
       120        P      tau( 120) = (   0.0400598   0.4013821   1.6923063  )
       121        O      tau( 121) = (   0.1369468   0.8734395   1.5544031  )
       122        O      tau( 122) = (   0.3851774   0.6777302   1.5062583  )
       123        O      tau( 123) = (   0.3716472   0.1429275   1.5084559  )
       124        O      tau( 124) = (   0.1157488   0.3366312   1.5473574  )
       125        O      tau( 125) = (   0.1542130   0.8393226   1.8134166  )
       126        O      tau( 126) = (   0.4021706   0.6983945   1.2446547  )
       127        O      tau( 127) = (   0.3533289   0.1594101   1.2454731  )
       128        O      tau( 128) = (   0.1044058   0.3070241   1.8090384  )
       129        O      tau( 129) = (   0.0976985   0.5582927   1.6881977  )
       130        O      tau( 130) = (   0.3494544   0.9934681   1.3765809  )
       131        O      tau( 131) = (   0.3735391   0.3921348   1.6747224  )
       132        O      tau( 132) = (   0.1284883   0.0801717   1.3861992  )
       133        O      tau( 133) = (   0.1217502   0.6189932   1.3813335  )
       134        O      tau( 134) = (   0.4008873   0.4536035   1.3710220  )
       135        O      tau( 135) = (   0.1634732   0.0183502   1.6943209  )
       136        O      tau( 136) = (   0.3813891   0.9276213   1.6801305  )
       137        P      tau( 137) = (   0.7150844   0.9302027   1.6925865  )
       138        P      tau( 138) = (   0.9571586   0.6099361   1.3701799  )
       139        P      tau( 139) = (   0.7928795   0.0723778   1.3749960  )
       140        P      tau( 140) = (   0.5392015   0.3933707   1.6872906  )
       141        O      tau( 141) = (   0.6358909   0.8683612   1.5460897  )
       142        O      tau( 142) = (   0.8820169   0.6809509   1.5070208  )
       143        O      tau( 143) = (   0.8692965   0.1456252   1.5103227  )
       144        O      tau( 144) = (   0.6167143   0.3328777   1.5445489  )
       145        O      tau( 145) = (   0.6564412   0.8305094   1.8065650  )
       146        O      tau( 146) = (   0.8979416   0.6984778   1.2436101  )
       147        O      tau( 147) = (   0.8543451   0.1588252   1.2476080  )
       148        O      tau( 148) = (   0.5965398   0.2964012   1.8048314  )
       149        O      tau( 149) = (   0.5954090   0.5513693   1.6890606  )
       150        O      tau( 150) = (   0.8526781   0.9929277   1.3790312  )
       151        O      tau( 151) = (   0.8754039   0.3968396   1.6819451  )
       152        O      tau( 152) = (   0.6285753   0.0773142   1.3832806  )
       153        O      tau( 153) = (   0.6263328   0.6141238   1.3811389  )
       154        O      tau( 154) = (   0.9000707   0.4545516   1.3742938  )
       155        O      tau( 155) = (   0.6544929   0.0100088   1.6874901  )
       156        O      tau( 156) = (   0.8797765   0.9265630   1.6764488  )
       157        O      tau( 157) = (   0.8764291   0.1176518   1.8379936  )
       158        H      tau( 158) = (   0.9606347   0.1762767   1.8603235  )

     -------------------------------------------------
     Parameters for Dispersion (Grimme-D2) Correction:
     -------------------------------------------------
       atom      VdW radius       C_6     

        Ni         2.952        374.666
        Mn         2.952        374.666
        P          3.222        271.980
        O          2.536         24.284
        H          1.892          4.857

     number of k points=     1  Gaussian smearing, width (Ry)=  0.0100
                       cart. coord. in units 2pi/alat
        k(    1) = (   0.0000000   0.0000000   0.0000000), wk =   1.0000000

     Dense  grid:  1918138 G-vectors     FFT dimensions: ( 125, 135, 432)

     Smooth grid:   485265 G-vectors     FFT dimensions: (  80,  90, 288)

     Estimated max dynamical RAM per process >     320.12 MB

     Estimated total dynamical RAM >      20.01 GB
     Generating pointlists ...
     new r_m :   0.0801 (alat units)  1.4184 (a.u.) for type    1
     new r_m :   0.0869 (alat units)  1.5388 (a.u.) for type    2
     new r_m :   0.0650 (alat units)  1.1499 (a.u.) for type    3
     new r_m :   0.0433 (alat units)  0.7667 (a.u.) for type    4
     new r_m :   0.0433 (alat units)  0.7667 (a.u.) for type    5

     Initial potential from superposition of free atoms

     starting charge    1077.8900, renormalised to    1078.0000

     negative rho (up, down):  1.237E-03 4.517E-04
 
     Adding external electric field

     Computed dipole along edir(3) : 
        Dipole                1.6169 Ry au,          4.1098 Debye
        Dipole field          0.0010 Ry au, 
 
        Potential amp.       -0.1085 Ry
        Total length         54.2615 bohr
 
 
     Adding external electric field

     Computed dipole along edir(3) : 
        Dipole                1.6169 Ry au,          4.1098 Debye
        Dipole field          0.0010 Ry au, 
 
        Potential amp.       -0.1085 Ry
        Total length         54.2615 bohr
 
     Starting wfcs are  812 randomized atomic wfcs

     total cpu time spent up to now is       12.9 secs

     Self-consistent Calculation

     iteration #  1     ecut=    50.00 Ry     beta= 0.10
     Davidson diagonalization with overlap
     ethr =  1.00E-02,  avg # of iterations =  6.0

     negative rho (up, down):  3.283E-01 1.718E-06
 
     Adding external electric field

     Computed dipole along edir(3) : 
        Dipole               -3.6305 Ry au,         -9.2277 Debye
        Dipole field         -0.0022 Ry au, 
 
        Potential amp.        0.2437 Ry
        Total length         54.2615 bohr
 
 
     Adding external electric field

     Computed dipole along edir(3) : 
        Dipole               -3.6305 Ry au,         -9.2277 Debye
        Dipole field         -0.0022 Ry au, 
 
        Potential amp.        0.2437 Ry
        Total length         54.2615 bohr
 

     total cpu time spent up to now is       47.4 secs

     total energy              =   -7178.26623264 Ry
     estimated scf accuracy    <     757.27187253 Ry

     total magnetization       =   216.00 Bohr mag/cell
     absolute magnetization    =   296.61 Bohr mag/cell

     iteration #  2     ecut=    50.00 Ry     beta= 0.10
     Davidson diagonalization with overlap
     ethr =  1.00E-02,  avg # of iterations =  2.0

     negative rho (up, down):  3.136E-01 1.114E-06
 
     Adding external electric field

     Computed dipole along edir(3) : 
        Dipole               -2.3758 Ry au,         -6.0388 Debye
        Dipole field         -0.0015 Ry au, 
 
        Potential amp.        0.1595 Ry
        Total length         54.2615 bohr
 
 
     Adding external electric field

     Computed dipole along edir(3) : 
        Dipole               -2.3758 Ry au,         -6.0388 Debye
        Dipole field         -0.0015 Ry au, 
 
        Potential amp.        0.1595 Ry
        Total length         54.2615 bohr
 

     total cpu time spent up to now is       68.4 secs

     total energy              =   -7261.79112810 Ry
     estimated scf accuracy    <     217.26950400 Ry

     total magnetization       =   151.37 Bohr mag/cell
     absolute magnetization    =   200.73 Bohr mag/cell

     iteration #  3     ecut=    50.00 Ry     beta= 0.10
     Davidson diagonalization with overlap
     ethr =  1.00E-02,  avg # of iterations =  1.5

     negative rho (up, down):  2.773E-01 9.277E-07
 
     Adding external electric field

     Computed dipole along edir(3) : 
        Dipole               -2.0577 Ry au,         -5.2301 Debye
        Dipole field         -0.0013 Ry au, 
 
        Potential amp.        0.1381 Ry
        Total length         54.2615 bohr
 
 
     Adding external electric field

     Computed dipole along edir(3) : 
        Dipole               -2.0577 Ry au,         -5.2301 Debye
        Dipole field         -0.0013 Ry au, 
 
        Potential amp.        0.1381 Ry
        Total length         54.2615 bohr
 

     total cpu time spent up to now is       85.0 secs

     total energy              =   -7291.78434797 Ry
     estimated scf accuracy    <      97.81840475 Ry

     total magnetization       =   126.06 Bohr mag/cell
     absolute magnetization    =   179.69 Bohr mag/cell

     iteration #  4     ecut=    50.00 Ry     beta= 0.10
     Davidson diagonalization with overlap
     ethr =  9.07E-03,  avg # of iterations =  1.5

     negative rho (up, down):  2.061E-01 3.000E-07
 
     Adding external electric field

     Computed dipole along edir(3) : 
        Dipole               -1.9642 Ry au,         -4.9925 Debye
        Dipole field         -0.0012 Ry au, 
 
        Potential amp.        0.1318 Ry
        Total length         54.2615 bohr
 
 
     Adding external electric field

     Computed dipole along edir(3) : 
        Dipole               -1.9642 Ry au,         -4.9925 Debye
        Dipole field         -0.0012 Ry au, 
 
        Potential amp.        0.1318 Ry
        Total length         54.2615 bohr
 

     total cpu time spent up to now is      101.5 secs

     total energy              =   -7326.97711053 Ry
     estimated scf accuracy    <      78.99306294 Ry

     total magnetization       =   111.16 Bohr mag/cell
     absolute magnetization    =   165.47 Bohr mag/cell

     iteration #  5     ecut=    50.00 Ry     beta= 0.10
     Davidson diagonalization with overlap
     ethr =  7.33E-03,  avg # of iterations =  1.5

     negative rho (up, down):  9.229E-03 1.419E-06
 
     Adding external electric field

     Computed dipole along edir(3) : 
        Dipole               -1.5402 Ry au,         -3.9147 Debye
        Dipole field         -0.0010 Ry au, 
 
        Potential amp.        0.1034 Ry
        Total length         54.2615 bohr
 
 
     Adding external electric field

     Computed dipole along edir(3) : 
        Dipole               -1.5402 Ry au,         -3.9147 Debye
        Dipole field         -0.0010 Ry au, 
 
        Potential amp.        0.1034 Ry
        Total length         54.2615 bohr
 

     total cpu time spent up to now is      118.0 secs

     total energy              =   -7385.88363750 Ry
     estimated scf accuracy    <      61.05451590 Ry

     total magnetization       =    88.02 Bohr mag/cell
     absolute magnetization    =   146.03 Bohr mag/cell

     iteration #  6     ecut=    50.00 Ry     beta= 0.10
     Davidson diagonalization with overlap
     ethr =  5.66E-03,  avg # of iterations =  1.5

     negative rho (up, down):  4.221E-04 5.299E-04
 
     Adding external electric field

     Computed dipole along edir(3) : 
        Dipole               -1.2267 Ry au,         -3.1180 Debye
        Dipole field         -0.0008 Ry au, 
 
        Potential amp.        0.0823 Ry
        Total length         54.2615 bohr
 
 
     Adding external electric field

     Computed dipole along edir(3) : 
        Dipole               -1.2267 Ry au,         -3.1180 Debye
        Dipole field         -0.0008 Ry au, 
 
        Potential amp.        0.0823 Ry
        Total length         54.2615 bohr
 

     total cpu time spent up to now is      134.5 secs

     total energy              =   -7395.43643511 Ry
     estimated scf accuracy    <      10.07028017 Ry

     total magnetization       =    81.94 Bohr mag/cell
     absolute magnetization    =   115.78 Bohr mag/cell

     iteration #  7     ecut=    50.00 Ry     beta= 0.10
     Davidson diagonalization with overlap
     ethr =  9.34E-04,  avg # of iterations =  6.5

     negative rho (up, down):  4.051E-04 5.224E-04
 
     Adding external electric field

     Computed dipole along edir(3) : 
        Dipole               -1.2213 Ry au,         -3.1042 Debye
        Dipole field         -0.0008 Ry au, 
 
        Potential amp.        0.0820 Ry
        Total length         54.2615 bohr
 
 
     Adding external electric field

     Computed dipole along edir(3) : 
        Dipole               -1.2213 Ry au,         -3.1042 Debye
        Dipole field         -0.0008 Ry au, 
 
        Potential amp.        0.0820 Ry
        Total length         54.2615 bohr
 

     total cpu time spent up to now is      164.6 secs

     total energy              =   -7397.63426697 Ry
     estimated scf accuracy    <      11.48996021 Ry

     total magnetization       =    71.15 Bohr mag/cell
     absolute magnetization    =    88.63 Bohr mag/cell

     iteration #  8     ecut=    50.00 Ry     beta= 0.10
     Davidson diagonalization with overlap
     ethr =  9.34E-04,  avg # of iterations =  1.0

     negative rho (up, down):  3.516E-04 4.587E-04
 
     Adding external electric field

     Computed dipole along edir(3) : 
        Dipole               -1.1961 Ry au,         -3.0401 Debye
        Dipole field         -0.0007 Ry au, 
 
        Potential amp.        0.0803 Ry
        Total length         54.2615 bohr
 
 
     Adding external electric field

     Computed dipole along edir(3) : 
        Dipole               -1.1961 Ry au,         -3.0401 Debye
        Dipole field         -0.0007 Ry au, 
 
        Potential amp.        0.0803 Ry
        Total length         54.2615 bohr
 

     total cpu time spent up to now is      180.0 secs

     total energy              =   -7397.62379312 Ry
     estimated scf accuracy    <      10.90593504 Ry

     total magnetization       =    71.42 Bohr mag/cell
     absolute magnetization    =    88.46 Bohr mag/cell

     iteration #  9     ecut=    50.00 Ry     beta= 0.10
     Davidson diagonalization with overlap
     ethr =  9.34E-04,  avg # of iterations =  1.0

     negative rho (up, down):  7.499E-05 2.019E-04
 
     Adding external electric field

     Computed dipole along edir(3) : 
        Dipole               -1.0263 Ry au,         -2.6086 Debye
        Dipole field         -0.0006 Ry au, 
 
        Potential amp.        0.0689 Ry
        Total length         54.2615 bohr
 
 
     Adding external electric field

     Computed dipole along edir(3) : 
        Dipole               -1.0263 Ry au,         -2.6086 Debye
        Dipole field         -0.0006 Ry au, 
 
        Potential amp.        0.0689 Ry
        Total length         54.2615 bohr
 

     total cpu time spent up to now is      195.5 secs

     total energy              =   -7397.45134924 Ry
     estimated scf accuracy    <       9.55077041 Ry

     total magnetization       =    71.94 Bohr mag/cell
     absolute magnetization    =    88.32 Bohr mag/cell

     iteration # 10     ecut=    50.00 Ry     beta= 0.10
     Davidson diagonalization with overlap
     ethr =  8.86E-04,  avg # of iterations =  1.0

     negative rho (up, down):  5.294E-05 2.224E-04
 
     Adding external electric field

     Computed dipole along edir(3) : 
        Dipole               -1.0203 Ry au,         -2.5934 Debye
        Dipole field         -0.0006 Ry au, 
 
        Potential amp.        0.0685 Ry
        Total length         54.2615 bohr
 
 
     Adding external electric field

     Computed dipole along edir(3) : 
        Dipole               -1.0203 Ry au,         -2.5934 Debye
        Dipole field         -0.0006 Ry au, 
 
        Potential amp.        0.0685 Ry
        Total length         54.2615 bohr
 

     total cpu time spent up to now is      210.4 secs

     total energy              =   -7397.66083017 Ry
     estimated scf accuracy    <       3.32696028 Ry

     total magnetization       =    77.10 Bohr mag/cell
     absolute magnetization    =    89.11 Bohr mag/cell

     iteration # 11     ecut=    50.00 Ry     beta= 0.10
     Davidson diagonalization with overlap
     ethr =  3.09E-04,  avg # of iterations =  1.5

     negative rho (up, down):  2.064E-05 3.710E-04
 
     Adding external electric field

     Computed dipole along edir(3) : 
        Dipole               -0.9962 Ry au,         -2.5322 Debye
        Dipole field         -0.0006 Ry au, 
 
        Potential amp.        0.0669 Ry
        Total length         54.2615 bohr
 
 
     Adding external electric field

     Computed dipole along edir(3) : 
        Dipole               -0.9962 Ry au,         -2.5322 Debye
        Dipole field         -0.0006 Ry au, 
 
        Potential amp.        0.0669 Ry
        Total length         54.2615 bohr
 

     total cpu time spent up to now is      226.4 secs

     total energy              =   -7397.68987712 Ry
     estimated scf accuracy    <       2.64766774 Ry

     total magnetization       =    77.46 Bohr mag/cell
     absolute magnetization    =    88.47 Bohr mag/cell

     iteration # 12     ecut=    50.00 Ry     beta= 0.10
     Davidson diagonalization with overlap
     ethr =  2.46E-04,  avg # of iterations =  2.0

     negative rho (up, down):  2.576E-05 4.586E-04
 
     Adding external electric field

     Computed dipole along edir(3) : 
        Dipole               -0.9835 Ry au,         -2.4998 Debye
        Dipole field         -0.0006 Ry au, 
 
        Potential amp.        0.0660 Ry
        Total length         54.2615 bohr
 
 
     Adding external electric field

     Computed dipole along edir(3) : 
        Dipole               -0.9835 Ry au,         -2.4998 Debye
        Dipole field         -0.0006 Ry au, 
 
        Potential amp.        0.0660 Ry
        Total length         54.2615 bohr
 

     total cpu time spent up to now is      243.0 secs

     total energy              =   -7397.82527374 Ry
     estimated scf accuracy    <       0.64864892 Ry

     total magnetization       =    80.62 Bohr mag/cell
     absolute magnetization    =    88.82 Bohr mag/cell

     iteration # 13     ecut=    50.00 Ry     beta= 0.10
     Davidson diagonalization with overlap
     ethr =  6.02E-05,  avg # of iterations = 10.0

     negative rho (up, down):  5.610E-05 5.344E-04
 
     Adding external electric field

     Computed dipole along edir(3) : 
        Dipole               -0.9944 Ry au,         -2.5275 Debye
        Dipole field         -0.0006 Ry au, 
 
        Potential amp.        0.0667 Ry
        Total length         54.2615 bohr
 
 
     Adding external electric field

     Computed dipole along edir(3) : 
        Dipole               -0.9944 Ry au,         -2.5275 Debye
        Dipole field         -0.0006 Ry au, 
 
        Potential amp.        0.0667 Ry
        Total length         54.2615 bohr
 

     total cpu time spent up to now is      268.9 secs

     total energy              =   -7397.90298475 Ry
     estimated scf accuracy    <       0.64551086 Ry

     total magnetization       =    81.36 Bohr mag/cell
     absolute magnetization    =    87.98 Bohr mag/cell

     iteration # 14     ecut=    50.00 Ry     beta= 0.10
     Davidson diagonalization with overlap
     ethr =  5.99E-05,  avg # of iterations =  1.5

     negative rho (up, down):  6.404E-05 5.745E-04
 
     Adding external electric field

     Computed dipole along edir(3) : 
        Dipole               -1.0275 Ry au,         -2.6116 Debye
        Dipole field         -0.0006 Ry au, 
 
        Potential amp.        0.0690 Ry
        Total length         54.2615 bohr
 
 
     Adding external electric field

     Computed dipole along edir(3) : 
        Dipole               -1.0275 Ry au,         -2.6116 Debye
        Dipole field         -0.0006 Ry au, 
 
        Potential amp.        0.0690 Ry
        Total length         54.2615 bohr
 

     total cpu time spent up to now is      284.9 secs

     total energy              =   -7397.91423301 Ry
     estimated scf accuracy    <       0.45232150 Ry

     total magnetization       =    80.96 Bohr mag/cell
     absolute magnetization    =    86.40 Bohr mag/cell

     iteration # 15     ecut=    50.00 Ry     beta= 0.10
     Davidson diagonalization with overlap
     ethr =  4.20E-05,  avg # of iterations =  1.5

     negative rho (up, down):  5.783E-05 6.423E-04
 
     Adding external electric field

     Computed dipole along edir(3) : 
        Dipole               -1.0213 Ry au,         -2.5958 Debye
        Dipole field         -0.0006 Ry au, 
 
        Potential amp.        0.0685 Ry
        Total length         54.2615 bohr
 
 
     Adding external electric field

     Computed dipole along edir(3) : 
        Dipole               -1.0213 Ry au,         -2.5958 Debye
        Dipole field         -0.0006 Ry au, 
 
        Potential amp.        0.0685 Ry
        Total length         54.2615 bohr
 

     total cpu time spent up to now is      300.9 secs

     total energy              =   -7397.91883748 Ry
     estimated scf accuracy    <       0.56863850 Ry

     total magnetization       =    79.41 Bohr mag/cell
     absolute magnetization    =    84.65 Bohr mag/cell

     iteration # 16     ecut=    50.00 Ry     beta= 0.10
     Davidson diagonalization with overlap
     ethr =  4.20E-05,  avg # of iterations =  1.0

     negative rho (up, down):  1.303E-04 3.772E-04
 
     Adding external electric field

     Computed dipole along edir(3) : 
        Dipole               -1.0828 Ry au,         -2.7522 Debye
        Dipole field         -0.0007 Ry au, 
 
        Potential amp.        0.0727 Ry
        Total length         54.2615 bohr
 
 
     Adding external electric field

     Computed dipole along edir(3) : 
        Dipole               -1.0828 Ry au,         -2.7522 Debye
        Dipole field         -0.0007 Ry au, 
 
        Potential amp.        0.0727 Ry
        Total length         54.2615 bohr
 

     total cpu time spent up to now is      315.5 secs

     total energy              =   -7397.96857689 Ry
     estimated scf accuracy    <       0.63895057 Ry

     total magnetization       =    79.18 Bohr mag/cell
     absolute magnetization    =    84.27 Bohr mag/cell

     iteration # 17     ecut=    50.00 Ry     beta= 0.10
     Davidson diagonalization with overlap
     ethr =  4.20E-05,  avg # of iterations =  1.5

     negative rho (up, down):  1.910E-04 3.725E-04
 
     Adding external electric field

     Computed dipole along edir(3) : 
        Dipole               -1.0561 Ry au,         -2.6843 Debye
        Dipole field         -0.0007 Ry au, 
 
        Potential amp.        0.0709 Ry
        Total length         54.2615 bohr
 
 
     Adding external electric field

     Computed dipole along edir(3) : 
        Dipole               -1.0561 Ry au,         -2.6843 Debye
        Dipole field         -0.0007 Ry au, 
 
        Potential amp.        0.0709 Ry
        Total length         54.2615 bohr
 

     total cpu time spent up to now is      331.4 secs

     total energy              =   -7397.99912023 Ry
     estimated scf accuracy    <       0.74593482 Ry

     total magnetization       =    79.30 Bohr mag/cell
     absolute magnetization    =    84.17 Bohr mag/cell

     iteration # 18     ecut=    50.00 Ry     beta= 0.10
     Davidson diagonalization with overlap
     ethr =  4.20E-05,  avg # of iterations =  1.5

     negative rho (up, down):  1.526E-04 2.411E-04
 
     Adding external electric field

     Computed dipole along edir(3) : 
        Dipole               -1.0544 Ry au,         -2.6799 Debye
        Dipole field         -0.0007 Ry au, 
 
        Potential amp.        0.0708 Ry
        Total length         54.2615 bohr
 
 
     Adding external electric field

     Computed dipole along edir(3) : 
        Dipole               -1.0544 Ry au,         -2.6799 Debye
        Dipole field         -0.0007 Ry au, 
 
        Potential amp.        0.0708 Ry
        Total length         54.2615 bohr
 

     total cpu time spent up to now is      347.3 secs

     total energy              =   -7398.02923530 Ry
     estimated scf accuracy    <       0.21132617 Ry

     total magnetization       =    81.39 Bohr mag/cell
     absolute magnetization    =    84.64 Bohr mag/cell

     iteration # 19     ecut=    50.00 Ry     beta= 0.10
     Davidson diagonalization with overlap
     ethr =  1.96E-05,  avg # of iterations =  2.0

     negative rho (up, down):  2.435E-05 8.729E-05
 
     Adding external electric field

     Computed dipole along edir(3) : 
        Dipole               -1.0143 Ry au,         -2.5782 Debye
        Dipole field         -0.0006 Ry au, 
 
        Potential amp.        0.0681 Ry
        Total length         54.2615 bohr
 
 
     Adding external electric field

     Computed dipole along edir(3) : 
        Dipole               -1.0143 Ry au,         -2.5782 Debye
        Dipole field         -0.0006 Ry au, 
 
        Potential amp.        0.0681 Ry
        Total length         54.2615 bohr
 

     total cpu time spent up to now is      363.8 secs

     total energy              =   -7398.03835703 Ry
     estimated scf accuracy    <       0.06523961 Ry

     total magnetization       =    80.86 Bohr mag/cell
     absolute magnetization    =    82.80 Bohr mag/cell

     iteration # 20     ecut=    50.00 Ry     beta= 0.10
     Davidson diagonalization with overlap
     c_bands:  1 eigenvalues not converged
     ethr =  6.05E-06,  avg # of iterations = 11.0

     negative rho (up, down):  1.917E-06 6.493E-06
 
     Adding external electric field

     Computed dipole along edir(3) : 
        Dipole               -0.9087 Ry au,         -2.3098 Debye
        Dipole field         -0.0006 Ry au, 
 
        Potential amp.        0.0610 Ry
        Total length         54.2615 bohr
 
 
     Adding external electric field

     Computed dipole along edir(3) : 
        Dipole               -0.9087 Ry au,         -2.3098 Debye
        Dipole field         -0.0006 Ry au, 
 
        Potential amp.        0.0610 Ry
        Total length         54.2615 bohr
 

     total cpu time spent up to now is      391.2 secs

     total energy              =   -7398.03915009 Ry
     estimated scf accuracy    <       0.06922053 Ry

     total magnetization       =    80.49 Bohr mag/cell
     absolute magnetization    =    82.41 Bohr mag/cell

     iteration # 21     ecut=    50.00 Ry     beta= 0.10
     Davidson diagonalization with overlap
     ethr =  6.05E-06,  avg # of iterations =  1.0

     negative rho (up, down):  5.552E-06 1.170E-05
 
     Adding external electric field

     Computed dipole along edir(3) : 
        Dipole               -0.9629 Ry au,         -2.4474 Debye
        Dipole field         -0.0006 Ry au, 
 
        Potential amp.        0.0646 Ry
        Total length         54.2615 bohr
 
 
     Adding external electric field

     Computed dipole along edir(3) : 
        Dipole               -0.9629 Ry au,         -2.4474 Debye
        Dipole field         -0.0006 Ry au, 
 
        Potential amp.        0.0646 Ry
        Total length         54.2615 bohr
 

     total cpu time spent up to now is      406.3 secs

     total energy              =   -7398.04038291 Ry
     estimated scf accuracy    <       0.08185656 Ry

     total magnetization       =    80.55 Bohr mag/cell
     absolute magnetization    =    82.19 Bohr mag/cell

     iteration # 22     ecut=    50.00 Ry     beta= 0.10
     Davidson diagonalization with overlap
     ethr =  6.05E-06,  avg # of iterations =  1.5

     negative rho (up, down):  1.254E-05 1.733E-05
 
     Adding external electric field

     Computed dipole along edir(3) : 
        Dipole               -0.9473 Ry au,         -2.4078 Debye
        Dipole field         -0.0006 Ry au, 
 
        Potential amp.        0.0636 Ry
        Total length         54.2615 bohr
 
 
     Adding external electric field

     Computed dipole along edir(3) : 
        Dipole               -0.9473 Ry au,         -2.4078 Debye
        Dipole field         -0.0006 Ry au, 
 
        Potential amp.        0.0636 Ry
        Total length         54.2615 bohr
 

     total cpu time spent up to now is      421.9 secs

     total energy              =   -7398.03997459 Ry
     estimated scf accuracy    <       0.05585927 Ry

     total magnetization       =    80.22 Bohr mag/cell
     absolute magnetization    =    81.90 Bohr mag/cell

     iteration # 23     ecut=    50.00 Ry     beta= 0.10
     Davidson diagonalization with overlap
     ethr =  5.18E-06,  avg # of iterations =  1.0

     negative rho (up, down):  1.212E-06 3.205E-07
 
     Adding external electric field

     Computed dipole along edir(3) : 
        Dipole               -0.8495 Ry au,         -2.1591 Debye
        Dipole field         -0.0005 Ry au, 
 
        Potential amp.        0.0570 Ry
        Total length         54.2615 bohr
 
 
     Adding external electric field

     Computed dipole along edir(3) : 
        Dipole               -0.8495 Ry au,         -2.1591 Debye
        Dipole field         -0.0005 Ry au, 
 
        Potential amp.        0.0570 Ry
        Total length         54.2615 bohr
 

     total cpu time spent up to now is      436.1 secs

     total energy              =   -7398.03872152 Ry
     estimated scf accuracy    <       0.02857044 Ry

     total magnetization       =    80.30 Bohr mag/cell
     absolute magnetization    =    81.94 Bohr mag/cell

     iteration # 24     ecut=    50.00 Ry     beta= 0.10
     Davidson diagonalization with overlap
     ethr =  2.65E-06,  avg # of iterations =  2.0

     negative rho (up, down):  4.140E-06 5.577E-07
 
     Adding external electric field

     Computed dipole along edir(3) : 
        Dipole               -0.8640 Ry au,         -2.1961 Debye
        Dipole field         -0.0005 Ry au, 
 
        Potential amp.        0.0580 Ry
        Total length         54.2615 bohr
 
 
     Adding external electric field

     Computed dipole along edir(3) : 
        Dipole               -0.8640 Ry au,         -2.1961 Debye
        Dipole field         -0.0005 Ry au, 
 
        Potential amp.        0.0580 Ry
        Total length         54.2615 bohr
 

     total cpu time spent up to now is      453.0 secs

     total energy              =   -7398.03905758 Ry
     estimated scf accuracy    <       0.05448664 Ry

     total magnetization       =    80.31 Bohr mag/cell
     absolute magnetization    =    81.82 Bohr mag/cell

     iteration # 25     ecut=    50.00 Ry     beta= 0.10
     Davidson diagonalization with overlap
     ethr =  2.65E-06,  avg # of iterations =  1.0

     negative rho (up, down):  1.009E-06 2.514E-07
 
     Adding external electric field

     Computed dipole along edir(3) : 
        Dipole               -0.8424 Ry au,         -2.1411 Debye
        Dipole field         -0.0005 Ry au, 
 
        Potential amp.        0.0565 Ry
        Total length         54.2615 bohr
 
 
     Adding external electric field

     Computed dipole along edir(3) : 
        Dipole               -0.8424 Ry au,         -2.1411 Debye
        Dipole field         -0.0005 Ry au, 
 
        Potential amp.        0.0565 Ry
        Total length         54.2615 bohr
 

     total cpu time spent up to now is      467.9 secs

     total energy              =   -7398.03881800 Ry
     estimated scf accuracy    <       0.03697525 Ry

     total magnetization       =    80.36 Bohr mag/cell
     absolute magnetization    =    81.86 Bohr mag/cell

     iteration # 26     ecut=    50.00 Ry     beta= 0.10
     Davidson diagonalization with overlap
     ethr =  2.65E-06,  avg # of iterations =  1.5

     negative rho (up, down):  6.742E-07 1.734E-07
 
     Adding external electric field

     Computed dipole along edir(3) : 
        Dipole               -0.8070 Ry au,         -2.0511 Debye
        Dipole field         -0.0005 Ry au, 
 
        Potential amp.        0.0542 Ry
        Total length         54.2615 bohr
 
 
     Adding external electric field

     Computed dipole along edir(3) : 
        Dipole               -0.8070 Ry au,         -2.0511 Debye
        Dipole field         -0.0005 Ry au, 
 
        Potential amp.        0.0542 Ry
        Total length         54.2615 bohr
 

     total cpu time spent up to now is      483.9 secs

     total energy              =   -7398.03880970 Ry
     estimated scf accuracy    <       0.04120353 Ry

     total magnetization       =    80.42 Bohr mag/cell
     absolute magnetization    =    81.89 Bohr mag/cell

     iteration # 27     ecut=    50.00 Ry     beta= 0.10
     Davidson diagonalization with overlap
     ethr =  2.65E-06,  avg # of iterations =  2.0

     negative rho (up, down):  9.783E-07 2.815E-07
 
     Adding external electric field

     Computed dipole along edir(3) : 
        Dipole               -0.7889 Ry au,         -2.0052 Debye
        Dipole field         -0.0005 Ry au, 
 
        Potential amp.        0.0529 Ry
        Total length         54.2615 bohr
 
 
     Adding external electric field

     Computed dipole along edir(3) : 
        Dipole               -0.7889 Ry au,         -2.0052 Debye
        Dipole field         -0.0005 Ry au, 
 
        Potential amp.        0.0529 Ry
        Total length         54.2615 bohr
 

     total cpu time spent up to now is      500.8 secs

     total energy              =   -7398.03854896 Ry
     estimated scf accuracy    <       0.04819116 Ry

     total magnetization       =    80.43 Bohr mag/cell
     absolute magnetization    =    81.90 Bohr mag/cell

     iteration # 28     ecut=    50.00 Ry     beta= 0.10
     Davidson diagonalization with overlap
     ethr =  2.65E-06,  avg # of iterations =  1.5

     negative rho (up, down):  1.997E-06 4.375E-07
 
     Adding external electric field

     Computed dipole along edir(3) : 
        Dipole               -0.7926 Ry au,         -2.0145 Debye
        Dipole field         -0.0005 Ry au, 
 
        Potential amp.        0.0532 Ry
        Total length         54.2615 bohr
 
 
     Adding external electric field

     Computed dipole along edir(3) : 
        Dipole               -0.7926 Ry au,         -2.0145 Debye
        Dipole field         -0.0005 Ry au, 
 
        Potential amp.        0.0532 Ry
        Total length         54.2615 bohr
 

     total cpu time spent up to now is      517.2 secs

     total energy              =   -7398.03770389 Ry
     estimated scf accuracy    <       0.04078363 Ry

     total magnetization       =    80.51 Bohr mag/cell
     absolute magnetization    =    82.03 Bohr mag/cell

     iteration # 29     ecut=    50.00 Ry     beta= 0.10
     Davidson diagonalization with overlap
     ethr =  2.65E-06,  avg # of iterations =  2.0

     negative rho (up, down):  1.687E-06 5.399E-07
 
     Adding external electric field

     Computed dipole along edir(3) : 
        Dipole               -0.7975 Ry au,         -2.0270 Debye
        Dipole field         -0.0005 Ry au, 
 
        Potential amp.        0.0535 Ry
        Total length         54.2615 bohr
 
 
     Adding external electric field

     Computed dipole along edir(3) : 
        Dipole               -0.7975 Ry au,         -2.0270 Debye
        Dipole field         -0.0005 Ry au, 
 
        Potential amp.        0.0535 Ry
        Total length         54.2615 bohr
 

     total cpu time spent up to now is      534.5 secs

     total energy              =   -7398.03856465 Ry
     estimated scf accuracy    <       0.02662171 Ry

     total magnetization       =    80.57 Bohr mag/cell
     absolute magnetization    =    82.09 Bohr mag/cell

     iteration # 30     ecut=    50.00 Ry     beta= 0.10
     Davidson diagonalization with overlap
     ethr =  2.47E-06,  avg # of iterations =  1.5

     negative rho (up, down):  1.233E-06 2.958E-07
 
     Adding external electric field

     Computed dipole along edir(3) : 
        Dipole               -0.7847 Ry au,         -1.9944 Debye
        Dipole field         -0.0005 Ry au, 
 
        Potential amp.        0.0527 Ry
        Total length         54.2615 bohr
 
 
     Adding external electric field

     Computed dipole along edir(3) : 
        Dipole               -0.7847 Ry au,         -1.9944 Debye
        Dipole field         -0.0005 Ry au, 
 
        Potential amp.        0.0527 Ry
        Total length         54.2615 bohr
 

     total cpu time spent up to now is      550.1 secs

     total energy              =   -7398.03817999 Ry
     estimated scf accuracy    <       0.03110787 Ry

     total magnetization       =    80.59 Bohr mag/cell
     absolute magnetization    =    82.13 Bohr mag/cell

     iteration # 31     ecut=    50.00 Ry     beta= 0.10
     Davidson diagonalization with overlap
     ethr =  2.47E-06,  avg # of iterations =  2.0

     negative rho (up, down):  1.339E-06 2.771E-07
 
     Adding external electric field

     Computed dipole along edir(3) : 
        Dipole               -0.7819 Ry au,         -1.9873 Debye
        Dipole field         -0.0005 Ry au, 
 
        Potential amp.        0.0525 Ry
        Total length         54.2615 bohr
 
 
     Adding external electric field

     Computed dipole along edir(3) : 
        Dipole               -0.7819 Ry au,         -1.9873 Debye
        Dipole field         -0.0005 Ry au, 
 
        Potential amp.        0.0525 Ry
        Total length         54.2615 bohr
 

     total cpu time spent up to now is      566.9 secs

     total energy              =   -7398.03801660 Ry
     estimated scf accuracy    <       0.03332402 Ry

     total magnetization       =    80.48 Bohr mag/cell
     absolute magnetization    =    82.03 Bohr mag/cell

     iteration # 32     ecut=    50.00 Ry     beta= 0.10
     Davidson diagonalization with overlap
     ethr =  2.47E-06,  avg # of iterations =  1.5

     negative rho (up, down):  1.403E-06 3.122E-07
 
     Adding external electric field

     Computed dipole along edir(3) : 
        Dipole               -0.7843 Ry au,         -1.9936 Debye
        Dipole field         -0.0005 Ry au, 
 
        Potential amp.        0.0526 Ry
        Total length         54.2615 bohr
 
 
     Adding external electric field

     Computed dipole along edir(3) : 
        Dipole               -0.7843 Ry au,         -1.9936 Debye
        Dipole field         -0.0005 Ry au, 
 
        Potential amp.        0.0526 Ry
        Total length         54.2615 bohr
 

     total cpu time spent up to now is      582.9 secs

     total energy              =   -7398.03805649 Ry
     estimated scf accuracy    <       0.03182662 Ry

     total magnetization       =    80.47 Bohr mag/cell
     absolute magnetization    =    82.04 Bohr mag/cell

     iteration # 33     ecut=    50.00 Ry     beta= 0.10
     Davidson diagonalization with overlap
     ethr =  2.47E-06,  avg # of iterations =  1.5

     negative rho (up, down):  3.691E-06 5.358E-07
 
     Adding external electric field

     Computed dipole along edir(3) : 
        Dipole               -0.7636 Ry au,         -1.9408 Debye
        Dipole field         -0.0005 Ry au, 
 
        Potential amp.        0.0512 Ry
        Total length         54.2615 bohr
 
 
     Adding external electric field

     Computed dipole along edir(3) : 
        Dipole               -0.7636 Ry au,         -1.9408 Debye
        Dipole field         -0.0005 Ry au, 
 
        Potential amp.        0.0512 Ry
        Total length         54.2615 bohr
 

     total cpu time spent up to now is      599.0 secs

     total energy              =   -7398.03644173 Ry
     estimated scf accuracy    <       0.02966107 Ry

     total magnetization       =    80.52 Bohr mag/cell
     absolute magnetization    =    82.10 Bohr mag/cell

     iteration # 34     ecut=    50.00 Ry     beta= 0.10
     Davidson diagonalization with overlap
     ethr =  2.47E-06,  avg # of iterations =  1.5

     negative rho (up, down):  4.512E-06 6.166E-07
 
     Adding external electric field

     Computed dipole along edir(3) : 
        Dipole               -0.7836 Ry au,         -1.9917 Debye
        Dipole field         -0.0005 Ry au, 
 
        Potential amp.        0.0526 Ry
        Total length         54.2615 bohr
 
 
     Adding external electric field

     Computed dipole along edir(3) : 
        Dipole               -0.7836 Ry au,         -1.9917 Debye
        Dipole field         -0.0005 Ry au, 
 
        Potential amp.        0.0526 Ry
        Total length         54.2615 bohr
 

     total cpu time spent up to now is      614.9 secs

     total energy              =   -7398.03662934 Ry
     estimated scf accuracy    <       0.02665273 Ry

     total magnetization       =    80.64 Bohr mag/cell
     absolute magnetization    =    82.19 Bohr mag/cell

     iteration # 35     ecut=    50.00 Ry     beta= 0.10
     Davidson diagonalization with overlap
     ethr =  2.47E-06,  avg # of iterations =  1.5

     negative rho (up, down):  3.410E-06 3.973E-07
 
     Adding external electric field

     Computed dipole along edir(3) : 
        Dipole               -0.7790 Ry au,         -1.9801 Debye
        Dipole field         -0.0005 Ry au, 
 
        Potential amp.        0.0523 Ry
        Total length         54.2615 bohr
 
 
     Adding external electric field

     Computed dipole along edir(3) : 
        Dipole               -0.7790 Ry au,         -1.9801 Debye
        Dipole field         -0.0005 Ry au, 
 
        Potential amp.        0.0523 Ry
        Total length         54.2615 bohr
 

     total cpu time spent up to now is      630.5 secs

     total energy              =   -7398.03647461 Ry
     estimated scf accuracy    <       0.01985279 Ry

     total magnetization       =    80.53 Bohr mag/cell
     absolute magnetization    =    82.09 Bohr mag/cell

     iteration # 36     ecut=    50.00 Ry     beta= 0.10
     Davidson diagonalization with overlap
     ethr =  1.84E-06,  avg # of iterations =  1.5

     negative rho (up, down):  3.250E-06 3.117E-07
 
     Adding external electric field

     Computed dipole along edir(3) : 
        Dipole               -0.8021 Ry au,         -2.0387 Debye
        Dipole field         -0.0005 Ry au, 
 
        Potential amp.        0.0538 Ry
        Total length         54.2615 bohr
 
 
     Adding external electric field

     Computed dipole along edir(3) : 
        Dipole               -0.8021 Ry au,         -2.0387 Debye
        Dipole field         -0.0005 Ry au, 
 
        Potential amp.        0.0538 Ry
        Total length         54.2615 bohr
 

     total cpu time spent up to now is      646.4 secs

     total energy              =   -7398.03698541 Ry
     estimated scf accuracy    <       0.01969558 Ry

     total magnetization       =    80.54 Bohr mag/cell
     absolute magnetization    =    82.10 Bohr mag/cell

     iteration # 37     ecut=    50.00 Ry     beta= 0.10
     Davidson diagonalization with overlap
     ethr =  1.83E-06,  avg # of iterations =  1.5

     negative rho (up, down):  5.240E-06 6.690E-07
 
     Adding external electric field

     Computed dipole along edir(3) : 
        Dipole               -0.7833 Ry au,         -1.9911 Debye
        Dipole field         -0.0005 Ry au, 
 
        Potential amp.        0.0526 Ry
        Total length         54.2615 bohr
 
 
     Adding external electric field

     Computed dipole along edir(3) : 
        Dipole               -0.7833 Ry au,         -1.9911 Debye
        Dipole field         -0.0005 Ry au, 
 
        Potential amp.        0.0526 Ry
        Total length         54.2615 bohr
 

     total cpu time spent up to now is      662.7 secs

     total energy              =   -7398.03636019 Ry
     estimated scf accuracy    <       0.01907288 Ry

     total magnetization       =    80.53 Bohr mag/cell
     absolute magnetization    =    82.05 Bohr mag/cell

     iteration # 38     ecut=    50.00 Ry     beta= 0.10
     Davidson diagonalization with overlap
     ethr =  1.77E-06,  avg # of iterations =  1.5

     negative rho (up, down):  2.194E-05 1.230E-05
 
     Adding external electric field

     Computed dipole along edir(3) : 
        Dipole               -0.7621 Ry au,         -1.9370 Debye
        Dipole field         -0.0005 Ry au, 
 
        Potential amp.        0.0511 Ry
        Total length         54.2615 bohr
 
 
     Adding external electric field

     Computed dipole along edir(3) : 
        Dipole               -0.7621 Ry au,         -1.9370 Debye
        Dipole field         -0.0005 Ry au, 
 
        Potential amp.        0.0511 Ry
        Total length         54.2615 bohr
 

     total cpu time spent up to now is      678.6 secs

     total energy              =   -7398.03744175 Ry
     estimated scf accuracy    <       0.01701880 Ry

     total magnetization       =    80.51 Bohr mag/cell
     absolute magnetization    =    82.07 Bohr mag/cell

     iteration # 39     ecut=    50.00 Ry     beta= 0.10
     Davidson diagonalization with overlap
     ethr =  1.58E-06,  avg # of iterations =  2.0

     negative rho (up, down):  4.444E-05 2.684E-05
 
     Adding external electric field

     Computed dipole along edir(3) : 
        Dipole               -0.7548 Ry au,         -1.9184 Debye
        Dipole field         -0.0005 Ry au, 
 
        Potential amp.        0.0507 Ry
        Total length         54.2615 bohr
 
 
     Adding external electric field

     Computed dipole along edir(3) : 
        Dipole               -0.7548 Ry au,         -1.9184 Debye
        Dipole field         -0.0005 Ry au, 
 
        Potential amp.        0.0507 Ry
        Total length         54.2615 bohr
 

     total cpu time spent up to now is      695.1 secs

     total energy              =   -7398.03725822 Ry
     estimated scf accuracy    <       0.02070182 Ry

     total magnetization       =    80.52 Bohr mag/cell
     absolute magnetization    =    82.14 Bohr mag/cell

     iteration # 40     ecut=    50.00 Ry     beta= 0.10
     Davidson diagonalization with overlap
     ethr =  1.58E-06,  avg # of iterations =  2.0

     negative rho (up, down):  5.105E-04 4.533E-04
 
     Adding external electric field

     Computed dipole along edir(3) : 
        Dipole               -0.7402 Ry au,         -1.8814 Debye
        Dipole field         -0.0005 Ry au, 
 
        Potential amp.        0.0497 Ry
        Total length         54.2615 bohr
 
 
     Adding external electric field

     Computed dipole along edir(3) : 
        Dipole               -0.7402 Ry au,         -1.8814 Debye
        Dipole field         -0.0005 Ry au, 
 
        Potential amp.        0.0497 Ry
        Total length         54.2615 bohr
 

     total cpu time spent up to now is      712.0 secs

     total energy              =   -7398.03796353 Ry
     estimated scf accuracy    <       0.01527567 Ry

     total magnetization       =    80.41 Bohr mag/cell
     absolute magnetization    =    82.03 Bohr mag/cell

     iteration # 41     ecut=    50.00 Ry     beta= 0.10
     Davidson diagonalization with overlap
     c_bands:  1 eigenvalues not converged
     ethr =  1.42E-06,  avg # of iterations = 11.0

     negative rho (up, down):  1.020E-03 9.753E-04
 
     Adding external electric field

     Computed dipole along edir(3) : 
        Dipole               -0.7260 Ry au,         -1.8453 Debye
        Dipole field         -0.0004 Ry au, 
 
        Potential amp.        0.0487 Ry
        Total length         54.2615 bohr
 
 
     Adding external electric field

     Computed dipole along edir(3) : 
        Dipole               -0.7260 Ry au,         -1.8453 Debye
        Dipole field         -0.0004 Ry au, 
 
        Potential amp.        0.0487 Ry
        Total length         54.2615 bohr
 

     total cpu time spent up to now is      733.4 secs

     total energy              =   -7398.03793996 Ry
     estimated scf accuracy    <       0.01312361 Ry

     total magnetization       =    80.43 Bohr mag/cell
     absolute magnetization    =    82.02 Bohr mag/cell

     iteration # 42     ecut=    50.00 Ry     beta= 0.10
     Davidson diagonalization with overlap
     ethr =  1.22E-06,  avg # of iterations =  2.0

     negative rho (up, down):  1.308E-03 1.229E-03
 
     Adding external electric field

     Computed dipole along edir(3) : 
        Dipole               -0.6776 Ry au,         -1.7223 Debye
        Dipole field         -0.0004 Ry au, 
 
        Potential amp.        0.0455 Ry
        Total length         54.2615 bohr
 
 
     Adding external electric field

     Computed dipole along edir(3) : 
        Dipole               -0.6776 Ry au,         -1.7223 Debye
        Dipole field         -0.0004 Ry au, 
 
        Potential amp.        0.0455 Ry
        Total length         54.2615 bohr
 

     total cpu time spent up to now is      749.5 secs

     total energy              =   -7398.03752731 Ry
     estimated scf accuracy    <       0.01234052 Ry

     total magnetization       =    80.42 Bohr mag/cell
     absolute magnetization    =    81.99 Bohr mag/cell

     iteration # 43     ecut=    50.00 Ry     beta= 0.10
     Davidson diagonalization with overlap
     ethr =  1.14E-06,  avg # of iterations =  2.0

     negative rho (up, down):  1.797E-03 1.710E-03
 
     Adding external electric field

     Computed dipole along edir(3) : 
        Dipole               -0.7046 Ry au,         -1.7908 Debye
        Dipole field         -0.0004 Ry au, 
 
        Potential amp.        0.0473 Ry
        Total length         54.2615 bohr
 
 
     Adding external electric field

     Computed dipole along edir(3) : 
        Dipole               -0.7046 Ry au,         -1.7908 Debye
        Dipole field         -0.0004 Ry au, 
 
        Potential amp.        0.0473 Ry
        Total length         54.2615 bohr
 

     total cpu time spent up to now is      765.5 secs

     total energy              =   -7398.03767846 Ry
     estimated scf accuracy    <       0.01551479 Ry

     total magnetization       =    80.46 Bohr mag/cell
     absolute magnetization    =    82.03 Bohr mag/cell

     iteration # 44     ecut=    50.00 Ry     beta= 0.10
     Davidson diagonalization with overlap
     ethr =  1.14E-06,  avg # of iterations =  2.0

     negative rho (up, down):  7.445E-04 7.196E-04
 
     Adding external electric field

     Computed dipole along edir(3) : 
        Dipole               -0.7118 Ry au,         -1.8091 Debye
        Dipole field         -0.0004 Ry au, 
 
        Potential amp.        0.0478 Ry
        Total length         54.2615 bohr
 
 
     Adding external electric field

     Computed dipole along edir(3) : 
        Dipole               -0.7118 Ry au,         -1.8091 Debye
        Dipole field         -0.0004 Ry au, 
 
        Potential amp.        0.0478 Ry
        Total length         54.2615 bohr
 

     total cpu time spent up to now is      782.0 secs

     total energy              =   -7398.03785371 Ry
     estimated scf accuracy    <       0.01605938 Ry

     total magnetization       =    80.49 Bohr mag/cell
     absolute magnetization    =    82.00 Bohr mag/cell

     iteration # 45     ecut=    50.00 Ry     beta= 0.10
     Davidson diagonalization with overlap
     ethr =  1.14E-06,  avg # of iterations =  2.0

     negative rho (up, down):  1.214E-03 1.233E-03
 
     Adding external electric field

     Computed dipole along edir(3) : 
        Dipole               -0.6923 Ry au,         -1.7596 Debye
        Dipole field         -0.0004 Ry au, 
 
        Potential amp.        0.0465 Ry
        Total length         54.2615 bohr
 
 
     Adding external electric field

     Computed dipole along edir(3) : 
        Dipole               -0.6923 Ry au,         -1.7596 Debye
        Dipole field         -0.0004 Ry au, 
 
        Potential amp.        0.0465 Ry
        Total length         54.2615 bohr
 

     total cpu time spent up to now is      797.9 secs

     total energy              =   -7398.03736332 Ry
     estimated scf accuracy    <       0.01562995 Ry

     total magnetization       =    80.48 Bohr mag/cell
     absolute magnetization    =    82.04 Bohr mag/cell

     iteration # 46     ecut=    50.00 Ry     beta= 0.10
     Davidson diagonalization with overlap
     ethr =  1.14E-06,  avg # of iterations =  2.0

     negative rho (up, down):  1.593E-03 1.641E-03
 
     Adding external electric field

     Computed dipole along edir(3) : 
        Dipole               -0.6847 Ry au,         -1.7403 Debye
        Dipole field         -0.0004 Ry au, 
 
        Potential amp.        0.0460 Ry
        Total length         54.2615 bohr
 
 
     Adding external electric field

     Computed dipole along edir(3) : 
        Dipole               -0.6847 Ry au,         -1.7403 Debye
        Dipole field         -0.0004 Ry au, 
 
        Potential amp.        0.0460 Ry
        Total length         54.2615 bohr
 

     total cpu time spent up to now is      813.6 secs

     total energy              =   -7398.03746065 Ry
     estimated scf accuracy    <       0.01646454 Ry

     total magnetization       =    80.47 Bohr mag/cell
     absolute magnetization    =    82.09 Bohr mag/cell

     iteration # 47     ecut=    50.00 Ry     beta= 0.10
     Davidson diagonalization with overlap
     ethr =  1.14E-06,  avg # of iterations =  1.0

     negative rho (up, down):  1.874E-03 1.951E-03
 
     Adding external electric field

     Computed dipole along edir(3) : 
        Dipole               -0.6775 Ry au,         -1.7221 Debye
        Dipole field         -0.0004 Ry au, 
 
        Potential amp.        0.0455 Ry
        Total length         54.2615 bohr
 
 
     Adding external electric field

     Computed dipole along edir(3) : 
        Dipole               -0.6775 Ry au,         -1.7221 Debye
        Dipole field         -0.0004 Ry au, 
 
        Potential amp.        0.0455 Ry
        Total length         54.2615 bohr
 

     total cpu time spent up to now is      827.3 secs

     total energy              =   -7398.03737064 Ry
     estimated scf accuracy    <       0.01646298 Ry

     total magnetization       =    80.47 Bohr mag/cell
     absolute magnetization    =    82.09 Bohr mag/cell

     iteration # 48     ecut=    50.00 Ry     beta= 0.10
     Davidson diagonalization with overlap
     ethr =  1.14E-06,  avg # of iterations =  2.0

     negative rho (up, down):  2.284E-03 2.477E-03
 
     Adding external electric field

     Computed dipole along edir(3) : 
        Dipole               -0.7047 Ry au,         -1.7912 Debye
        Dipole field         -0.0004 Ry au, 
 
        Potential amp.        0.0473 Ry
        Total length         54.2615 bohr
 
 
     Adding external electric field

     Computed dipole along edir(3) : 
        Dipole               -0.7047 Ry au,         -1.7912 Debye
        Dipole field         -0.0004 Ry au, 
 
        Potential amp.        0.0473 Ry
        Total length         54.2615 bohr
 

     total cpu time spent up to now is      843.9 secs

     total energy              =   -7398.03751741 Ry
     estimated scf accuracy    <       0.01647230 Ry

     total magnetization       =    80.46 Bohr mag/cell
     absolute magnetization    =    82.10 Bohr mag/cell

     iteration # 49     ecut=    50.00 Ry     beta= 0.10
     Davidson diagonalization with overlap
     ethr =  1.14E-06,  avg # of iterations =  2.0

     negative rho (up, down):  1.646E-03 1.624E-03
 
     Adding external electric field

     Computed dipole along edir(3) : 
        Dipole               -0.6796 Ry au,         -1.7274 Debye
        Dipole field         -0.0004 Ry au, 
 
        Potential amp.        0.0456 Ry
        Total length         54.2615 bohr
 
 
     Adding external electric field

     Computed dipole along edir(3) : 
        Dipole               -0.6796 Ry au,         -1.7274 Debye
        Dipole field         -0.0004 Ry au, 
 
        Potential amp.        0.0456 Ry
        Total length         54.2615 bohr
 

     total cpu time spent up to now is      860.9 secs

     total energy              =   -7398.03751914 Ry
     estimated scf accuracy    <       0.01484650 Ry

     total magnetization       =    80.42 Bohr mag/cell
     absolute magnetization    =    82.01 Bohr mag/cell

     iteration # 50     ecut=    50.00 Ry     beta= 0.10
     Davidson diagonalization with overlap
     ethr =  1.14E-06,  avg # of iterations =  1.0

     negative rho (up, down):  1.541E-03 1.534E-03
 
     Adding external electric field

     Computed dipole along edir(3) : 
        Dipole               -0.6840 Ry au,         -1.7385 Debye
        Dipole field         -0.0004 Ry au, 
 
        Potential amp.        0.0459 Ry
        Total length         54.2615 bohr
 
 
     Adding external electric field

     Computed dipole along edir(3) : 
        Dipole               -0.6840 Ry au,         -1.7385 Debye
        Dipole field         -0.0004 Ry au, 
 
        Potential amp.        0.0459 Ry
        Total length         54.2615 bohr
 

     total cpu time spent up to now is      875.9 secs

     total energy              =   -7398.03754982 Ry
     estimated scf accuracy    <       0.01454636 Ry

     total magnetization       =    80.45 Bohr mag/cell
     absolute magnetization    =    82.06 Bohr mag/cell

     iteration # 51     ecut=    50.00 Ry     beta= 0.10
     Davidson diagonalization with overlap
     ethr =  1.14E-06,  avg # of iterations =  2.0

     negative rho (up, down):  4.183E-04 3.585E-04
 
     Adding external electric field

     Computed dipole along edir(3) : 
        Dipole               -0.7045 Ry au,         -1.7906 Debye
        Dipole field         -0.0004 Ry au, 
 
        Potential amp.        0.0473 Ry
        Total length         54.2615 bohr
 
 
     Adding external electric field

     Computed dipole along edir(3) : 
        Dipole               -0.7045 Ry au,         -1.7906 Debye
        Dipole field         -0.0004 Ry au, 
 
        Potential amp.        0.0473 Ry
        Total length         54.2615 bohr
 

     total cpu time spent up to now is      893.1 secs

     total energy              =   -7398.03777085 Ry
     estimated scf accuracy    <       0.01447743 Ry

     total magnetization       =    80.45 Bohr mag/cell
     absolute magnetization    =    82.06 Bohr mag/cell

     iteration # 52     ecut=    50.00 Ry     beta= 0.10
     Davidson diagonalization with overlap
     ethr =  1.14E-06,  avg # of iterations =  2.0

     negative rho (up, down):  1.114E-03 1.054E-03
 
     Adding external electric field

     Computed dipole along edir(3) : 
        Dipole               -0.6901 Ry au,         -1.7542 Debye
        Dipole field         -0.0004 Ry au, 
 
        Potential amp.        0.0463 Ry
        Total length         54.2615 bohr
 
 
     Adding external electric field

     Computed dipole along edir(3) : 
        Dipole               -0.6901 Ry au,         -1.7542 Debye
        Dipole field         -0.0004 Ry au, 
 
        Potential amp.        0.0463 Ry
        Total length         54.2615 bohr
 

     total cpu time spent up to now is      909.8 secs

     total energy              =   -7398.03751099 Ry
     estimated scf accuracy    <       0.01617878 Ry

     total magnetization       =    80.42 Bohr mag/cell
     absolute magnetization    =    82.01 Bohr mag/cell

     iteration # 53     ecut=    50.00 Ry     beta= 0.10
     Davidson diagonalization with overlap
     ethr =  1.14E-06,  avg # of iterations =  2.0

     negative rho (up, down):  1.721E-03 1.594E-03
 
     Adding external electric field

     Computed dipole along edir(3) : 
        Dipole               -0.6777 Ry au,         -1.7227 Debye
        Dipole field         -0.0004 Ry au, 
 
        Potential amp.        0.0455 Ry
        Total length         54.2615 bohr
 
 
     Adding external electric field

     Computed dipole along edir(3) : 
        Dipole               -0.6777 Ry au,         -1.7227 Debye
        Dipole field         -0.0004 Ry au, 
 
        Potential amp.        0.0455 Ry
        Total length         54.2615 bohr
 

     total cpu time spent up to now is      926.4 secs

     total energy              =   -7398.03750816 Ry
     estimated scf accuracy    <       0.01294447 Ry

     total magnetization       =    80.48 Bohr mag/cell
     absolute magnetization    =    82.07 Bohr mag/cell

     iteration # 54     ecut=    50.00 Ry     beta= 0.10
     Davidson diagonalization with overlap
     ethr =  1.14E-06,  avg # of iterations =  1.5

     negative rho (up, down):  1.101E-03 1.056E-03
 
     Adding external electric field

     Computed dipole along edir(3) : 
        Dipole               -0.6904 Ry au,         -1.7547 Debye
        Dipole field         -0.0004 Ry au, 
 
        Potential amp.        0.0463 Ry
        Total length         54.2615 bohr
 
 
     Adding external electric field

     Computed dipole along edir(3) : 
        Dipole               -0.6904 Ry au,         -1.7547 Debye
        Dipole field         -0.0004 Ry au, 
 
        Potential amp.        0.0463 Ry
        Total length         54.2615 bohr
 

     total cpu time spent up to now is      942.2 secs

     total energy              =   -7398.03749795 Ry
     estimated scf accuracy    <       0.01306417 Ry

     total magnetization       =    80.49 Bohr mag/cell
     absolute magnetization    =    82.05 Bohr mag/cell

     iteration # 55     ecut=    50.00 Ry     beta= 0.10
     Davidson diagonalization with overlap
     ethr =  1.14E-06,  avg # of iterations =  1.5

     negative rho (up, down):  9.240E-04 8.627E-04
 
     Adding external electric field

     Computed dipole along edir(3) : 
        Dipole               -0.6937 Ry au,         -1.7632 Debye
        Dipole field         -0.0004 Ry au, 
 
        Potential amp.        0.0466 Ry
        Total length         54.2615 bohr
 
 
     Adding external electric field

     Computed dipole along edir(3) : 
        Dipole               -0.6937 Ry au,         -1.7632 Debye
        Dipole field         -0.0004 Ry au, 
 
        Potential amp.        0.0466 Ry
        Total length         54.2615 bohr
 

     total cpu time spent up to now is      958.3 secs

     total energy              =   -7398.03761396 Ry
     estimated scf accuracy    <       0.01282784 Ry

     total magnetization       =    80.47 Bohr mag/cell
     absolute magnetization    =    82.07 Bohr mag/cell

     iteration # 56     ecut=    50.00 Ry     beta= 0.10
     Davidson diagonalization with overlap
     ethr =  1.14E-06,  avg # of iterations =  1.5

     negative rho (up, down):  1.232E-03 1.163E-03
 
     Adding external electric field

     Computed dipole along edir(3) : 
        Dipole               -0.6912 Ry au,         -1.7568 Debye
        Dipole field         -0.0004 Ry au, 
 
        Potential amp.        0.0464 Ry
        Total length         54.2615 bohr
 
 
     Adding external electric field

     Computed dipole along edir(3) : 
        Dipole               -0.6912 Ry au,         -1.7568 Debye
        Dipole field         -0.0004 Ry au, 
 
        Potential amp.        0.0464 Ry
        Total length         54.2615 bohr
 

     total cpu time spent up to now is      973.9 secs

     total energy              =   -7398.03759801 Ry
     estimated scf accuracy    <       0.01251771 Ry

     total magnetization       =    80.47 Bohr mag/cell
     absolute magnetization    =    82.06 Bohr mag/cell

     iteration # 57     ecut=    50.00 Ry     beta= 0.10
     Davidson diagonalization with overlap
     ethr =  1.14E-06,  avg # of iterations =  2.0

     negative rho (up, down):  6.027E-04 5.524E-04
 
     Adding external electric field

     Computed dipole along edir(3) : 
        Dipole               -0.7067 Ry au,         -1.7964 Debye
        Dipole field         -0.0004 Ry au, 
 
        Potential amp.        0.0474 Ry
        Total length         54.2615 bohr
 
 
     Adding external electric field

     Computed dipole along edir(3) : 
        Dipole               -0.7067 Ry au,         -1.7964 Debye
        Dipole field         -0.0004 Ry au, 
 
        Potential amp.        0.0474 Ry
        Total length         54.2615 bohr
 

     total cpu time spent up to now is      990.3 secs

     total energy              =   -7398.03764270 Ry
     estimated scf accuracy    <       0.01254667 Ry

     total magnetization       =    80.48 Bohr mag/cell
     absolute magnetization    =    82.06 Bohr mag/cell

     iteration # 58     ecut=    50.00 Ry     beta= 0.10
     Davidson diagonalization with overlap
     ethr =  1.14E-06,  avg # of iterations =  1.5

     negative rho (up, down):  1.509E-03 1.644E-03
 
     Adding external electric field

     Computed dipole along edir(3) : 
        Dipole               -0.6996 Ry au,         -1.7781 Debye
        Dipole field         -0.0004 Ry au, 
 
        Potential amp.        0.0470 Ry
        Total length         54.2615 bohr
 
 
[...]
    -6.0008  -5.9876  -5.9587  -5.9373  -5.9179  -5.8871  -5.8520  -5.8441
    -5.8214  -5.8082  -5.7613  -5.7374  -5.7334  -5.7159  -5.6983  -5.6895
    -5.6771  -5.6711  -5.6403  -5.6256  -5.6144  -5.6006  -5.5309  -5.5148
    -5.4628  -5.4526  -5.4082  -5.4070  -5.3901  -5.3547  -5.3094  -5.2879
    -5.2452  -5.2163  -5.1911  -5.1806  -5.1700  -5.0854  -5.0832  -5.0609
    -4.9985  -4.9671  -4.9555  -4.9166  -4.8938  -4.8725  -4.8515  -4.8012
    -4.7849  -4.7674  -4.7633  -4.7375  -4.6473  -4.6332  -4.5840  -4.5518
    -4.5338  -4.5229  -4.4992  -4.4530  -4.4214  -4.3990  -4.3845  -4.3748
    -4.3660  -4.2977  -4.2957  -4.2326  -4.1789  -4.1500  -4.1112  -4.0955
    -4.0813  -4.0479  -4.0417  -4.0065  -3.9637  -3.9575  -3.9132  -3.9046
    -3.8869  -3.8480  -3.8285  -3.8180  -3.8076  -3.7725  -3.7469  -3.7366
    -3.7103  -3.6869  -3.6689  -3.6574  -3.6447  -3.6329  -3.6058  -3.5814
    -3.5489  -3.5303  -3.5268  -3.5044  -3.5024  -3.4881  -3.4553  -3.4471
    -3.4171  -3.4078  -3.3879  -3.3553  -3.3471  -3.3092  -3.2783  -3.2604
    -3.2386  -3.2223  -3.2113  -3.1938  -3.1760  -3.1689  -3.1513  -3.1447
    -3.1213  -3.0877  -3.0444  -3.0306  -3.0163  -2.9969  -2.9677  -2.9594
    -2.9272  -2.9189  -2.9005  -2.8760  -2.8635  -2.8490  -2.8244  -2.8143
    -2.8006  -2.7917  -2.7867  -2.7784  -2.7567  -2.7477  -2.7273  -2.7080
    -2.6924  -2.6685  -2.6671  -2.6548  -2.6273  -2.6131  -2.5979  -2.5842
    -2.5521  -2.5381  -2.5243  -2.5133  -2.4944  -2.4906  -2.4720  -2.4468
    -2.4285  -2.4039  -2.3924  -2.3701  -2.3535  -2.3174  -2.3038  -2.2879
    -2.2663  -2.2526  -2.2396  -2.2105  -2.1724  -2.1655  -2.1348  -2.1305
    -2.1148  -2.0880  -2.0859  -2.0762  -2.0679  -2.0426  -2.0108  -1.9957
    -1.9789  -1.9663  -1.9572  -1.9405  -1.9350  -1.9189  -1.9015  -1.8734
    -1.8484  -1.8238  -1.7955  -1.7697  -1.7412  -1.7299  -1.7093  -1.7017
    -1.6780  -1.6597  -1.6467  -1.6338  -1.6158  -1.6019  -1.5758  -1.5513
    -1.5334  -1.5188  -1.4913  -1.4692  -1.4586  -1.4314  -1.4238  -1.4201
    -1.4112  -1.3755  -1.3451  -1.3132  -1.3017  -1.2488  -1.2257  -1.2080
    -1.1556  -1.0964  -1.0717  -1.0563  -1.0172  -0.9302  -0.8965  -0.8799
    -0.7668  -0.6638  -0.6173  -0.6139  -0.4671  -0.3703  -0.3282  -0.2627
     0.0987   0.1218   0.1510   0.1869   0.2210   0.2400   0.2559   0.2669
     0.2794   0.2876   0.2958   0.3026   0.3101   0.3286   0.3395   0.3396
     0.3520   0.3583   0.3679   0.3745   0.3829   0.3877   0.3948   0.3983
     0.4067   0.4089   0.4215   0.4325   0.4426   0.4508   0.4530   0.4568
     0.4613   0.4632   0.4717   0.4784   0.4891   0.4968   0.5001   0.5094
     0.5137   0.5306   0.5361   0.5436   0.5574   0.5587   0.5629   0.5711
     0.5776   0.5847   0.5916   0.5947   0.6019   0.6110   0.6222   0.6310
     0.6417   0.6519   0.6584   0.6596   0.6630   0.6713   0.6816   0.6834
     0.6916   0.6998   0.7067   0.7105   0.7158   0.7208   0.7395   0.7426
     0.7466   0.7510   0.7755   0.7828   0.7850   0.7934   0.8041   0.8212
     0.8361   0.8391   0.8397   0.8503   0.8600   0.8626   0.8755   0.8797
     0.8937   0.8979   0.9093   0.9155   0.9225   0.9825   1.0113   1.0151
     1.0679   1.1317   1.6042   1.6542   1.6943   1.6969   1.7100   1.7405
     1.7558   1.8362   1.8675   1.8709   1.8877   1.9166   1.9295   1.9598
     1.9870   1.9929   2.0103   2.0159   2.0541   2.0682   2.0764   2.1146
     2.1417   2.1545   2.1800   2.1874   2.1924   2.2114   2.2210   2.2342
     2.2482   2.2526   2.2629   2.2797   2.2880   2.2965   2.3017   2.3206
     2.3316   2.3387   2.3679   2.3807   2.4074   2.4128   2.4162   2.4356
     2.4507   2.4703   2.4932   2.4971   2.5115   2.5315   2.5361   2.5496
     2.5771   2.5891   2.6250   2.6426   2.6628   2.6869   2.7282   2.7530
     2.7834   2.8307   2.8400   2.8877   2.9006   3.5578   3.5867   3.6613
     3.7279   3.8158   3.8262   3.8403   3.8570   3.9944   4.0582   4.5549
     4.6389   4.6964   4.7703   4.9221   4.9423   5.0156   5.4123   6.2911
     6.3571   6.5389   6.5784   6.7368   6.8286   6.8406   6.8788   6.9218
     7.0245   7.0782   7.0877   7.1213   7.3160   7.3650   7.3867   7.4264
     7.5008   7.5406   7.6561   7.6754   7.6899   7.7252   7.7888   7.8033
     7.8474   7.9193   7.9599   7.9724   8.0069   8.0194   8.0460   8.0693
     8.0958   8.1158   8.1678   8.2000   8.2321   8.2494   8.2838   8.3181
     8.3762   8.3983   8.4128   8.4590   8.4718   8.4742   8.4972   8.5104
     8.5470   8.5511   8.5910   8.5953   8.6114   8.6337   8.6679   8.6778
     8.7143   8.7524   8.7693   8.7984   8.8326   8.8427   8.8615

     the Fermi energy is     1.5614 ev

!    total energy              =   -7398.03607682 Ry
     estimated scf accuracy    <       0.00000079 Ry
     smearing contrib. (-TS)   =      -0.01417547 Ry
     internal energy E=F+TS    =   -7398.02190134 Ry

     The total energy is F=E-TS. E is the sum of the following terms:
     one-electron contribution =  -91723.93407301 Ry
     hartree contribution      =   46509.81068341 Ry
     xc contribution           =   -2260.28071627 Ry
     ewald contribution        =   40078.21605365 Ry
     Dispersion Correction     =      -1.83386293 Ry
     electric field correction =       0.00001380 Ry

     total magnetization       =    80.45 Bohr mag/cell
     absolute magnetization    =    81.98 Bohr mag/cell

     convergence has been achieved in 115 iterations

     negative rho (up, down):  9.283E-04 5.459E-04

     Forces acting on atoms (cartesian axes, Ry/au):

     atom    1 type  2   force =     0.03089322   -0.01962979   -0.01654765
     atom    2 type  1   force =     0.00224235   -0.00396957   -0.01072593
     atom    3 type  1   force =    -0.02166457   -0.02071759    0.01798038
     atom    4 type  1   force =     0.00141420    0.01022711   -0.01267614
     atom    5 type  1   force =    -0.00484977    0.02910065   -0.01865142
     atom    6 type  1   force =     0.00581270    0.00042000   -0.00058554
     atom    7 type  1   force =     0.02698276   -0.02095946    0.01718632
     atom    8 type  1   force =    -0.00968992   -0.00312715   -0.01107200
     atom    9 type  1   force =    -0.02977838   -0.01828433    0.01594800
     atom   10 type  1   force =    -0.00111989    0.00805126   -0.01296781
     atom   11 type  1   force =    -0.01311895    0.03051525   -0.02082667
     atom   12 type  1   force =     0.00133323    0.00651361   -0.00423947
     atom   13 type  3   force =     0.05099620   -0.11002396    0.00914153
     atom   14 type  3   force =    -0.02903373    0.03593843   -0.06522071
     atom   15 type  3   force =    -0.00919529    0.17547593   -0.08319706
     atom   16 type  3   force =     0.06070502    0.00053937   -0.00440629
     atom   17 type  4   force =     0.01514271   -0.02189229   -0.00988908
     atom   18 type  4   force =    -0.00544093    0.00487526    0.02971003
     atom   19 type  4   force =     0.00219114    0.00103981    0.03077373
     atom   20 type  4   force =     0.00516046    0.00183196    0.00227339
     atom   21 type  4   force =     0.00047178   -0.01204058    0.00010409
     atom   22 type  4   force =    -0.00093953    0.00389626    0.03241049
     atom   23 type  4   force =    -0.00605382    0.01469335    0.02735016
     atom   24 type  4   force =     0.00871652    0.00318235   -0.00420818
     atom   25 type  4   force =     0.00654213   -0.00313553    0.00157278
     atom   26 type  4   force =     0.03121270   -0.17839052    0.00718785
     atom   27 type  4   force =     0.00275966    0.00100199    0.00170035
     atom   28 type  4   force =    -0.01710346    0.00167337    0.00470975
     atom   29 type  4   force =     0.09141473    0.00313181    0.00801423
     atom   30 type  4   force =     0.01303226   -0.02523094   -0.00095235
     atom   31 type  4   force =    -0.03852518    0.13349617   -0.00016051
     atom   32 type  4   force =    -0.00535803   -0.01186679    0.00653097
     atom   33 type  3   force =     0.04157979   -0.11918731    0.00958648
     atom   34 type  3   force =    -0.10167233    0.04258688   -0.07577247
     atom   35 type  3   force =    -0.01351120    0.16598471   -0.08813788
     atom   36 type  3   force =    -0.00359014    0.00255378   -0.01046420
     atom   37 type  4   force =     0.00820460   -0.01473744   -0.00247699
     atom   38 type  4   force =    -0.00589727   -0.00166536    0.02745688
     atom   39 type  4   force =    -0.00465545    0.00727028    0.03218419
     atom   40 type  4   force =     0.00133898   -0.00000843    0.00239525
     atom   41 type  4   force =    -0.00155605   -0.00969112   -0.00139321
     atom   42 type  4   force =     0.00539968   -0.00049490    0.02925943
     atom   43 type  4   force =    -0.01042754    0.01352308    0.02699957
     atom   44 type  4   force =     0.00450271    0.00343259   -0.00438781
     atom   45 type  4   force =    -0.00024342   -0.00051106    0.00203442
     atom   46 type  4   force =     0.02818718   -0.17061174    0.00535851
     atom   47 type  4   force =    -0.06563429   -0.00073952   -0.00310743
     atom   48 type  4   force =    -0.01990882    0.00391265    0.00526589
     atom   49 type  4   force =     0.01416314    0.00083397    0.00200392
     atom   50 type  4   force =     0.00791089   -0.02443487   -0.00020325
     atom   51 type  4   force =    -0.03979483    0.13345955   -0.00133913
     atom   52 type  4   force =    -0.00767681   -0.01065277    0.00876884
     atom   53 type  2   force =     0.00644691   -0.00732497    0.00593722
     atom   54 type  1   force =     0.00109297   -0.00394032    0.00717560
     atom   55 type  1   force =     0.00495887   -0.00631677    0.00687278
     atom   56 type  1   force =    -0.00087649    0.00724420   -0.00071858
     atom   57 type  1   force =     0.00045484    0.02216024   -0.01391514
     atom   58 type  1   force =     0.00161769   -0.00345386    0.00273113
     atom   59 type  1   force =     0.00250632   -0.01009972    0.00410519
     atom   60 type  1   force =    -0.00753832   -0.00359991    0.00400341
     atom   61 type  1   force =    -0.00466777   -0.00498884    0.00691227
     atom   62 type  1   force =    -0.00225170    0.00498964    0.00218643
     atom   63 type  1   force =    -0.01072328    0.02518394   -0.01719771
     atom   64 type  1   force =    -0.00230860    0.00111973   -0.00045983
     atom   65 type  3   force =     0.04666565   -0.11944694    0.01679406
     atom   66 type  3   force =     0.00156116   -0.00440353    0.00066209
     atom   67 type  3   force =    -0.04056666    0.12365967   -0.00694101
     atom   68 type  3   force =     0.06322027   -0.00246028    0.00828864
     atom   69 type  4   force =     0.01277333   -0.01738103   -0.00203450
     atom   70 type  4   force =    -0.00173850    0.00343841   -0.00062539
     atom   71 type  4   force =    -0.00189836    0.00338334    0.00523250
     atom   72 type  4   force =     0.00474229    0.00155821    0.00090520
     atom   73 type  4   force =     0.00674663   -0.01711485    0.01174362
     atom   74 type  4   force =    -0.00446924   -0.00329100    0.00924279
     atom   75 type  4   force =     0.00356630    0.00867825    0.00449548
     atom   76 type  4   force =     0.00535676    0.00017460    0.00095526
     atom   77 type  4   force =     0.00600022   -0.00135334   -0.00071698
     atom   78 type  4   force =     0.04531344   -0.14091607    0.00577833
     atom   79 type  4   force =     0.00034066    0.00029731   -0.00096490
     atom   80 type  4   force =     0.00145171    0.00184751    0.00227300
     atom   81 type  4   force =     0.06743432    0.00011509    0.00654496
     atom   82 type  4   force =     0.00017534    0.00232999    0.00130118
     atom   83 type  4   force =    -0.03958484    0.13732130   -0.00226863
     atom   84 type  4   force =    -0.00211359   -0.01049846    0.00360354
     atom   85 type  3   force =     0.03901751   -0.12281319    0.02653226
     atom   86 type  3   force =    -0.06321243   -0.00178500   -0.00385968
     atom   87 type  3   force =    -0.04621374    0.12089999   -0.01041614
     atom   88 type  3   force =     0.00007252   -0.00107746    0.00188353
     atom   89 type  4   force =     0.00869271   -0.01534612   -0.00507007
     atom   90 type  4   force =    -0.00449766    0.00109831   -0.00073716
     atom   91 type  4   force =    -0.00946835    0.00832792    0.00553108
     atom   92 type  4   force =     0.00024723    0.00003948   -0.00003906
     atom   93 type  4   force =     0.00188378   -0.01183438    0.00087691
     atom   94 type  4   force =    -0.00911263   -0.00291795    0.00828098
     atom   95 type  4   force =    -0.00028465    0.00776936    0.00295253
     atom   96 type  4   force =    -0.00124046    0.00207575   -0.00204411
     atom   97 type  4   force =    -0.00098229    0.00158649   -0.00030848
     atom   98 type  4   force =     0.04067087   -0.13926690    0.00486305
     atom   99 type  4   force =    -0.06732114   -0.00067595   -0.00571762
     atom  100 type  4   force =    -0.00046199    0.00280965    0.00286761
     atom  101 type  4   force =    -0.00115482    0.00009032    0.00143483
     atom  102 type  4   force =    -0.00686571    0.00546170    0.00157076
     atom  103 type  4   force =    -0.03982806    0.13539796   -0.00467064
     atom  104 type  4   force =    -0.00543482   -0.01020684    0.00529220
     atom  105 type  2   force =     0.00004457    0.00028271   -0.00009996
     atom  106 type  1   force =    -0.00010939   -0.00042358    0.00007525
     atom  107 type  1   force =    -0.00044174   -0.00073747   -0.00014502
     atom  108 type  1   force =    -0.00040556   -0.00054730    0.00034338
     atom  109 type  1   force =     0.00015110   -0.00021482   -0.00033209
     atom  110 type  1   force =    -0.00014001   -0.00007053    0.00022514
     atom  111 type  1   force =    -0.00001679    0.00024601    0.00006676
     atom  112 type  1   force =     0.00011268   -0.00049600    0.00023486
     atom  113 type  1   force =    -0.00037790   -0.00050395   -0.00072411
     atom  114 type  1   force =     0.00036092   -0.00075709    0.00071784
     atom  115 type  1   force =     0.00010659    0.00013134    0.00002865
     atom  116 type  1   force =     0.00009691   -0.00003040   -0.00026109
     atom  117 type  3   force =     0.00039098    0.00047711   -0.00058997
     atom  118 type  3   force =    -0.00040878   -0.00024996   -0.00018685
     atom  119 type  3   force =    -0.00009415    0.00005167    0.00039654
     atom  120 type  3   force =     0.00078578   -0.00036835    0.00059430
     atom  121 type  4   force =     0.00003200   -0.00016113    0.00013777
     atom  122 type  4   force =    -0.00009650    0.00004304   -0.00025560
     atom  123 type  4   force =     0.00022555    0.00004158    0.00011691
     atom  124 type  4   force =     0.00033591   -0.00040449   -0.00031057
     atom  125 type  4   force =    -0.00017495   -0.00026509    0.00024824
     atom  126 type  4   force =     0.00016334   -0.00039414   -0.00002980
     atom  127 type  4   force =    -0.00003958    0.00016270    0.00033742
     atom  128 type  4   force =    -0.00038990    0.00042526   -0.00090908
     atom  129 type  4   force =    -0.00069076    0.00087351   -0.00043481
     atom  130 type  4   force =     0.00016751    0.00017377    0.00016171
     atom  131 type  4   force =     0.00004769   -0.00090188    0.00042535
     atom  132 type  4   force =     0.00006988   -0.00012713   -0.00025296
     atom  133 type  4   force =    -0.00016189   -0.00016093   -0.00021514
     atom  134 type  4   force =     0.00006693   -0.00018892   -0.00003295
     atom  135 type  4   force =    -0.00010052   -0.00042338   -0.00003839
     atom  136 type  4   force =    -0.00009558   -0.00011920   -0.00007064
     atom  137 type  3   force =    -0.00050929   -0.00024704   -0.00018324
     atom  138 type  3   force =     0.00012193    0.00002234   -0.00008951
     atom  139 type  3   force =    -0.00002661   -0.00032193   -0.00023191
     atom  140 type  3   force =    -0.00003181   -0.00014394   -0.00044962
     atom  141 type  4   force =     0.00084815    0.00045685    0.00060011
     atom  142 type  4   force =    -0.00020374    0.00011653   -0.00008727
     atom  143 type  4   force =     0.00002143   -0.00027586    0.00005868
     atom  144 type  4   force =     0.00009426    0.00074177   -0.00068095
     atom  145 type  4   force =     0.00000108   -0.00012305    0.00009147
     atom  146 type  4   force =     0.00016106   -0.00024519    0.00026148
     atom  147 type  4   force =     0.00012700    0.00011437   -0.00020303
     atom  148 type  4   force =    -0.00053103    0.00016887    0.00022403
     atom  149 type  4   force =     0.00041310   -0.00018626   -0.00003448
     atom  150 type  4   force =     0.00017714   -0.00012650   -0.00004362
     atom  151 type  4   force =    -0.00006674   -0.00000490   -0.00036342
     atom  152 type  4   force =     0.00032052   -0.00036458    0.00026508
     atom  153 type  4   force =     0.00015459    0.00003019   -0.00007404
     atom  154 type  4   force =    -0.00039330   -0.00041827   -0.00008272
     atom  155 type  4   force =     0.00065372    0.00076172   -0.00002763
     atom  156 type  4   force =    -0.00072564   -0.00000596   -0.00009331
     atom  157 type  4   force =    -0.01125548   -0.00713545   -0.00333354
     atom  158 type  5   force =     0.01116996    0.00812029    0.00383334

     Total force =     0.665051     Total SCF correction =     0.004446
 
     init_run     :      9.89s CPU     10.56s WALL (       1 calls)
     electrons    :   1872.34s CPU   1947.91s WALL (       1 calls)
     forces       :      5.78s CPU      6.29s WALL (       1 calls)
     force_london :      0.10s CPU      0.10s WALL (       1 calls)

     Called by init_run:
     wfcinit      :      5.41s CPU      5.57s WALL (       1 calls)
     potinit      :      0.76s CPU      0.93s WALL (       1 calls)
     hinit0       :      2.13s CPU      2.21s WALL (       1 calls)

     Called by electrons:
     c_bands      :   1403.15s CPU   1439.89s WALL (     115 calls)
     sum_band     :    292.00s CPU    312.61s WALL (     115 calls)
     v_of_rho     :     26.41s CPU     27.57s WALL (     116 calls)
     newd         :    109.77s CPU    126.84s WALL (     116 calls)
     mix_rho      :     38.90s CPU     39.10s WALL (     115 calls)
     energy_londo :      0.09s CPU      0.09s WALL (       1 calls)

     Called by c_bands:
     init_us_2    :      3.39s CPU      3.49s WALL (     464 calls)
     init_us_2:cp :      3.39s CPU      3.49s WALL (     464 calls)
     regterg      :   1368.95s CPU   1405.18s WALL (     231 calls)

     Called by *egterg:
     rdiaghg      :    297.72s CPU    313.31s WALL (     775 calls)
     h_psi        :    538.61s CPU    548.49s WALL (     777 calls)
     s_psi        :     87.44s CPU     87.51s WALL (     777 calls)
     g_psi        :      0.65s CPU      0.65s WALL (     544 calls)

     Called by h_psi:
     h_psi:calbec :    161.93s CPU    169.54s WALL (     777 calls)
     vloc_psi     :    288.47s CPU    289.72s WALL (     777 calls)
     add_vuspsi   :     87.20s CPU     88.20s WALL (     777 calls)

     General routines
     calbec       :    239.98s CPU    251.35s WALL (    1015 calls)
     fft          :     83.61s CPU     85.24s WALL (    2101 calls)
     ffts         :     21.23s CPU     21.28s WALL (   14369 calls)
     fftw         :    334.66s CPU    336.02s WALL (  381746 calls)
     interpolate  :      2.67s CPU      2.77s WALL (     232 calls)
 
     Parallel routines
 
     PWSCF        :  31m30.22s CPU  32m47.27s WALL

 
   This run was terminated on:  22:44:10  19Nov2025            

=------------------------------------------------------------------------------=
   JOB DONE.
=------------------------------------------------------------------------------=
