
     Program PWSCF v.6.7MaX starts on 23Oct2023 at  9:51:29 

     This program is part of the open-source Quantum ESPRESSO suite
     for quantum simulation of materials; please cite
         "P. Giannozzi et al., J. Phys.:Condens. Matter 21 395502 (2009);
         "P. Giannozzi et al., J. Phys.:Condens. Matter 29 465901 (2017);
          URL http://www.quantum-espresso.org", 
     in publications or presentations arising from this work. More details at
     http://www.quantum-espresso.org/quote

     Parallel version (MPI), running on    20 processors

     MPI processes distributed on     1 nodes
     R & G space division:  proc/nbgrp/npool/nimage =      20
     Waiting for input...
     Reading input from standard input

     Current dimensions of program PWSCF are:
     Max number of different atomic species (ntypx) = 10
     Max number of k-points (npk) =  40000
     Max angular momentum in pseudopotentials (lmaxx) =  3
     Presently no symmetry can be used with electric field

     file Ni.pbe-n-rrkjus_psl.1.0.0.UPF: wavefunction(s)  3D renormalized
     file O.pbe-rrkjus.UPF: wavefunction(s)  2S renormalized
     file H.pbe-rrkjus.UPF: wavefunction(s)  1S renormalized

     -------------------------------------------------
     Parameters for Dispersion (Grimme-D2) Correction:
     -------------------------------------------------
       atom      VdW radius       C_6     

        Ni         2.952        374.666
        P          3.222        271.980
        O          2.536         24.284
        H          1.892          4.857

     Subspace diagonalization in iterative solution of the eigenvalue problem:
     a serial algorithm will be used

 
     Parallelization info
     --------------------
     sticks:   dense  smooth     PW     G-vecs:    dense   smooth      PW
     Min         673     269     72               192489    48693    6732
     Max         674     270     73               192498    48700    6738
     Sum       13471    5389   1449              3849851   973915  134709
 


     bravais-lattice index     =            0
     lattice parameter (alat)  =      17.7231  a.u.
     unit-cell volume          =   20392.3702 (a.u.)^3
     number of atoms/cell      =          158
     number of atomic types    =            4
     number of electrons       =      1063.00
     number of Kohn-Sham states=          638
     kinetic-energy cutoff     =      50.0000  Ry
     charge density cutoff     =     500.0000  Ry
     scf convergence threshold =      1.0E-06
     mixing beta               =       0.2000
     number of iterations used =            8  plain     mixing
     Exchange-correlation=  SLA  PW   PBE  PBE
                           (   1   4   3   4   0   0   0)

     celldm(1)=  17.723132  celldm(2)=   0.000000  celldm(3)=   0.000000
     celldm(4)=   0.000000  celldm(5)=   0.000000  celldm(6)=   0.000000

     crystal axes: (cart. coord. in units of alat)
               a(1) = (   1.000000   0.000000   0.000000 )  
               a(2) = (   0.000000   1.078504   0.000000 )  
               a(3) = (   0.000000   0.000000   3.396445 )  

     reciprocal axes: (cart. coord. in units 2 pi/alat)
               b(1) = (  1.000000  0.000000  0.000000 )  
               b(2) = (  0.000000  0.927210  0.000000 )  
               b(3) = (  0.000000  0.000000  0.294425 )  


     PseudoPot. # 1 for Ni read from file:
     /home/praktikum/PSEUDO/Ni.pbe-n-rrkjus_psl.1.0.0.UPF
     MD5 check sum: 0fbcd075604c6694e0d643a0634a3f21
     Pseudo is Ultrasoft + core correction, Zval = 10.0
     Generated using "atomic" code by A. Dal Corso  v.5.1.2
     Using radial grid of 1195 points,  6 beta functions with: 
                l(1) =   0
                l(2) =   0
                l(3) =   1
                l(4) =   1
                l(5) =   2
                l(6) =   2
     Q(r) pseudized with 0 coefficients 


     PseudoPot. # 2 for P  read from file:
     /home/praktikum/PSEUDO/P.pbe-n-rrkjus_psl.1.0.0.UPF
     MD5 check sum: 4687844b46ff2552cf7009614ac2afe1
     Pseudo is Ultrasoft + core correction, Zval =  5.0
     Generated using "atomic" code by A. Dal Corso  v.5.1.2
     Using radial grid of 1147 points,  6 beta functions with: 
                l(1) =   0
                l(2) =   0
                l(3) =   1
                l(4) =   1
                l(5) =   2
                l(6) =   2
     Q(r) pseudized with 0 coefficients 


     PseudoPot. # 3 for O  read from file:
     /home/praktikum/PSEUDO/O.pbe-rrkjus.UPF
     MD5 check sum: 390ba29e75625707450f3bd3f0eb6be9
     Pseudo is Ultrasoft, Zval =  6.0
     Generated by new atomic code, or converted to UPF format
     Using radial grid of 1269 points,  4 beta functions with: 
                l(1) =   0
                l(2) =   0
                l(3) =   1
                l(4) =   1
     Q(r) pseudized with 0 coefficients 


     PseudoPot. # 4 for H  read from file:
     /home/praktikum/PSEUDO/H.pbe-rrkjus.UPF
     MD5 check sum: 7cc9d459525c9a0585f487a71c3c9563
     Pseudo is Ultrasoft, Zval =  1.0
     Generated by new atomic code, or converted to UPF format
     Using radial grid of 1061 points,  2 beta functions with: 
                l(1) =   0
                l(2) =   0
     Q(r) pseudized with 0 coefficients 


     atomic species   valence    mass     pseudopotential
        Ni            10.00    58.69340     Ni( 1.00)
        P              5.00    30.97376     P ( 1.00)
        O              6.00    15.99940     O ( 1.00)
        H              1.00     1.00794     H ( 1.00)

     Starting magnetic structure 
     atomic species   magnetization
        Ni           1.000
        P            1.000
        O            1.000
        H            0.000

     No symmetry found



   Cartesian axes

     site n.     atom                  positions (alat units)
         1           Ni  tau(   1) = (   0.2425939   0.8289547   0.1232563  )
         2           Ni  tau(   2) = (   0.4925939   0.7682479   0.4397296  )
         3           Ni  tau(   3) = (   0.0074061   0.2897028   0.1232563  )
         4           Ni  tau(   4) = (   0.2574061   0.2289960   0.4397296  )
         5           Ni  tau(   5) = (   0.0000000   1.0682273   0.2814930  )
         6           Ni  tau(   6) = (   0.2500000   0.5289753   0.2814930  )
         7           P   tau(   7) = (   0.2099015   0.9623143   0.4372472  )
         8           P   tau(   8) = (   0.4599015   0.6348883   0.1257387  )
         9           P   tau(   9) = (   0.2900985   0.0956364   0.1257387  )
        10           P   tau(  10) = (   0.0400985   0.4230624   0.4372472  )
        11           O   tau(  11) = (   0.1313289   0.8921807   0.3011581  )
        12           O   tau(  12) = (   0.3813289   0.7050219   0.2618278  )
        13           O   tau(  13) = (   0.3686711   0.1657700   0.2618278  )
        14           O   tau(  14) = (   0.1186711   0.3529288   0.3011581  )
        15           O   tau(  15) = (   0.1470808   0.8739426   0.5619197  )
        16           O   tau(  16) = (   0.3970808   0.7232600   0.0010662  )
        17           O   tau(  17) = (   0.3529192   0.1840081   0.0010662  )
        18           O   tau(  18) = (   0.1029192   0.3346907   0.5619197  )
        19           O   tau(  19) = (   0.0983097   0.5786104   0.4338456  )
        20           O   tau(  20) = (   0.3483097   1.0185922   0.1291403  )
        21           O   tau(  21) = (   0.3763566   0.4168410   0.4274499  )
        22           O   tau(  22) = (   0.1263566   0.1018578   0.1355360  )
        23           O   tau(  23) = (   0.1236434   0.6411097   0.1355360  )
        24           O   tau(  24) = (   0.4016903   0.4793403   0.1291403  )
        25           O   tau(  25) = (   0.1516903   0.0393585   0.4338456  )
        26           O   tau(  26) = (   0.3736434   0.9560929   0.4274499  )
        27           Ni  tau(  27) = (   0.2425939   0.8084016   0.7413658  )
        28           Ni  tau(  28) = (   0.4925939   0.7476948   1.0578391  )
        29           Ni  tau(  29) = (   0.0074061   0.2691497   0.7413658  )
        30           Ni  tau(  30) = (   0.2574061   0.2084429   1.0578391  )
        31           Ni  tau(  31) = (   0.0000000   1.0476741   0.8996025  )
        32           Ni  tau(  32) = (   0.2500000   0.5084222   0.8996025  )
        33           P   tau(  33) = (   0.2099015   0.9417612   1.0553567  )
        34           P   tau(  34) = (   0.4599015   0.6143352   0.7438483  )
        35           P   tau(  35) = (   0.2900985   0.0750833   0.7438483  )
        36           P   tau(  36) = (   0.0400985   0.4025093   1.0553567  )
        37           O   tau(  37) = (   0.1313289   0.8716276   0.9192676  )
        38           O   tau(  38) = (   0.3813289   0.6844688   0.8799374  )
        39           O   tau(  39) = (   0.3686711   0.1452169   0.8799374  )
        40           O   tau(  40) = (   0.1186711   0.3323757   0.9192676  )
        41           O   tau(  41) = (   0.1470808   0.8533895   1.1800292  )
        42           O   tau(  42) = (   0.3970808   0.7027069   0.6191758  )
        43           O   tau(  43) = (   0.3529192   0.1634550   0.6191758  )
        44           O   tau(  44) = (   0.1029192   0.3141376   1.1800292  )
        45           O   tau(  45) = (   0.0983097   0.5580573   1.0519551  )
        46           O   tau(  46) = (   0.3483097   0.9980391   0.7472498  )
        47           O   tau(  47) = (   0.3763566   0.3962879   1.0455594  )
        48           O   tau(  48) = (   0.1263566   0.0813047   0.7536455  )
        49           O   tau(  49) = (   0.1236434   0.6205566   0.7536455  )
        50           O   tau(  50) = (   0.4016903   0.4587872   0.7472498  )
        51           O   tau(  51) = (   0.1516903   0.0188054   1.0519551  )
        52           O   tau(  52) = (   0.3736434   0.9355398   1.0455594  )
        53           Ni  tau(  53) = (   0.2424041   0.7897793   1.3618974  )
        54           Ni  tau(  54) = (   0.4879612   0.7218564   1.6914308  )
        55           Ni  tau(  55) = (   0.0079170   0.2505787   1.3612627  )
        56           Ni  tau(  56) = (   0.2468086   0.1935142   1.6639243  )
        57           Ni  tau(  57) = (   0.0017035   1.0290340   1.5213760  )
        58           Ni  tau(  58) = (   0.2474179   0.4910684   1.5250240  )
        59           P   tau(  59) = (   0.2112199   0.9236045   1.6823438  )
        60           P   tau(  60) = (   0.4591813   0.5957823   1.3658078  )
        61           P   tau(  61) = (   0.2917127   0.0548729   1.3629876  )
        62           P   tau(  62) = (   0.0343831   0.3802729   1.6827085  )
        63           O   tau(  63) = (   0.1344982   0.8581762   1.5384087  )
        64           O   tau(  64) = (   0.3821749   0.6677915   1.5018960  )
        65           O   tau(  65) = (   0.3696684   0.1247784   1.4995401  )
        66           O   tau(  66) = (   0.1141586   0.3197959   1.5372841  )
        67           O   tau(  67) = (   0.1477250   0.8282157   1.7986512  )
        68           O   tau(  68) = (   0.3971844   0.6837803   1.2400827  )
        69           O   tau(  69) = (   0.3536769   0.1435761   1.2380891  )
        70           O   tau(  70) = (   0.0972401   0.2831089   1.7964957  )
        71           O   tau(  71) = (   0.0885696   0.5385964   1.6812115  )
        72           O   tau(  72) = (   0.3499269   0.9780557   1.3669542  )
        73           O   tau(  73) = (   0.3712541   0.3723768   1.6655885  )
        74           O   tau(  74) = (   0.1279370   0.0627700   1.3746559  )
        75           O   tau(  75) = (   0.1221086   0.6022924   1.3766974  )
        76           O   tau(  76) = (   0.4000629   0.4406261   1.3697735  )
        77           O   tau(  77) = (   0.1539963   1.0802196   1.6787776  )
        78           O   tau(  78) = (   0.3757257   0.9187392   1.6710614  )
        79           Ni  tau(  79) = (   0.7425939   0.8289547   0.1232563  )
        80           Ni  tau(  80) = (   0.9925939   0.7682479   0.4397296  )
        81           Ni  tau(  81) = (   0.5074061   0.2897028   0.1232563  )
        82           Ni  tau(  82) = (   0.7574061   0.2289960   0.4397296  )
        83           Ni  tau(  83) = (   0.5000000   1.0682273   0.2814930  )
        84           Ni  tau(  84) = (   0.7500000   0.5289753   0.2814930  )
        85           P   tau(  85) = (   0.7099015   0.9623143   0.4372472  )
        86           P   tau(  86) = (   0.9599015   0.6348883   0.1257387  )
        87           P   tau(  87) = (   0.7900985   0.0956364   0.1257387  )
        88           P   tau(  88) = (   0.5400985   0.4230624   0.4372472  )
        89           O   tau(  89) = (   0.6313289   0.8921807   0.3011581  )
        90           O   tau(  90) = (   0.8813289   0.7050219   0.2618278  )
        91           O   tau(  91) = (   0.8686711   0.1657700   0.2618278  )
        92           O   tau(  92) = (   0.6186711   0.3529288   0.3011581  )
        93           O   tau(  93) = (   0.6470808   0.8739426   0.5619197  )
        94           O   tau(  94) = (   0.8970808   0.7232600   0.0010662  )
        95           O   tau(  95) = (   0.8529192   0.1840081   0.0010662  )
        96           O   tau(  96) = (   0.6029192   0.3346907   0.5619197  )
        97           O   tau(  97) = (   0.5983097   0.5786104   0.4338456  )
        98           O   tau(  98) = (   0.8483097   1.0185922   0.1291403  )
        99           O   tau(  99) = (   0.8763566   0.4168410   0.4274499  )
       100           O   tau( 100) = (   0.6263566   0.1018578   0.1355360  )
       101           O   tau( 101) = (   0.6236434   0.6411097   0.1355360  )
       102           O   tau( 102) = (   0.9016903   0.4793403   0.1291403  )
       103           O   tau( 103) = (   0.6516903   0.0393585   0.4338456  )
       104           O   tau( 104) = (   0.8736434   0.9560929   0.4274499  )
       105           Ni  tau( 105) = (   0.7425939   0.8084016   0.7413658  )
       106           Ni  tau( 106) = (   0.9925939   0.7476948   1.0578391  )
       107           Ni  tau( 107) = (   0.5074061   0.2691497   0.7413658  )
       108           Ni  tau( 108) = (   0.7574061   0.2084429   1.0578391  )
       109           Ni  tau( 109) = (   0.5000000   1.0476741   0.8996025  )
       110           Ni  tau( 110) = (   0.7500000   0.5084222   0.8996025  )
       111           P   tau( 111) = (   0.7099015   0.9417612   1.0553567  )
       112           P   tau( 112) = (   0.9599015   0.6143352   0.7438483  )
       113           P   tau( 113) = (   0.7900985   0.0750833   0.7438483  )
       114           P   tau( 114) = (   0.5400985   0.4025093   1.0553567  )
       115           O   tau( 115) = (   0.6313289   0.8716276   0.9192676  )
       116           O   tau( 116) = (   0.8813289   0.6844688   0.8799374  )
       117           O   tau( 117) = (   0.8686711   0.1452169   0.8799374  )
       118           O   tau( 118) = (   0.6186711   0.3323757   0.9192676  )
       119           O   tau( 119) = (   0.6470808   0.8533895   1.1800292  )
       120           O   tau( 120) = (   0.8970808   0.7027069   0.6191758  )
       121           O   tau( 121) = (   0.8529192   0.1634550   0.6191758  )
       122           O   tau( 122) = (   0.6029192   0.3141376   1.1800292  )
       123           O   tau( 123) = (   0.5983097   0.5580573   1.0519551  )
       124           O   tau( 124) = (   0.8483097   0.9980391   0.7472498  )
       125           O   tau( 125) = (   0.8763566   0.3962879   1.0455594  )
       126           O   tau( 126) = (   0.6263566   0.0813047   0.7536455  )
       127           O   tau( 127) = (   0.6236434   0.6205566   0.7536455  )
       128           O   tau( 128) = (   0.9016903   0.4587872   0.7472498  )
       129           O   tau( 129) = (   0.6516903   0.0188054   1.0519551  )
       130           O   tau( 130) = (   0.8736434   0.9355398   1.0455594  )
       131           Ni  tau( 131) = (   0.7426462   0.7898639   1.3604014  )
       132           Ni  tau( 132) = (  -0.0002066   0.7318828   1.6641114  )
       133           Ni  tau( 133) = (   0.5077061   0.2501780   1.3613832  )
       134           Ni  tau( 134) = (   0.7465307   0.1894565   1.6642078  )
       135           Ni  tau( 135) = (   0.5021934   1.0264055   1.5228946  )
       136           Ni  tau( 136) = (   0.7455086   0.4886102   1.5220246  )
       137           P   tau( 137) = (   0.7116866   0.9161767   1.6766996  )
       138           P   tau( 138) = (   0.9583802   0.5938581   1.3632324  )
       139           P   tau( 139) = (   0.7914519   0.0546979   1.3621112  )
       140           P   tau( 140) = (   0.5357885   0.3763012   1.6821380  )
       141           O   tau( 141) = (   0.6346394   0.8568156   1.5335737  )
       142           O   tau( 142) = (   0.8794257   0.6646640   1.4988356  )
       143           O   tau( 143) = (   0.8695763   0.1251491   1.4988234  )
       144           O   tau( 144) = (   0.6152561   0.3146265   1.5364006  )
       145           O   tau( 145) = (   0.6515338   0.8192773   1.7930363  )
       146           O   tau( 146) = (   0.8970925   0.6818609   1.2376106  )
       147           O   tau( 147) = (   0.8535847   0.1440758   1.2378023  )
       148           O   tau( 148) = (   0.5952313   0.2763491   1.7954797  )
       149           O   tau( 149) = (   0.5957950   0.5319332   1.6778728  )
       150           O   tau( 150) = (   0.8513096   0.9784304   1.3652427  )
       151           O   tau( 151) = (   0.8698230   0.3735298   1.6681144  )
       152           O   tau( 152) = (   0.6278063   0.0613643   1.3739427  )
       153           O   tau( 153) = (   0.6230504   0.6013695   1.3747416  )
       154           O   tau( 154) = (   0.8997892   0.4387455   1.3673113  )
       155           O   tau( 155) = (   0.6572909   1.0746654   1.6784301  )
       156           O   tau( 156) = (   0.8772072   0.9129255   1.6662148  )
       157           O   tau( 157) = (   0.3752302   0.6436316   1.8273188  )
       158           H   tau( 158) = (   0.2897206   0.7019697   1.8481288  )

     number of k points=    10  Gaussian smearing, width (Ry)=  0.0100
                       cart. coord. in units 2pi/alat
        k(    1) = (   0.0000000   0.0000000   0.0000000), wk =   0.0625000
        k(    2) = (   0.0000000   0.2318026   0.0000000), wk =   0.1250000
        k(    3) = (   0.0000000  -0.4636052   0.0000000), wk =   0.0625000
        k(    4) = (   0.2500000   0.0000000   0.0000000), wk =   0.1250000
        k(    5) = (   0.2500000   0.2318026   0.0000000), wk =   0.1250000
        k(    6) = (   0.2500000  -0.4636052   0.0000000), wk =   0.1250000
        k(    7) = (   0.2500000  -0.2318026   0.0000000), wk =   0.1250000
        k(    8) = (  -0.5000000   0.0000000   0.0000000), wk =   0.0625000
        k(    9) = (  -0.5000000   0.2318026   0.0000000), wk =   0.1250000
        k(   10) = (  -0.5000000  -0.4636052   0.0000000), wk =   0.0625000

     Dense  grid:  3849851 G-vectors     FFT dimensions: ( 128, 144, 432)

     Smooth grid:   973915 G-vectors     FFT dimensions: (  80,  90, 288)

     Estimated max dynamical RAM per process >       2.95 GB

     Estimated total dynamical RAM >      59.02 GB
     Generating pointlists ...
     new r_m :   0.0797 (alat units)  1.4118 (a.u.) for type    1
     new r_m :   0.0669 (alat units)  1.1865 (a.u.) for type    2
     new r_m :   0.0436 (alat units)  0.7719 (a.u.) for type    3
     new r_m :   0.0436 (alat units)  0.7719 (a.u.) for type    4

     Initial potential from superposition of free atoms

     starting charge 1062.89078, renormalised to 1063.00000

     negative rho (up, down):  1.107E-03 4.578E-04
 
     Adding external electric field

     Computed dipole along edir(3) : 
        Dipole                1.6045 Ry au,          4.0782 Debye
        Dipole field          0.0010 Ry au, 
 
        Potential amp.       -0.1071 Ry
        Total length         54.1761 bohr
 
 
     Adding external electric field

     Computed dipole along edir(3) : 
        Dipole                1.6045 Ry au,          4.0782 Debye
        Dipole field          0.0010 Ry au, 
 
        Potential amp.       -0.1071 Ry
        Total length         54.1761 bohr
 
     Starting wfcs are  809 randomized atomic wfcs

     total cpu time spent up to now is      688.9 secs

     Self-consistent Calculation

     iteration #  1     ecut=    50.00 Ry     beta= 0.20
     Davidson diagonalization with overlap
     ethr =  1.00E-02,  avg # of iterations =  6.0

     negative rho (up, down):  4.089E-04 0.000E+00
 
     Adding external electric field

     Computed dipole along edir(3) : 
        Dipole             -127.8108 Ry au,       -324.8626 Debye
        Dipole field         -0.0788 Ry au, 
 
        Potential amp.        8.5339 Ry
        Total length         54.1761 bohr
 
 
     Adding external electric field

     Computed dipole along edir(3) : 
        Dipole             -127.8108 Ry au,       -324.8626 Debye
        Dipole field         -0.0788 Ry au, 
 
        Potential amp.        8.5339 Ry
        Total length         54.1761 bohr
 

     total cpu time spent up to now is     3821.9 secs

     total energy              =   -6643.97211662 Ry
     estimated scf accuracy    <     755.38895799 Ry

     total magnetization       =   213.00 Bohr mag/cell
     absolute magnetization    =   290.40 Bohr mag/cell

     iteration #  2     ecut=    50.00 Ry     beta= 0.20
     Davidson diagonalization with overlap
     c_bands:  4 eigenvalues not converged
     c_bands:  3 eigenvalues not converged
     ethr =  1.00E-02,  avg # of iterations = 15.5

     negative rho (up, down):  2.141E-04 0.000E+00
 
     Adding external electric field

     Computed dipole along edir(3) : 
        Dipole              -24.7615 Ry au,        -62.9374 Debye
        Dipole field         -0.0153 Ry au, 
 
        Potential amp.        1.6533 Ry
        Total length         54.1761 bohr
 
 
     Adding external electric field

     Computed dipole along edir(3) : 
        Dipole              -24.7615 Ry au,        -62.9374 Debye
        Dipole field         -0.0153 Ry au, 
 
        Potential amp.        1.6533 Ry
        Total length         54.1761 bohr
 

     total cpu time spent up to now is    11257.1 secs

     total energy              =   -6047.00030389 Ry
     estimated scf accuracy    <  181393.72896420 Ry

     total magnetization       =   126.51 Bohr mag/cell
     absolute magnetization    =   128.10 Bohr mag/cell

     iteration #  3     ecut=    50.00 Ry     beta= 0.20
     Davidson diagonalization with overlap
     ethr =  1.00E-02,  avg # of iterations = 13.1

     negative rho (up, down):  1.308E-04 0.000E+00
 
     Adding external electric field

     Computed dipole along edir(3) : 
        Dipole              -14.9310 Ry au,        -37.9508 Debye
        Dipole field         -0.0092 Ry au, 
 
        Potential amp.        0.9969 Ry
        Total length         54.1761 bohr
 
 
     Adding external electric field

     Computed dipole along edir(3) : 
        Dipole              -14.9310 Ry au,        -37.9508 Debye
        Dipole field         -0.0092 Ry au, 
 
        Potential amp.        0.9969 Ry
        Total length         54.1761 bohr
 

     total cpu time spent up to now is    18549.8 secs

     total energy              =   -6673.05927337 Ry
     estimated scf accuracy    <   17786.66560767 Ry

     total magnetization       =   155.65 Bohr mag/cell
     absolute magnetization    =   162.91 Bohr mag/cell

     iteration #  4     ecut=    50.00 Ry     beta= 0.20
     Davidson diagonalization with overlap
     ethr =  1.00E-02,  avg # of iterations = 12.1

     negative rho (up, down):  4.663E-05 0.000E+00
 
     Adding external electric field

     Computed dipole along edir(3) : 
        Dipole               -8.9214 Ry au,        -22.6758 Debye
        Dipole field         -0.0055 Ry au, 
 
        Potential amp.        0.5957 Ry
        Total length         54.1761 bohr
 
 
     Adding external electric field

     Computed dipole along edir(3) : 
        Dipole               -8.9214 Ry au,        -22.6758 Debye
        Dipole field         -0.0055 Ry au, 
 
        Potential amp.        0.5957 Ry
        Total length         54.1761 bohr
 

     total cpu time spent up to now is    23467.8 secs

     total energy              =   -6935.26269761 Ry
     estimated scf accuracy    <     556.62723480 Ry

     total magnetization       =   202.64 Bohr mag/cell
     absolute magnetization    =   220.31 Bohr mag/cell

     iteration #  5     ecut=    50.00 Ry     beta= 0.20
     Davidson diagonalization with overlap
     ethr =  1.00E-02,  avg # of iterations =  6.2

     negative rho (up, down):  4.596E-05 0.000E+00
 
     Adding external electric field

     Computed dipole along edir(3) : 
        Dipole              -12.0407 Ry au,        -30.6044 Debye
        Dipole field         -0.0074 Ry au, 
 
        Potential amp.        0.8040 Ry
        Total length         54.1761 bohr
 
 
     Adding external electric field

     Computed dipole along edir(3) : 
        Dipole              -12.0407 Ry au,        -30.6044 Debye
        Dipole field         -0.0074 Ry au, 
 
        Potential amp.        0.8040 Ry
        Total length         54.1761 bohr
 

     total cpu time spent up to now is    25640.7 secs

     total energy              =   -6962.63518915 Ry
     estimated scf accuracy    <     768.02254711 Ry

     total magnetization       =   140.41 Bohr mag/cell
     absolute magnetization    =   174.00 Bohr mag/cell

     iteration #  6     ecut=    50.00 Ry     beta= 0.20
     Davidson diagonalization with overlap
     ethr =  1.00E-02,  avg # of iterations =  2.1

     negative rho (up, down):  5.055E-05 0.000E+00
 
     Adding external electric field

     Computed dipole along edir(3) : 
        Dipole              -10.9287 Ry au,        -27.7779 Debye
        Dipole field         -0.0067 Ry au, 
 
        Potential amp.        0.7297 Ry
        Total length         54.1761 bohr
 
 
     Adding external electric field

     Computed dipole along edir(3) : 
        Dipole              -10.9287 Ry au,        -27.7779 Debye
        Dipole field         -0.0067 Ry au, 
 
        Potential amp.        0.7297 Ry
        Total length         54.1761 bohr
 

     total cpu time spent up to now is    27235.6 secs

     total energy              =   -6974.95724660 Ry
     estimated scf accuracy    <     218.67834404 Ry

     total magnetization       =   121.64 Bohr mag/cell
     absolute magnetization    =   157.62 Bohr mag/cell

     iteration #  7     ecut=    50.00 Ry     beta= 0.20
     Davidson diagonalization with overlap
     ethr =  1.00E-02,  avg # of iterations =  1.6

     negative rho (up, down):  6.308E-05 0.000E+00
 
     Adding external electric field

     Computed dipole along edir(3) : 
        Dipole               -9.9766 Ry au,        -25.3580 Debye
        Dipole field         -0.0061 Ry au, 
 
        Potential amp.        0.6661 Ry
        Total length         54.1761 bohr
 
 
     Adding external electric field

     Computed dipole along edir(3) : 
        Dipole               -9.9766 Ry au,        -25.3580 Debye
        Dipole field         -0.0061 Ry au, 
 
        Potential amp.        0.6661 Ry
        Total length         54.1761 bohr
 

     total cpu time spent up to now is    28814.6 secs

     total energy              =   -6986.04336614 Ry
     estimated scf accuracy    <     108.06499218 Ry

     total magnetization       =   100.22 Bohr mag/cell
     absolute magnetization    =   143.42 Bohr mag/cell

     iteration #  8     ecut=    50.00 Ry     beta= 0.20
     Davidson diagonalization with overlap
     ethr =  1.00E-02,  avg # of iterations =  1.4

     negative rho (up, down):  9.168E-05 0.000E+00
 
     Adding external electric field

     Computed dipole along edir(3) : 
        Dipole               -8.3563 Ry au,        -21.2395 Debye
        Dipole field         -0.0051 Ry au, 
 
        Potential amp.        0.5579 Ry
        Total length         54.1761 bohr
 
 
     Adding external electric field

     Computed dipole along edir(3) : 
        Dipole               -8.3563 Ry au,        -21.2395 Debye
        Dipole field         -0.0051 Ry au, 
 
        Potential amp.        0.5579 Ry
        Total length         54.1761 bohr
 

     total cpu time spent up to now is    30366.7 secs

     total energy              =   -7000.18982484 Ry
     estimated scf accuracy    <     113.74156055 Ry

     total magnetization       =    92.20 Bohr mag/cell
     absolute magnetization    =   136.71 Bohr mag/cell

     iteration #  9     ecut=    50.00 Ry     beta= 0.20
     Davidson diagonalization with overlap
     ethr =  1.00E-02,  avg # of iterations =  1.5

     negative rho (up, down):  1.428E-04 0.000E+00
 
     Adding external electric field

     Computed dipole along edir(3) : 
        Dipole               -5.0832 Ry au,        -12.9202 Debye
        Dipole field         -0.0031 Ry au, 
 
        Potential amp.        0.3394 Ry
        Total length         54.1761 bohr
 
 
     Adding external electric field

     Computed dipole along edir(3) : 
        Dipole               -5.0832 Ry au,        -12.9202 Debye
        Dipole field         -0.0031 Ry au, 
 
        Potential amp.        0.3394 Ry
        Total length         54.1761 bohr
 

     total cpu time spent up to now is    31933.9 secs

     total energy              =   -7021.92334258 Ry
     estimated scf accuracy    <      79.04112855 Ry

     total magnetization       =    84.72 Bohr mag/cell
     absolute magnetization    =   128.34 Bohr mag/cell

     iteration # 10     ecut=    50.00 Ry     beta= 0.20
     Davidson diagonalization with overlap
     ethr =  7.44E-03,  avg # of iterations =  1.0

     negative rho (up, down):  2.790E-04 0.000E+00
 
     Adding external electric field

     Computed dipole along edir(3) : 
        Dipole               -1.7654 Ry au,         -4.4873 Debye
        Dipole field         -0.0011 Ry au, 
 
        Potential amp.        0.1179 Ry
        Total length         54.1761 bohr
 
 
     Adding external electric field

     Computed dipole along edir(3) : 
        Dipole               -1.7654 Ry au,         -4.4873 Debye
        Dipole field         -0.0011 Ry au, 
 
        Potential amp.        0.1179 Ry
        Total length         54.1761 bohr
 

     total cpu time spent up to now is    33418.9 secs

     total energy              =   -7043.64357142 Ry
     estimated scf accuracy    <     185.69400343 Ry

     total magnetization       =    78.72 Bohr mag/cell
     absolute magnetization    =   117.19 Bohr mag/cell

     iteration # 11     ecut=    50.00 Ry     beta= 0.20
     Davidson diagonalization with overlap
     ethr =  7.44E-03,  avg # of iterations =  1.0

     negative rho (up, down):  3.085E-04 0.000E+00
 
     Adding external electric field

     Computed dipole along edir(3) : 
        Dipole               -4.0873 Ry au,        -10.3890 Debye
        Dipole field         -0.0025 Ry au, 
 
        Potential amp.        0.2729 Ry
        Total length         54.1761 bohr
 
 
     Adding external electric field

     Computed dipole along edir(3) : 
        Dipole               -4.0873 Ry au,        -10.3890 Debye
        Dipole field         -0.0025 Ry au, 
 
        Potential amp.        0.2729 Ry
        Total length         54.1761 bohr
 

     total cpu time spent up to now is    34906.1 secs

     total energy              =   -7047.99201595 Ry
     estimated scf accuracy    <     193.45992647 Ry

     total magnetization       =    62.50 Bohr mag/cell
     absolute magnetization    =    92.50 Bohr mag/cell

     iteration # 12     ecut=    50.00 Ry     beta= 0.20
     Davidson diagonalization with overlap
     ethr =  7.44E-03,  avg # of iterations =  1.0

     negative rho (up, down):  3.713E-04 0.000E+00
 
     Adding external electric field

     Computed dipole along edir(3) : 
        Dipole               -1.6354 Ry au,         -4.1567 Debye
        Dipole field         -0.0010 Ry au, 
 
        Potential amp.        0.1092 Ry
        Total length         54.1761 bohr
 
 
     Adding external electric field

     Computed dipole along edir(3) : 
        Dipole               -1.6354 Ry au,         -4.1567 Debye
        Dipole field         -0.0010 Ry au, 
 
        Potential amp.        0.1092 Ry
        Total length         54.1761 bohr
 

     total cpu time spent up to now is    36396.5 secs

     total energy              =   -7049.99251303 Ry
     estimated scf accuracy    <     183.31109828 Ry

     total magnetization       =    73.32 Bohr mag/cell
     absolute magnetization    =    98.05 Bohr mag/cell

     iteration # 13     ecut=    50.00 Ry     beta= 0.20
     Davidson diagonalization with overlap
     ethr =  7.44E-03,  avg # of iterations =  1.0

     negative rho (up, down):  4.236E-04 0.000E+00
 
     Adding external electric field

     Computed dipole along edir(3) : 
        Dipole               -2.2724 Ry au,         -5.7760 Debye
        Dipole field         -0.0014 Ry au, 
 
        Potential amp.        0.1517 Ry
        Total length         54.1761 bohr
 
 
     Adding external electric field

     Computed dipole along edir(3) : 
        Dipole               -2.2724 Ry au,         -5.7760 Debye
        Dipole field         -0.0014 Ry au, 
 
        Potential amp.        0.1517 Ry
        Total length         54.1761 bohr
 

     total cpu time spent up to now is    37886.8 secs

     total energy              =   -7052.52622723 Ry
     estimated scf accuracy    <     226.34796100 Ry

     total magnetization       =    73.00 Bohr mag/cell
     absolute magnetization    =    95.68 Bohr mag/cell

     iteration # 14     ecut=    50.00 Ry     beta= 0.20
     Davidson diagonalization with overlap
     ethr =  7.44E-03,  avg # of iterations =  1.0

     negative rho (up, down):  4.622E-04 0.000E+00
 
     Adding external electric field

     Computed dipole along edir(3) : 
        Dipole                0.0611 Ry au,          0.1553 Debye
        Dipole field          0.0000 Ry au, 
 
        Potential amp.       -0.0041 Ry
        Total length         54.1761 bohr
 
 
     Adding external electric field

     Computed dipole along edir(3) : 
        Dipole                0.0611 Ry au,          0.1553 Debye
        Dipole field          0.0000 Ry au, 
 
        Potential amp.       -0.0041 Ry
        Total length         54.1761 bohr
 

     total cpu time spent up to now is    39382.6 secs

     total energy              =   -7055.03552635 Ry
     estimated scf accuracy    <      59.37463588 Ry

     total magnetization       =    70.12 Bohr mag/cell
     absolute magnetization    =    88.41 Bohr mag/cell

     iteration # 15     ecut=    50.00 Ry     beta= 0.20
     Davidson diagonalization with overlap
     ethr =  5.59E-03,  avg # of iterations =  1.0

     negative rho (up, down):  4.575E-04 0.000E+00
 
     Adding external electric field

     Computed dipole along edir(3) : 
        Dipole               -2.0415 Ry au,         -5.1889 Debye
        Dipole field         -0.0013 Ry au, 
 
        Potential amp.        0.1363 Ry
        Total length         54.1761 bohr
 
 
     Adding external electric field

     Computed dipole along edir(3) : 
        Dipole               -2.0415 Ry au,         -5.1889 Debye
        Dipole field         -0.0013 Ry au, 
 
        Potential amp.        0.1363 Ry
        Total length         54.1761 bohr
 

     total cpu time spent up to now is    40870.6 secs

     total energy              =   -7054.96366808 Ry
     estimated scf accuracy    <      64.16497253 Ry

     total magnetization       =    72.90 Bohr mag/cell
     absolute magnetization    =    88.59 Bohr mag/cell

     iteration # 16     ecut=    50.00 Ry     beta= 0.20
     Davidson diagonalization with overlap
     ethr =  5.59E-03,  avg # of iterations =  1.0

     negative rho (up, down):  4.707E-04 0.000E+00
 
     Adding external electric field

     Computed dipole along edir(3) : 
        Dipole                0.1810 Ry au,          0.4600 Debye
        Dipole field          0.0001 Ry au, 
 
        Potential amp.       -0.0121 Ry
        Total length         54.1761 bohr
 
 
     Adding external electric field

     Computed dipole along edir(3) : 
        Dipole                0.1810 Ry au,          0.4600 Debye
        Dipole field          0.0001 Ry au, 
 
        Potential amp.       -0.0121 Ry
        Total length         54.1761 bohr
 

     total cpu time spent up to now is    42364.0 secs

     total energy              =   -7053.80397001 Ry
     estimated scf accuracy    <     131.70751101 Ry

     total magnetization       =    70.61 Bohr mag/cell
     absolute magnetization    =    86.03 Bohr mag/cell

     iteration # 17     ecut=    50.00 Ry     beta= 0.20
     Davidson diagonalization with overlap
     ethr =  5.59E-03,  avg # of iterations =  1.0

     negative rho (up, down):  5.450E-04 0.000E+00
 
     Adding external electric field

     Computed dipole along edir(3) : 
        Dipole                0.1304 Ry au,          0.3315 Debye
        Dipole field          0.0001 Ry au, 
 
        Potential amp.       -0.0087 Ry
        Total length         54.1761 bohr
 
 
     Adding external electric field

     Computed dipole along edir(3) : 
        Dipole                0.1304 Ry au,          0.3315 Debye
        Dipole field          0.0001 Ry au, 
 
        Potential amp.       -0.0087 Ry
        Total length         54.1761 bohr
 

     total cpu time spent up to now is    43848.4 secs

     total energy              =   -7054.30678498 Ry
     estimated scf accuracy    <      87.03009201 Ry

     total magnetization       =    65.45 Bohr mag/cell
     absolute magnetization    =    80.43 Bohr mag/cell

     iteration # 18     ecut=    50.00 Ry     beta= 0.20
     Davidson diagonalization with overlap
     ethr =  5.59E-03,  avg # of iterations =  1.0

     negative rho (up, down):  5.956E-04 0.000E+00
 
     Adding external electric field

     Computed dipole along edir(3) : 
        Dipole                0.4580 Ry au,          1.1642 Debye
        Dipole field          0.0003 Ry au, 
 
        Potential amp.       -0.0306 Ry
        Total length         54.1761 bohr
 
 
     Adding external electric field

     Computed dipole along edir(3) : 
        Dipole                0.4580 Ry au,          1.1642 Debye
        Dipole field          0.0003 Ry au, 
 
        Potential amp.       -0.0306 Ry
        Total length         54.1761 bohr
 

     total cpu time spent up to now is    45335.1 secs

     total energy              =   -7056.32960979 Ry
     estimated scf accuracy    <      40.77876647 Ry

     total magnetization       =    68.41 Bohr mag/cell
     absolute magnetization    =    80.43 Bohr mag/cell

     iteration # 19     ecut=    50.00 Ry     beta= 0.20
     Davidson diagonalization with overlap
     ethr =  3.84E-03,  avg # of iterations =  1.0

     negative rho (up, down):  5.372E-04 0.000E+00
 
     Adding external electric field

     Computed dipole along edir(3) : 
        Dipole                0.2667 Ry au,          0.6778 Debye
        Dipole field          0.0002 Ry au, 
 
        Potential amp.       -0.0178 Ry
        Total length         54.1761 bohr
 
 
     Adding external electric field

     Computed dipole along edir(3) : 
        Dipole                0.2667 Ry au,          0.6778 Debye
        Dipole field          0.0002 Ry au, 
 
        Potential amp.       -0.0178 Ry
        Total length         54.1761 bohr
 

     total cpu time spent up to now is    46822.3 secs

     total energy              =   -7056.86584703 Ry
     estimated scf accuracy    <      12.46927789 Ry

     total magnetization       =    72.67 Bohr mag/cell
     absolute magnetization    =    82.32 Bohr mag/cell

     iteration # 20     ecut=    50.00 Ry     beta= 0.20
     Davidson diagonalization with overlap
     ethr =  1.17E-03,  avg # of iterations =  1.4

     negative rho (up, down):  5.358E-04 0.000E+00
 
     Adding external electric field

     Computed dipole along edir(3) : 
        Dipole               -0.3291 Ry au,         -0.8365 Debye
        Dipole field         -0.0002 Ry au, 
 
        Potential amp.        0.0220 Ry
        Total length         54.1761 bohr
 
 
     Adding external electric field

     Computed dipole along edir(3) : 
        Dipole               -0.3291 Ry au,         -0.8365 Debye
        Dipole field         -0.0002 Ry au, 
 
        Potential amp.        0.0220 Ry
        Total length         54.1761 bohr
 

     total cpu time spent up to now is    48373.2 secs

     total energy              =   -7057.03741972 Ry
     estimated scf accuracy    <      10.71125148 Ry

     total magnetization       =    72.93 Bohr mag/cell
     absolute magnetization    =    82.56 Bohr mag/cell

     iteration # 21     ecut=    50.00 Ry     beta= 0.20
     Davidson diagonalization with overlap
     ethr =  1.01E-03,  avg # of iterations =  1.0

     negative rho (up, down):  5.568E-04 0.000E+00
 
     Adding external electric field

     Computed dipole along edir(3) : 
        Dipole                0.1632 Ry au,          0.4147 Debye
        Dipole field          0.0001 Ry au, 
 
        Potential amp.       -0.0109 Ry
        Total length         54.1761 bohr
 
 
     Adding external electric field

     Computed dipole along edir(3) : 
        Dipole                0.1632 Ry au,          0.4147 Debye
        Dipole field          0.0001 Ry au, 
 
        Potential amp.       -0.0109 Ry
        Total length         54.1761 bohr
 

     total cpu time spent up to now is    49876.1 secs

     total energy              =   -7057.09823876 Ry
     estimated scf accuracy    <      15.60734540 Ry

     total magnetization       =    72.64 Bohr mag/cell
     absolute magnetization    =    81.81 Bohr mag/cell

     iteration # 22     ecut=    50.00 Ry     beta= 0.20
     Davidson diagonalization with overlap
     ethr =  1.01E-03,  avg # of iterations =  1.0

     negative rho (up, down):  5.526E-04 0.000E+00
 
     Adding external electric field

     Computed dipole along edir(3) : 
        Dipole               -0.3927 Ry au,         -0.9981 Debye
        Dipole field         -0.0002 Ry au, 
 
        Potential amp.        0.0262 Ry
        Total length         54.1761 bohr
 
 
     Adding external electric field

     Computed dipole along edir(3) : 
        Dipole               -0.3927 Ry au,         -0.9981 Debye
        Dipole field         -0.0002 Ry au, 
 
        Potential amp.        0.0262 Ry
        Total length         54.1761 bohr
 

     total cpu time spent up to now is    51361.5 secs

     total energy              =   -7057.38566929 Ry
     estimated scf accuracy    <       5.64098573 Ry

     total magnetization       =    71.66 Bohr mag/cell
     absolute magnetization    =    79.84 Bohr mag/cell

     iteration # 23     ecut=    50.00 Ry     beta= 0.20
     Davidson diagonalization with overlap
     ethr =  5.31E-04,  avg # of iterations =  1.4

     negative rho (up, down):  5.499E-04 0.000E+00
 
     Adding external electric field

     Computed dipole along edir(3) : 
        Dipole                0.3313 Ry au,          0.8421 Debye
        Dipole field          0.0002 Ry au, 
 
        Potential amp.       -0.0221 Ry
        Total length         54.1761 bohr
 
 
     Adding external electric field

     Computed dipole along edir(3) : 
        Dipole                0.3313 Ry au,          0.8421 Debye
        Dipole field          0.0002 Ry au, 
 
        Potential amp.       -0.0221 Ry
        Total length         54.1761 bohr
 

     total cpu time spent up to now is    52909.7 secs

     total energy              =   -7057.42450540 Ry
     estimated scf accuracy    <       4.23034275 Ry

     total magnetization       =    72.68 Bohr mag/cell
     absolute magnetization    =    80.56 Bohr mag/cell

     iteration # 24     ecut=    50.00 Ry     beta= 0.20
     Davidson diagonalization with overlap
     ethr =  3.98E-04,  avg # of iterations =  2.1

     negative rho (up, down):  5.489E-04 0.000E+00
 
     Adding external electric field

     Computed dipole along edir(3) : 
        Dipole               -0.2287 Ry au,         -0.5814 Debye
        Dipole field         -0.0001 Ry au, 
 
        Potential amp.        0.0153 Ry
        Total length         54.1761 bohr
 
 
     Adding external electric field

     Computed dipole along edir(3) : 
        Dipole               -0.2287 Ry au,         -0.5814 Debye
        Dipole field         -0.0001 Ry au, 
 
        Potential amp.        0.0153 Ry
        Total length         54.1761 bohr
 

     total cpu time spent up to now is    54540.9 secs

     total energy              =   -7057.49029546 Ry
     estimated scf accuracy    <       6.21173324 Ry

     total magnetization       =    72.98 Bohr mag/cell
     absolute magnetization    =    80.80 Bohr mag/cell

     iteration # 25     ecut=    50.00 Ry     beta= 0.20
     Davidson diagonalization with overlap
     ethr =  3.98E-04,  avg # of iterations =  1.2

     negative rho (up, down):  5.536E-04 0.000E+00
 
     Adding external electric field

     Computed dipole along edir(3) : 
        Dipole               -0.0872 Ry au,         -0.2216 Debye
        Dipole field         -0.0001 Ry au, 
 
        Potential amp.        0.0058 Ry
        Total length         54.1761 bohr
 
 
     Adding external electric field

     Computed dipole along edir(3) : 
        Dipole               -0.0872 Ry au,         -0.2216 Debye
        Dipole field         -0.0001 Ry au, 
 
        Potential amp.        0.0058 Ry
        Total length         54.1761 bohr
 

     total cpu time spent up to now is    55919.5 secs

     total energy              =   -7057.70566759 Ry
     estimated scf accuracy    <       0.54964762 Ry

     total magnetization       =    73.00 Bohr mag/cell
     absolute magnetization    =    80.51 Bohr mag/cell

     iteration # 26     ecut=    50.00 Ry     beta= 0.20
     Davidson diagonalization with overlap
     c_bands:  1 eigenvalues not converged
     c_bands:  2 eigenvalues not converged
     c_bands:  1 eigenvalues not converged
     c_bands:  1 eigenvalues not converged
     ethr =  5.17E-05,  avg # of iterations = 17.7

     negative rho (up, down):  5.622E-04 0.000E+00
 
     Adding external electric field

     Computed dipole along edir(3) : 
        Dipole                0.1081 Ry au,          0.2748 Debye
        Dipole field          0.0001 Ry au, 
 
        Potential amp.       -0.0072 Ry
        Total length         54.1761 bohr
 
 
     Adding external electric field

     Computed dipole along edir(3) : 
        Dipole                0.1081 Ry au,          0.2748 Debye
        Dipole field          0.0001 Ry au, 
 
        Potential amp.       -0.0072 Ry
        Total length         54.1761 bohr
 

     total cpu time spent up to now is    58523.3 secs

     total energy              =   -7057.79766138 Ry
     estimated scf accuracy    <       0.29327870 Ry

     total magnetization       =    73.00 Bohr mag/cell
     absolute magnetization    =    79.69 Bohr mag/cell

     iteration # 27     ecut=    50.00 Ry     beta= 0.20
     Davidson diagonalization with overlap
     ethr =  2.76E-05,  avg # of iterations =  2.0

     negative rho (up, down):  6.031E-04 0.000E+00
 
     Adding external electric field

     Computed dipole along edir(3) : 
        Dipole                0.0169 Ry au,          0.0429 Debye
        Dipole field          0.0000 Ry au, 
 
        Potential amp.       -0.0011 Ry
        Total length         54.1761 bohr
 
 
     Adding external electric field

     Computed dipole along edir(3) : 
        Dipole                0.0169 Ry au,          0.0429 Debye
        Dipole field          0.0000 Ry au, 
 
        Potential amp.       -0.0011 Ry
        Total length         54.1761 bohr
 

     total cpu time spent up to now is    60154.6 secs

     total energy              =   -7057.90513607 Ry
     estimated scf accuracy    <       0.20928171 Ry

     total magnetization       =    72.98 Bohr mag/cell
     absolute magnetization    =    78.68 Bohr mag/cell

     iteration # 28     ecut=    50.00 Ry     beta= 0.20
     Davidson diagonalization with overlap
     ethr =  1.97E-05,  avg # of iterations =  1.9

     negative rho (up, down):  6.527E-04 1.109E-06
 
     Adding external electric field

     Computed dipole along edir(3) : 
        Dipole                0.0078 Ry au,          0.0198 Debye
        Dipole field          0.0000 Ry au, 
 
        Potential amp.       -0.0005 Ry
        Total length         54.1761 bohr
 
 
     Adding external electric field

     Computed dipole along edir(3) : 
        Dipole                0.0078 Ry au,          0.0198 Debye
        Dipole field          0.0000 Ry au, 
 
        Potential amp.       -0.0005 Ry
        Total length         54.1761 bohr
 

     total cpu time spent up to now is    61751.4 secs

     total energy              =   -7057.93817489 Ry
     estimated scf accuracy    <       0.19650055 Ry

     total magnetization       =    72.32 Bohr mag/cell
     absolute magnetization    =    76.35 Bohr mag/cell

     iteration # 29     ecut=    50.00 Ry     beta= 0.20
     Davidson diagonalization with overlap
     ethr =  1.85E-05,  avg # of iterations =  2.0

     negative rho (up, down):  9.555E-04 2.022E-03
 
     Adding external electric field

     Computed dipole along edir(3) : 
        Dipole                0.0972 Ry au,          0.2471 Debye
        Dipole field          0.0001 Ry au, 
 
        Potential amp.       -0.0065 Ry
        Total length         54.1761 bohr
 
 
     Adding external electric field

     Computed dipole along edir(3) : 
        Dipole                0.0972 Ry au,          0.2471 Debye
        Dipole field          0.0001 Ry au, 
 
        Potential amp.       -0.0065 Ry
        Total length         54.1761 bohr
 

     total cpu time spent up to now is    63363.0 secs

     total energy              =   -7057.96283105 Ry
     estimated scf accuracy    <       0.05490775 Ry

     total magnetization       =    72.88 Bohr mag/cell
     absolute magnetization    =    76.17 Bohr mag/cell

     iteration # 30     ecut=    50.00 Ry     beta= 0.20
     Davidson diagonalization with overlap
     c_bands:  1 eigenvalues not converged
     c_bands:  5 eigenvalues not converged
     c_bands:  3 eigenvalues not converged
     c_bands:  5 eigenvalues not converged
     c_bands:  3 eigenvalues not converged
     c_bands:  1 eigenvalues not converged
     c_bands:  3 eigenvalues not converged
     c_bands:  2 eigenvalues not converged
     c_bands:  2 eigenvalues not converged
     c_bands:  2 eigenvalues not converged
     c_bands:  1 eigenvalues not converged
     c_bands:  2 eigenvalues not converged
     c_bands:  1 eigenvalues not converged
     c_bands:  2 eigenvalues not converged
     c_bands:  2 eigenvalues not converged
     ethr =  5.17E-06,  avg # of iterations = 18.9

     negative rho (up, down):  1.100E-03 3.671E-03
 
     Adding external electric field

     Computed dipole along edir(3) : 
        Dipole               -0.0476 Ry au,         -0.1209 Debye
        Dipole field         -0.0000 Ry au, 
 
        Potential amp.        0.0032 Ry
        Total length         54.1761 bohr
 
 
     Adding external electric field

     Computed dipole along edir(3) : 
        Dipole               -0.0476 Ry au,         -0.1209 Debye
        Dipole field         -0.0000 Ry au, 
 
        Potential amp.        0.0032 Ry
        Total length         54.1761 bohr
 

     total cpu time spent up to now is    65998.0 secs

     total energy              =   -7057.96923780 Ry
     estimated scf accuracy    <       0.04491125 Ry

     total magnetization       =    72.53 Bohr mag/cell
     absolute magnetization    =    75.13 Bohr mag/cell

     iteration # 31     ecut=    50.00 Ry     beta= 0.20
     Davidson diagonalization with overlap
     ethr =  4.22E-06,  avg # of iterations =  3.5

     negative rho (up, down):  1.028E-03 2.821E-03
 
     Adding external electric field

     Computed dipole along edir(3) : 
        Dipole                0.0042 Ry au,          0.0106 Debye
        Dipole field          0.0000 Ry au, 
 
        Potential amp.       -0.0003 Ry
        Total length         54.1761 bohr
 
 
     Adding external electric field

     Computed dipole along edir(3) : 
        Dipole                0.0042 Ry au,          0.0106 Debye
        Dipole field          0.0000 Ry au, 
 
        Potential amp.       -0.0003 Ry
        Total length         54.1761 bohr
 

     total cpu time spent up to now is    67577.3 secs

     total energy              =   -7057.97171924 Ry
     estimated scf accuracy    <       0.02212521 Ry

     total magnetization       =    72.73 Bohr mag/cell
     absolute magnetization    =    75.01 Bohr mag/cell

     iteration # 32     ecut=    50.00 Ry     beta= 0.20
     Davidson diagonalization with overlap
     c_bands:  3 eigenvalues not converged
     c_bands:  1 eigenvalues not converged
     ethr =  2.08E-06,  avg # of iterations =  5.4

     negative rho (up, down):  1.109E-03 3.807E-03
 
     Adding external electric field

     Computed dipole along edir(3) : 
        Dipole               -0.0177 Ry au,         -0.0449 Debye
        Dipole field         -0.0000 Ry au, 
 
        Potential amp.        0.0012 Ry
        Total length         54.1761 bohr
 
 
     Adding external electric field

     Computed dipole along edir(3) : 
        Dipole               -0.0177 Ry au,         -0.0449 Debye
        Dipole field         -0.0000 Ry au, 
 
        Potential amp.        0.0012 Ry
        Total length         54.1761 bohr
 

     total cpu time spent up to now is    69331.6 secs

     total energy              =   -7057.97339250 Ry
     estimated scf accuracy    <       0.00569597 Ry

     total magnetization       =    72.75 Bohr mag/cell
     absolute magnetization    =    74.96 Bohr mag/cell

     iteration # 33     ecut=    50.00 Ry     beta= 0.20
     Davidson diagonalization with overlap
     ethr =  5.36E-07,  avg # of iterations =  2.0

     negative rho (up, down):  1.041E-03 3.006E-03
 
     Adding external electric field

     Computed dipole along edir(3) : 
        Dipole                0.0139 Ry au,          0.0354 Debye
        Dipole field          0.0000 Ry au, 
 
        Potential amp.       -0.0009 Ry
        Total length         54.1761 bohr
 
 
     Adding external electric field

     Computed dipole along edir(3) : 
        Dipole                0.0139 Ry au,          0.0354 Debye
        Dipole field          0.0000 Ry au, 
 
        Potential amp.       -0.0009 Ry
        Total length         54.1761 bohr
 

     total cpu time spent up to now is    70932.7 secs

     total energy              =   -7057.97421498 Ry
     estimated scf accuracy    <       0.00179596 Ry

     total magnetization       =    72.60 Bohr mag/cell
     absolute magnetization    =    74.66 Bohr mag/cell

     iteration # 34     ecut=    50.00 Ry     beta= 0.20
     Davidson diagonalization with overlap
     ethr =  1.69E-07,  avg # of iterations =  1.9

     negative rho (up, down):  9.671E-04 2.110E-03
 
     Adding external electric field

     Computed dipole along edir(3) : 
        Dipole               -0.0067 Ry au,         -0.0171 Debye
        Dipole field         -0.0000 Ry au, 
 
        Potential amp.        0.0004 Ry
        Total length         54.1761 bohr
 
 
     Adding external electric field

     Computed dipole along edir(3) : 
        Dipole               -0.0067 Ry au,         -0.0171 Debye
        Dipole field         -0.0000 Ry au, 
 
        Potential amp.        0.0004 Ry
        Total length         54.1761 bohr
 

     total cpu time spent up to now is    72517.6 secs

     total energy              =   -7057.97507936 Ry
     estimated scf accuracy    <       0.00147770 Ry

     total magnetization       =    72.66 Bohr mag/cell
     absolute magnetization    =    74.67 Bohr mag/cell

     iteration # 35     ecut=    50.00 Ry     beta= 0.20
     Davidson diagonalization with overlap
     c_bands:  2 eigenvalues not converged
     ethr =  1.39E-07,  avg # of iterations =  3.9

     negative rho (up, down):  9.129E-04 1.453E-03
 
     Adding external electric field

     Computed dipole along edir(3) : 
        Dipole               -0.0059 Ry au,         -0.0150 Debye
        Dipole field         -0.0000 Ry au, 
 
        Potential amp.        0.0004 Ry
        Total length         54.1761 bohr
 
 
     Adding external electric field

     Computed dipole along edir(3) : 
        Dipole               -0.0059 Ry au,         -0.0150 Debye
        Dipole field         -0.0000 Ry au, 
 
        Potential amp.        0.0004 Ry
        Total length         54.1761 bohr
 

     total cpu time spent up to now is    74441.0 secs

     total energy              =   -7057.97556100 Ry
     estimated scf accuracy    <       0.00043529 Ry

     total magnetization       =    72.63 Bohr mag/cell
     absolute magnetization    =    74.52 Bohr mag/cell

     iteration # 36     ecut=    50.00 Ry     beta= 0.20
     Davidson diagonalization with overlap
     c_bands:  1 eigenvalues not converged
     c_bands:  1 eigenvalues not converged
     c_bands:  1 eigenvalues not converged
     ethr =  4.09E-08,  avg # of iterations =  5.8

     negative rho (up, down):  8.535E-04 7.837E-04
 
     Adding external electric field

     Computed dipole along edir(3) : 
        Dipole               -0.0040 Ry au,         -0.0102 Debye
        Dipole field         -0.0000 Ry au, 
 
        Potential amp.        0.0003 Ry
        Total length         54.1761 bohr
 
 
     Adding external electric field

     Computed dipole along edir(3) : 
        Dipole               -0.0040 Ry au,         -0.0102 Debye
        Dipole field         -0.0000 Ry au, 
 
        Potential amp.        0.0003 Ry
        Total length         54.1761 bohr
 

     total cpu time spent up to now is    76558.3 secs

     total energy              =   -7057.97577296 Ry
     estimated scf accuracy    <       0.00025975 Ry

     total magnetization       =    72.64 Bohr mag/cell
     absolute magnetization    =    74.46 Bohr mag/cell

     iteration # 37     ecut=    50.00 Ry     beta= 0.20
     Davidson diagonalization with overlap
     ethr =  2.44E-08,  avg # of iterations =  3.2

     negative rho (up, down):  8.352E-04 6.116E-04
 
     Adding external electric field

     Computed dipole along edir(3) : 
        Dipole               -0.0089 Ry au,         -0.0227 Debye
        Dipole field         -0.0000 Ry au, 
 
        Potential amp.        0.0006 Ry
        Total length         54.1761 bohr
 
 
     Adding external electric field

     Computed dipole along edir(3) : 
        Dipole               -0.0089 Ry au,         -0.0227 Debye
        Dipole field         -0.0000 Ry au, 
 
        Potential amp.        0.0006 Ry
        Total length         54.1761 bohr
 

     total cpu time spent up to now is    78304.3 secs

     total energy              =   -7057.97588718 Ry
     estimated scf accuracy    <       0.00008284 Ry

     total magnetization       =    72.65 Bohr mag/cell
     absolute magnetization    =    74.44 Bohr mag/cell

     iteration # 38     ecut=    50.00 Ry     beta= 0.20
     Davidson diagonalization with overlap
     c_bands:  1 eigenvalues not converged
     c_bands:  1 eigenvalues not converged
     ethr =  7.79E-09,  avg # of iterations =  8.0

     negative rho (up, down):  8.230E-04 5.056E-04
 
     Adding external electric field

     Computed dipole along edir(3) : 
        Dipole               -0.0081 Ry au,         -0.0206 Debye
        Dipole field         -0.0000 Ry au, 
 
        Potential amp.        0.0005 Ry
        Total length         54.1761 bohr
 
 
     Adding external electric field

     Computed dipole along edir(3) : 
        Dipole               -0.0081 Ry au,         -0.0206 Debye
        Dipole field         -0.0000 Ry au, 
 
        Potential amp.        0.0005 Ry
        Total length         54.1761 bohr
 

     total cpu time spent up to now is    80831.0 secs

     total energy              =   -7057.97593072 Ry
     estimated scf accuracy    <       0.00003706 Ry

     total magnetization       =    72.64 Bohr mag/cell
     absolute magnetization    =    74.39 Bohr mag/cell

     iteration # 39     ecut=    50.00 Ry     beta= 0.20
     Davidson diagonalization with overlap
     c_bands:  1 eigenvalues not converged
     ethr =  3.49E-09,  avg # of iterations =  3.4

     negative rho (up, down):  8.218E-04 4.965E-04
 
     Adding external electric field

     Computed dipole along edir(3) : 
        Dipole               -0.0088 Ry au,         -0.0223 Debye
        Dipole field         -0.0000 Ry au, 
 
        Potential amp.        0.0006 Ry
        Total length         54.1761 bohr
 
 
     Adding external electric field

     Computed dipole along edir(3) : 
        Dipole               -0.0088 Ry au,         -0.0223 Debye
        Dipole field         -0.0000 Ry au, 
 
        Potential amp.        0.0006 Ry
        Total length         54.1761 bohr
 

     total cpu time spent up to now is    82675.5 secs

     total energy              =   -7057.97594615 Ry
     estimated scf accuracy    <       0.00003240 Ry

     total magnetization       =    72.65 Bohr mag/cell
     absolute magnetization    =    74.38 Bohr mag/cell

     iteration # 40     ecut=    50.00 Ry     beta= 0.20
     Davidson diagonalization with overlap
     ethr =  3.05E-09,  avg # of iterations =  1.9

     negative rho (up, down):  8.213E-04 4.928E-04
 
     Adding external electric field

     Computed dipole along edir(3) : 
        Dipole               -0.0095 Ry au,         -0.0240 Debye
        Dipole field         -0.0000 Ry au, 
 
        Potential amp.        0.0006 Ry
        Total length         54.1761 bohr
 
 
     Adding external electric field

     Computed dipole along edir(3) : 
        Dipole               -0.0095 Ry au,         -0.0240 Debye
        Dipole field         -0.0000 Ry au, 
 
        Potential amp.        0.0006 Ry
        Total length         54.1761 bohr
 

     total cpu time spent up to now is    84350.7 secs

     total energy              =   -7057.97595574 Ry
     estimated scf accuracy    <       0.00001044 Ry

     total magnetization       =    72.65 Bohr mag/cell
     absolute magnetization    =    74.37 Bohr mag/cell

     iteration # 41     ecut=    50.00 Ry     beta= 0.20
     Davidson diagonalization with overlap
     c_bands:  1 eigenvalues not converged
     ethr =  9.82E-10,  avg # of iterations =  8.4

     negative rho (up, down):  8.233E-04 5.092E-04
 
     Adding external electric field

     Computed dipole along edir(3) : 
        Dipole               -0.0110 Ry au,         -0.0279 Debye
        Dipole field         -0.0000 Ry au, 
 
        Potential amp.        0.0007 Ry
        Total length         54.1761 bohr
 
 
     Adding external electric field

     Computed dipole along edir(3) : 
        Dipole               -0.0110 Ry au,         -0.0279 Debye
        Dipole field         -0.0000 Ry au, 
 
        Potential amp.        0.0007 Ry
        Total length         54.1761 bohr
 

     total cpu time spent up to now is    86978.6 secs

     total energy              =   -7057.97596125 Ry
     estimated scf accuracy    <       0.00000388 Ry

     total magnetization       =    72.65 Bohr mag/cell
     absolute magnetization    =    74.35 Bohr mag/cell

     iteration # 42     ecut=    50.00 Ry     beta= 0.20
     Davidson diagonalization with overlap
     ethr =  3.65E-10,  avg # of iterations =  4.0

     negative rho (up, down):  8.238E-04 5.142E-04
 
     Adding external electric field

     Computed dipole along edir(3) : 
        Dipole               -0.0090 Ry au,         -0.0228 Debye
        Dipole field         -0.0000 Ry au, 
 
        Potential amp.        0.0006 Ry
        Total length         54.1761 bohr
 
 
     Adding external electric field

     Computed dipole along edir(3) : 
        Dipole               -0.0090 Ry au,         -0.0228 Debye
        Dipole field         -0.0000 Ry au, 
 
        Potential amp.        0.0006 Ry
        Total length         54.1761 bohr
 

     total cpu time spent up to now is    89208.5 secs

     total energy              =   -7057.97596242 Ry
     estimated scf accuracy    <       0.00000598 Ry

     total magnetization       =    72.65 Bohr mag/cell
     absolute magnetization    =    74.35 Bohr mag/cell

     iteration # 43     ecut=    50.00 Ry     beta= 0.20
     Davidson diagonalization with overlap
     ethr =  3.65E-10,  avg # of iterations =  1.1

     negative rho (up, down):  8.245E-04 5.195E-04
 
     Adding external electric field

     Computed dipole along edir(3) : 
        Dipole               -0.0102 Ry au,         -0.0259 Debye
        Dipole field         -0.0000 Ry au, 
 
        Potential amp.        0.0007 Ry
        Total length         54.1761 bohr
 
 
     Adding external electric field

     Computed dipole along edir(3) : 
        Dipole               -0.0102 Ry au,         -0.0259 Debye
        Dipole field         -0.0000 Ry au, 
 
        Potential amp.        0.0007 Ry
        Total length         54.1761 bohr
 

     total cpu time spent up to now is    90717.6 secs

     total energy              =   -7057.97596299 Ry
     estimated scf accuracy    <       0.00000286 Ry

     total magnetization       =    72.64 Bohr mag/cell
     absolute magnetization    =    74.34 Bohr mag/cell

     iteration # 44     ecut=    50.00 Ry     beta= 0.20
     Davidson diagonalization with overlap
     ethr =  2.69E-10,  avg # of iterations =  1.2

     negative rho (up, down):  8.253E-04 5.258E-04
 
     Adding external electric field

     Computed dipole along edir(3) : 
        Dipole                0.0062 Ry au,          0.0157 Debye
        Dipole field          0.0000 Ry au, 
 
        Potential amp.       -0.0004 Ry
        Total length         54.1761 bohr
 
 
     Adding external electric field

     Computed dipole along edir(3) : 
        Dipole                0.0062 Ry au,          0.0157 Debye
        Dipole field          0.0000 Ry au, 
 
        Potential amp.       -0.0004 Ry
        Total length         54.1761 bohr
 
 
     Magnetic moment per site:
     atom:    1    charge:    7.1125    magn:    1.4606    constr:    0.0000
     atom:    2    charge:    7.1019    magn:    1.5481    constr:    0.0000
     atom:    3    charge:    7.1125    magn:    1.4607    constr:    0.0000
     atom:    4    charge:    7.1019    magn:    1.5480    constr:    0.0000
     atom:    5    charge:    7.1213    magn:    1.5047    constr:    0.0000
     atom:    6    charge:    7.1213    magn:    1.5047    constr:    0.0000
     atom:    7    charge:    0.8200    magn:    0.0061    constr:    0.0000
     atom:    8    charge:    0.8228    magn:    0.0031    constr:    0.0000
     atom:    9    charge:    0.8228    magn:    0.0031    constr:    0.0000
     atom:   10    charge:    0.8200    magn:    0.0061    constr:    0.0000
     atom:   11    charge:    1.9784    magn:    0.0781    constr:    0.0000
     atom:   12    charge:    1.9782    magn:    0.0985    constr:    0.0000
     atom:   13    charge:    1.9782    magn:    0.0985    constr:    0.0000
     atom:   14    charge:    1.9784    magn:    0.0781    constr:    0.0000
     atom:   15    charge:    1.9861    magn:    0.0569    constr:    0.0000
     atom:   16    charge:    1.9684    magn:    0.0502    constr:    0.0000
     atom:   17    charge:    1.9684    magn:    0.0503    constr:    0.0000
     atom:   18    charge:    1.9861    magn:    0.0569    constr:    0.0000
     atom:   19    charge:    1.9846    magn:    0.0574    constr:    0.0000
     atom:   20    charge:    1.9793    magn:    0.0544    constr:    0.0000
     atom:   21    charge:    1.9857    magn:    0.0490    constr:    0.0000
     atom:   22    charge:    1.9847    magn:    0.0486    constr:    0.0000
     atom:   23    charge:    1.9847    magn:    0.0486    constr:    0.0000
     atom:   24    charge:    1.9793    magn:    0.0544    constr:    0.0000
     atom:   25    charge:    1.9846    magn:    0.0574    constr:    0.0000
     atom:   26    charge:    1.9857    magn:    0.0490    constr:    0.0000
     atom:   27    charge:    7.1042    magn:    1.5419    constr:    0.0000
     atom:   28    charge:    7.1034    magn:    1.5421    constr:    0.0000
     atom:   29    charge:    7.1042    magn:    1.5421    constr:    0.0000
     atom:   30    charge:    7.1037    magn:    1.5415    constr:    0.0000
     atom:   31    charge:    7.1229    magn:    1.5030    constr:    0.0000
     atom:   32    charge:    7.1229    magn:    1.5028    constr:    0.0000
     atom:   33    charge:    0.8200    magn:    0.0062    constr:    0.0000
     atom:   34    charge:    0.8202    magn:    0.0063    constr:    0.0000
     atom:   35    charge:    0.8202    magn:    0.0063    constr:    0.0000
     atom:   36    charge:    0.8200    magn:    0.0062    constr:    0.0000
     atom:   37    charge:    1.9788    magn:    0.0813    constr:    0.0000
     atom:   38    charge:    1.9788    magn:    0.0811    constr:    0.0000
     atom:   39    charge:    1.9788    magn:    0.0812    constr:    0.0000
     atom:   40    charge:    1.9788    magn:    0.0814    constr:    0.0000
     atom:   41    charge:    1.9855    magn:    0.0573    constr:    0.0000
     atom:   42    charge:    1.9856    magn:    0.0571    constr:    0.0000
     atom:   43    charge:    1.9856    magn:    0.0571    constr:    0.0000
     atom:   44    charge:    1.9858    magn:    0.0567    constr:    0.0000
     atom:   45    charge:    1.9852    magn:    0.0572    constr:    0.0000
     atom:   46    charge:    1.9847    magn:    0.0572    constr:    0.0000
     atom:   47    charge:    1.9859    magn:    0.0490    constr:    0.0000
     atom:   48    charge:    1.9856    magn:    0.0489    constr:    0.0000
     atom:   49    charge:    1.9856    magn:    0.0489    constr:    0.0000
     atom:   50    charge:    1.9847    magn:    0.0572    constr:    0.0000
     atom:   51    charge:    1.9852    magn:    0.0571    constr:    0.0000
     atom:   52    charge:    1.9859    magn:    0.0489    constr:    0.0000
     atom:   53    charge:    7.0990    magn:    1.5513    constr:    0.0000
     atom:   54    charge:    7.0542    magn:    1.6931    constr:    0.0000
     atom:   55    charge:    7.1011    magn:    1.5444    constr:    0.0000
     atom:   56    charge:    7.1131    magn:    1.4634    constr:    0.0000
     atom:   57    charge:    7.1208    magn:    1.4984    constr:    0.0000
     atom:   58    charge:    7.1181    magn:    1.5035    constr:    0.0000
     atom:   59    charge:    0.8177    magn:    0.0042    constr:    0.0000
     atom:   60    charge:    0.8190    magn:    0.0061    constr:    0.0000
     atom:   61    charge:    0.8206    magn:    0.0061    constr:    0.0000
     atom:   62    charge:    0.8174    magn:    0.0043    constr:    0.0000
     atom:   63    charge:    1.9763    magn:    0.1010    constr:    0.0000
     atom:   64    charge:    1.9765    magn:    0.0848    constr:    0.0000
     atom:   65    charge:    1.9796    magn:    0.0762    constr:    0.0000
     atom:   66    charge:    1.9736    magn:    0.1056    constr:    0.0000
     atom:   67    charge:    1.9774    magn:    0.0399    constr:    0.0000
     atom:   68    charge:    1.9845    magn:    0.0579    constr:    0.0000
     atom:   69    charge:    1.9837    magn:    0.0553    constr:    0.0000
     atom:   70    charge:    1.9731    magn:    0.0454    constr:    0.0000
     atom:   71    charge:    1.9791    magn:    0.0541    constr:    0.0000
     atom:   72    charge:    1.9833    magn:    0.0570    constr:    0.0000
     atom:   73    charge:    1.9843    magn:    0.0506    constr:    0.0000
     atom:   74    charge:    1.9856    magn:    0.0482    constr:    0.0000
     atom:   75    charge:    1.9851    magn:    0.0475    constr:    0.0000
     atom:   76    charge:    1.9826    magn:    0.0590    constr:    0.0000
     atom:   77    charge:    1.9797    magn:    0.0537    constr:    0.0000
     atom:   78    charge:    1.9828    magn:    0.0566    constr:    0.0000
     atom:   79    charge:    7.1125    magn:    1.4606    constr:    0.0000
     atom:   80    charge:    7.1019    magn:    1.5481    constr:    0.0000
     atom:   81    charge:    7.1126    magn:    1.4606    constr:    0.0000
     atom:   82    charge:    7.1019    magn:    1.5481    constr:    0.0000
     atom:   83    charge:    7.1213    magn:    1.5047    constr:    0.0000
     atom:   84    charge:    7.1213    magn:    1.5047    constr:    0.0000
     atom:   85    charge:    0.8200    magn:    0.0061    constr:    0.0000
     atom:   86    charge:    0.8228    magn:    0.0031    constr:    0.0000
     atom:   87    charge:    0.8228    magn:    0.0031    constr:    0.0000
     atom:   88    charge:    0.8200    magn:    0.0061    constr:    0.0000
     atom:   89    charge:    1.9784    magn:    0.0781    constr:    0.0000
     atom:   90    charge:    1.9782    magn:    0.0985    constr:    0.0000
     atom:   91    charge:    1.9782    magn:    0.0985    constr:    0.0000
     atom:   92    charge:    1.9784    magn:    0.0781    constr:    0.0000
     atom:   93    charge:    1.9861    magn:    0.0569    constr:    0.0000
     atom:   94    charge:    1.9684    magn:    0.0502    constr:    0.0000
     atom:   95    charge:    1.9684    magn:    0.0502    constr:    0.0000
     atom:   96    charge:    1.9861    magn:    0.0569    constr:    0.0000
     atom:   97    charge:    1.9846    magn:    0.0574    constr:    0.0000
     atom:   98    charge:    1.9793    magn:    0.0544    constr:    0.0000
     atom:   99    charge:    1.9857    magn:    0.0490    constr:    0.0000
     atom:  100    charge:    1.9847    magn:    0.0486    constr:    0.0000
     atom:  101    charge:    1.9847    magn:    0.0486    constr:    0.0000
     atom:  102    charge:    1.9793    magn:    0.0544    constr:    0.0000
     atom:  103    charge:    1.9846    magn:    0.0574    constr:    0.0000
     atom:  104    charge:    1.9857    magn:    0.0490    constr:    0.0000
     atom:  105    charge:    7.1041    magn:    1.5423    constr:    0.0000
     atom:  106    charge:    7.1037    magn:    1.5422    constr:    0.0000
     atom:  107    charge:    7.1042    magn:    1.5421    constr:    0.0000
     atom:  108    charge:    7.1037    magn:    1.5423    constr:    0.0000
     atom:  109    charge:    7.1229    magn:    1.5029    constr:    0.0000
     atom:  110    charge:    7.1228    magn:    1.5033    constr:    0.0000
     atom:  111    charge:    0.8201    magn:    0.0062    constr:    0.0000
     atom:  112    charge:    0.8202    magn:    0.0063    constr:    0.0000
     atom:  113    charge:    0.8202    magn:    0.0063    constr:    0.0000
     atom:  114    charge:    0.8199    magn:    0.0062    constr:    0.0000
     atom:  115    charge:    1.9788    magn:    0.0816    constr:    0.0000
     atom:  116    charge:    1.9788    magn:    0.0813    constr:    0.0000
     atom:  117    charge:    1.9788    magn:    0.0813    constr:    0.0000
     atom:  118    charge:    1.9788    magn:    0.0814    constr:    0.0000
     atom:  119    charge:    1.9858    magn:    0.0568    constr:    0.0000
     atom:  120    charge:    1.9856    magn:    0.0572    constr:    0.0000
     atom:  121    charge:    1.9856    magn:    0.0572    constr:    0.0000
     atom:  122    charge:    1.9856    magn:    0.0567    constr:    0.0000
     atom:  123    charge:    1.9851    magn:    0.0571    constr:    0.0000
     atom:  124    charge:    1.9847    magn:    0.0572    constr:    0.0000
     atom:  125    charge:    1.9859    magn:    0.0490    constr:    0.0000
     atom:  126    charge:    1.9856    magn:    0.0489    constr:    0.0000
     atom:  127    charge:    1.9856    magn:    0.0489    constr:    0.0000
     atom:  128    charge:    1.9847    magn:    0.0572    constr:    0.0000
     atom:  129    charge:    1.9852    magn:    0.0571    constr:    0.0000
     atom:  130    charge:    1.9859    magn:    0.0490    constr:    0.0000
     atom:  131    charge:    7.1025    magn:    1.5408    constr:    0.0000
     atom:  132    charge:    7.1140    magn:    1.4707    constr:    0.0000
     atom:  133    charge:    7.1005    magn:    1.5461    constr:    0.0000
     atom:  134    charge:    7.1126    magn:    1.4598    constr:    0.0000
     atom:  135    charge:    7.1180    magn:    1.4950    constr:    0.0000
     atom:  136    charge:    7.1168    magn:    1.5054    constr:    0.0000
     atom:  137    charge:    0.8181    magn:    0.0051    constr:    0.0000
     atom:  138    charge:    0.8202    magn:    0.0061    constr:    0.0000
     atom:  139    charge:    0.8202    magn:    0.0059    constr:    0.0000
     atom:  140    charge:    0.8175    magn:    0.0040    constr:    0.0000
     atom:  141    charge:    1.9785    magn:    0.0786    constr:    0.0000
     atom:  142    charge:    1.9782    magn:    0.0786    constr:    0.0000
     atom:  143    charge:    1.9786    magn:    0.0775    constr:    0.0000
     atom:  144    charge:    1.9744    magn:    0.1089    constr:    0.0000
     atom:  145    charge:    1.9769    magn:    0.0609    constr:    0.0000
     atom:  146    charge:    1.9845    magn:    0.0545    constr:    0.0000
     atom:  147    charge:    1.9846    magn:    0.0558    constr:    0.0000
     atom:  148    charge:    1.9743    magn:    0.0449    constr:    0.0000
     atom:  149    charge:    1.9799    magn:    0.0658    constr:    0.0000
     atom:  150    charge:    1.9837    magn:    0.0579    constr:    0.0000
     atom:  151    charge:    1.9816    magn:    0.0483    constr:    0.0000
     atom:  152    charge:    1.9837    magn:    0.0485    constr:    0.0000
     atom:  153    charge:    1.9852    magn:    0.0498    constr:    0.0000
     atom:  154    charge:    1.9832    magn:    0.0565    constr:    0.0000
     atom:  155    charge:    1.9807    magn:    0.0555    constr:    0.0000
     atom:  156    charge:    1.9826    magn:    0.0512    constr:    0.0000
     atom:  157    charge:    1.9638    magn:    0.2224    constr:    0.0000
     atom:  158    charge:    0.3965    magn:   -0.0017    constr:    0.0000

     total cpu time spent up to now is    92216.5 secs

     End of self-consistent calculation

 ------ SPIN UP ------------


          k = 0.0000 0.0000 0.0000 (121819 PWs)   bands (ev):

   -21.4428 -21.3065 -21.2464 -21.2164 -21.1817 -21.1789 -21.1735 -21.1288
   -21.1020 -21.0993 -21.0778 -21.0232 -21.0187 -20.9937 -20.9540 -20.9364
   -20.8193 -20.8164 -20.7844 -20.7161 -20.7046 -20.6735 -20.6118 -20.5775
   -19.0290 -19.0277 -18.9795 -18.9720 -18.9375 -18.9197 -18.9074 -18.8985
   -18.8747 -18.8235 -18.8152 -18.8145 -18.7749 -18.7692 -18.7467 -18.7370
   -18.7273 -18.7175 -18.7132 -18.7104 -18.7002 -18.6968 -18.6800 -18.6687
   -18.6652 -18.6543 -18.6427 -18.6268 -18.6160 -18.5959 -18.5729 -18.5721
   -18.5718 -18.5666 -18.5516 -18.5470 -18.5412 -18.5314 -18.5228 -18.5086
   -18.5051 -18.4961 -18.4913 -18.4808 -18.4785 -18.4757 -18.4554 -18.4469
   -18.4427 -18.4368 -18.4354 -18.4186 -18.3887 -18.3875 -18.3697 -18.3614
   -18.3380 -18.3377 -18.3260 -18.3046 -18.3038 -18.2389 -18.1836 -18.1382
[...]
    -6.1334  -6.1072  -6.1036  -6.0975  -6.0852  -6.0392  -6.0336  -6.0305
    -6.0291  -6.0067  -6.0001  -5.9913  -5.9891  -5.9145  -5.9074  -5.9024
    -5.8957  -5.8724  -5.8717  -5.8526  -5.8428  -5.7644  -5.7639  -5.7580
    -5.7533  -5.6731  -5.6662  -5.6639  -5.6507  -5.5603  -5.5277  -5.4989
    -5.4936  -5.4578  -5.4481  -5.4175  -5.4122  -5.4045  -5.4023  -5.3843
    -5.3543  -5.1363  -4.9812  -4.9787  -4.9748  -4.9694  -4.9379  -4.9274
    -4.9072  -4.8066  -4.7375  -4.7363  -4.7331  -4.7165  -4.6417  -4.6389
    -4.6311  -4.6271  -4.5979  -4.5808  -4.5716  -4.5328  -4.3898  -4.3888
    -4.3880  -4.3757  -4.3282  -4.3104  -4.3086  -4.2860  -4.2430  -4.2343
    -4.2255  -4.2048  -4.1666  -4.1560  -4.1485  -4.1063  -3.9863  -3.9767
    -3.9731  -3.9537  -3.9061  -3.9009  -3.8844  -3.8454  -3.7767  -3.7733
    -3.7704  -3.7551  -3.7207  -3.7140  -3.7114  -3.7052  -3.6924  -3.6842
    -3.6832  -3.6710  -3.6188  -3.6145  -3.6127  -3.6064  -3.5544  -3.5360
    -3.5227  -3.5146  -3.4420  -3.4339  -3.4297  -3.4157  -3.4000  -3.3879
    -3.3793  -3.3677  -3.2969  -3.2926  -3.2879  -3.2777  -3.2666  -3.2569
    -3.2530  -3.2490  -3.1807  -3.1782  -3.1730  -3.1706  -3.0285  -3.0128
    -3.0030  -2.9974  -2.9621  -2.9543  -2.9383  -2.9309  -2.9024  -2.8984
    -2.8845  -2.8719  -2.7903  -2.7801  -2.7754  -2.7698  -2.7602  -2.7363
    -2.7308  -2.7089  -2.6833  -2.6635  -2.6608  -2.6440  -2.6367  -2.6188
    -2.6149  -2.5938  -2.5881  -2.5845  -2.5780  -2.5648  -2.5204  -2.5183
    -2.5058  -2.4967  -2.4876  -2.4819  -2.4774  -2.4726  -2.4623  -2.4609
    -2.4450  -2.4109  -2.3535  -2.3524  -2.3472  -2.3228  -2.2851  -2.2788
    -2.2698  -2.2573  -2.2528  -2.2413  -2.2288  -2.2233  -2.1889  -2.1795
    -2.1751  -2.1730  -2.0677  -2.0537  -2.0477  -2.0408  -1.9970  -1.9712
    -1.9586  -1.9503  -1.9435  -1.9423  -1.9393  -1.9304  -1.9120  -1.9044
    -1.9014  -1.8796  -1.7988  -1.7831  -1.7815  -1.7780  -1.7712  -1.7573
    -1.7566  -1.7340  -1.6999  -1.6112  -1.6107  -1.6079  -1.5960  -1.5575
    -1.5342  -1.5221  -1.4960  -1.4880  -1.4646  -1.4530  -1.4449  -1.4102
    -1.3926  -1.3865  -1.2989  -1.2591  -1.2500  -1.2471  -1.2175  -1.2075
    -1.2062  -1.2058  -1.1921  -1.0372  -0.9795  -0.9240  -0.8606  -0.6783
    -0.6782  -0.6782  -0.6781  -0.6599   0.1340   0.1404   0.1417   0.1428
     0.1609   0.1760   0.1786   0.1827   0.1934   0.2046   0.2097   0.2130
     0.2229   0.2277   0.2291   0.2343   0.2387   0.2481   0.2553   0.2607
     0.2685   0.2756   0.2818   0.2915   0.2952   0.2979   0.2997   0.3009
     0.3083   0.3194   0.3216   0.3265   0.3373   0.3644   0.3664   0.3672
     0.3708   0.3724   0.3784   0.3868   0.3897   0.3931   0.3947   0.4006
     0.4021   0.4125   0.4163   0.4334   0.4444   0.4503   0.4529   0.4568
     0.4626   0.4702   0.4757   0.4821   0.4862   0.4914   0.4929   0.5011
     0.5037   0.5089   0.5134   0.5149   0.5270   0.5291   0.5297   0.5422
     0.5429   0.5457   0.5598   0.5783   0.5871   0.5945   0.5997   0.6071
     0.6224   0.6309   0.6337   0.6426   0.6483   0.6587   0.6651   0.6860
     0.6890   0.6923   0.6974   0.7142   0.7172   0.7249   0.7307   0.7497
     0.7599   0.7656   0.7680   0.7845   0.7889   0.7921   0.7968   0.8000
     0.8160   0.8229   0.8300   0.8304   0.8320   0.8331   0.8534   1.2962
     1.4224   1.4225   1.4225   1.4226   1.5087   1.5654   1.5756   1.6746
     1.8269   1.8346   1.8418   1.8436   1.8675   1.8695   1.8767   1.8839
     1.9659   1.9736   1.9766   1.9871   2.0268   2.0343   2.0350   2.0500
     2.0578   2.0641   2.0696   2.0723   2.0829   2.0880   2.0886   2.0908
     2.0969   2.1160   2.1247   2.1268   2.1906   2.2101   2.2161   2.2274
     2.2342   2.2459   2.2546   2.2885   2.3007   2.3035   2.3053   2.3288
     2.3445   2.3490   2.3599   2.3919   2.4199   2.4724   2.4768   2.4959
     2.5084   2.5258   2.5340   2.5444   2.5776   2.6124   2.6168   2.6208
     2.6333   2.6445   2.6463   2.6508   2.6552   2.6820   2.7036   2.7147
     5.7250   5.7253   5.7264   5.7293   5.9081   5.9176   5.9501   6.0945
     6.2884   6.2921   6.3103   6.4916   6.7893   6.8008   6.8117   6.9353
     7.1110   7.1257   7.1286   7.2693   7.3297   7.3376   7.3487   7.4304
     7.6331   7.6412   7.6427   7.7162   7.8461   7.8522   7.8579   7.8698
     7.9204   7.9239   7.9367   7.9781   8.0637   8.0761   8.0935   8.1525
     8.1677   8.1774   8.1952   8.2445   8.2880   8.2932   8.3065   8.3146
     8.3213   8.3315   8.3385   8.3435   8.3481   8.3694   8.3811   8.4016
     8.4441   8.4509   8.4799   8.4944   8.5241   8.5304   8.5526   8.6686
     8.6851   8.6869   8.6882   8.7088   8.7329   8.7548

     the Fermi energy is     1.1904 ev

!    total energy              =   -7057.97596305 Ry
     estimated scf accuracy    <       0.00000072 Ry
     smearing contrib. (-TS)   =      -0.00480413 Ry
     internal energy E=F+TS    =   -7057.97115891 Ry

     The total energy is F=E-TS. E is the sum of the following terms:
     one-electron contribution =  -89075.00300701 Ry
     hartree contribution      =   45215.24443086 Ry
     xc contribution           =   -2299.50632877 Ry
     ewald contribution        =   39103.13226969 Ry
     Dispersion Correction     =      -1.83852371 Ry
     electric field correction =       0.00000002 Ry

     total magnetization       =    72.64 Bohr mag/cell
     absolute magnetization    =    74.34 Bohr mag/cell

     convergence has been achieved in  44 iterations

     negative rho (up, down):  8.253E-04 5.258E-04

     Forces acting on atoms (cartesian axes, Ry/au):

     atom    1 type  1   force =     0.02946668   -0.01707435    0.01854493
     atom    2 type  1   force =    -0.00358877    0.00060744   -0.00169055
     atom    3 type  1   force =    -0.02946118   -0.01707975    0.01854398
     atom    4 type  1   force =     0.00356728    0.00059907   -0.00171163
     atom    5 type  1   force =    -0.00319819    0.00472752   -0.00116061
     atom    6 type  1   force =     0.00318811    0.00472089   -0.00114693
     atom    7 type  2   force =     0.00168132    0.00072056   -0.00107305
     atom    8 type  2   force =    -0.03165033    0.04267229   -0.07508782
     atom    9 type  2   force =     0.03164789    0.04267060   -0.07508767
     atom   10 type  2   force =    -0.00169508    0.00073914   -0.00107379
     atom   11 type  3   force =    -0.00195266   -0.00012124   -0.00199773
     atom   12 type  3   force =    -0.00564659   -0.00005694    0.02482315
     atom   13 type  3   force =     0.00563231   -0.00006141    0.02483394
     atom   14 type  3   force =     0.00194642   -0.00012639   -0.00199579
     atom   15 type  3   force =    -0.00061064   -0.00122044    0.00009509
     atom   16 type  3   force =     0.00731773   -0.00032914    0.02908965
     atom   17 type  3   force =    -0.00732928   -0.00033329    0.02908647
     atom   18 type  3   force =     0.00061562   -0.00123328    0.00009768
     atom   19 type  3   force =    -0.00024350   -0.00001678    0.00068083
     atom   20 type  3   force =    -0.01352999   -0.03055214   -0.00104603
     atom   21 type  3   force =     0.00006577   -0.00068010    0.00147352
     atom   22 type  3   force =    -0.01855818    0.00080487    0.00214947
     atom   23 type  3   force =     0.01855454    0.00080094    0.00214786
     atom   24 type  3   force =     0.01351640   -0.03054668   -0.00104643
     atom   25 type  3   force =     0.00024308   -0.00000699    0.00068274
     atom   26 type  3   force =    -0.00007440   -0.00067633    0.00147360
     atom   27 type  1   force =     0.00002949   -0.00012320   -0.00019518
     atom   28 type  1   force =    -0.00126637   -0.00102778    0.00523285
     atom   29 type  1   force =    -0.00005786   -0.00012007   -0.00019237
     atom   30 type  1   force =     0.00068949   -0.00025412    0.00238848
     atom   31 type  1   force =    -0.00009292   -0.00010081    0.00038707
     atom   32 type  1   force =     0.00000248   -0.00007377    0.00042667
     atom   33 type  2   force =     0.00009880   -0.00074432    0.00139103
     atom   34 type  2   force =    -0.00002438    0.00012230   -0.00001647
     atom   35 type  2   force =     0.00008422    0.00011988   -0.00011033
     atom   36 type  2   force =    -0.00017826   -0.00031515    0.00148292
     atom   37 type  3   force =    -0.00034333   -0.00013464   -0.00029028
     atom   38 type  3   force =    -0.00032831    0.00023355    0.00003827
     atom   39 type  3   force =     0.00023389    0.00023041    0.00001145
     atom   40 type  3   force =     0.00038659   -0.00032985   -0.00028555
     atom   41 type  3   force =     0.00172758   -0.00091545    0.00274057
     atom   42 type  3   force =    -0.00015071    0.00044684    0.00010263
     atom   43 type  3   force =     0.00012295    0.00043368    0.00010149
     atom   44 type  3   force =    -0.00098139    0.00031620    0.00099696
     atom   45 type  3   force =    -0.00003334    0.00057310    0.00006640
     atom   46 type  3   force =    -0.00019660   -0.00011858    0.00023231
     atom   47 type  3   force =    -0.00075008   -0.00005903    0.00008123
     atom   48 type  3   force =    -0.00028398    0.00019658    0.00003228
     atom   49 type  3   force =     0.00032260    0.00020500    0.00002017
     atom   50 type  3   force =     0.00016020   -0.00012778    0.00021615
     atom   51 type  3   force =     0.00055582    0.00067475    0.00023055
     atom   52 type  3   force =     0.00041532   -0.00009504   -0.00021279
     atom   53 type  1   force =    -0.00005436   -0.00005052   -0.00007780
     atom   54 type  1   force =     0.00068099    0.00076263   -0.00109218
     atom   55 type  1   force =     0.00038671    0.00028348    0.00011388
     atom   56 type  1   force =     0.00016015   -0.00039505    0.00061816
     atom   57 type  1   force =     0.00007560    0.00023708   -0.00031443
     atom   58 type  1   force =    -0.00028793   -0.00001090   -0.00015613
     atom   59 type  2   force =     0.00058178   -0.00108482    0.00053819
     atom   60 type  2   force =     0.00046619    0.00005844    0.00006529
     atom   61 type  2   force =    -0.00052862   -0.00003965   -0.00010913
     atom   62 type  2   force =    -0.00049954   -0.00036270    0.00014901
     atom   63 type  3   force =     0.00001844    0.00012431    0.00006066
     atom   64 type  3   force =     0.00035482   -0.00019551   -0.00008643
     atom   65 type  3   force =     0.00010615    0.00015295   -0.00045772
     atom   66 type  3   force =     0.00008908    0.00022261    0.00036088
     atom   67 type  3   force =     0.00024864    0.00064572   -0.00094020
     atom   68 type  3   force =    -0.00007390    0.00001493    0.00005881
     atom   69 type  3   force =    -0.00028719    0.00005990    0.00019581
     atom   70 type  3   force =    -0.00011026    0.00051339   -0.00034251
     atom   71 type  3   force =     0.00040788   -0.00014075    0.00023301
     atom   72 type  3   force =     0.00014935    0.00013833   -0.00026868
     atom   73 type  3   force =     0.00038753    0.00027710    0.00018365
     atom   74 type  3   force =     0.00002496   -0.00008548   -0.00011280
     atom   75 type  3   force =    -0.00004308   -0.00007947   -0.00026504
     atom   76 type  3   force =    -0.00057755    0.00001035   -0.00043897
     atom   77 type  3   force =     0.00020286    0.00053364   -0.00000127
     atom   78 type  3   force =    -0.00028880   -0.00003004   -0.00005602
     atom   79 type  1   force =     0.02947647   -0.01707820    0.01854433
     atom   80 type  1   force =    -0.00357857    0.00059966   -0.00169518
     atom   81 type  1   force =    -0.02947647   -0.01708150    0.01854317
     atom   82 type  1   force =     0.00358678    0.00060509   -0.00170628
     atom   83 type  1   force =    -0.00320821    0.00470626   -0.00114335
     atom   84 type  1   force =     0.00321789    0.00471920   -0.00114179
     atom   85 type  2   force =     0.00168591    0.00072180   -0.00107268
     atom   86 type  2   force =    -0.03165205    0.04267405   -0.07508788
     atom   87 type  2   force =     0.03164538    0.04267054   -0.07508767
     atom   88 type  2   force =    -0.00169367    0.00073720   -0.00107678
     atom   89 type  3   force =    -0.00195654   -0.00012214   -0.00199706
     atom   90 type  3   force =    -0.00564344   -0.00006124    0.02482093
     atom   91 type  3   force =     0.00564320   -0.00005618    0.02482350
     atom   92 type  3   force =     0.00195848   -0.00012796   -0.00199310
     atom   93 type  3   force =    -0.00061441   -0.00122445    0.00009536
     atom   94 type  3   force =     0.00732223   -0.00033039    0.02908682
     atom   95 type  3   force =    -0.00731753   -0.00033148    0.02909720
     atom   96 type  3   force =     0.00061038   -0.00123609    0.00010195
     atom   97 type  3   force =    -0.00024440   -0.00001325    0.00068096
     atom   98 type  3   force =    -0.01352397   -0.03054775   -0.00104678
     atom   99 type  3   force =     0.00007191   -0.00068208    0.00146796
     atom  100 type  3   force =    -0.01856157    0.00079460    0.00214923
     atom  101 type  3   force =     0.01856129    0.00080185    0.00214849
     atom  102 type  3   force =     0.01353096   -0.03054980   -0.00104404
     atom  103 type  3   force =     0.00024040   -0.00000687    0.00068450
     atom  104 type  3   force =    -0.00007333   -0.00067539    0.00147212
     atom  105 type  1   force =     0.00000771   -0.00011728   -0.00012518
     atom  106 type  1   force =    -0.00016214   -0.00060675    0.00220918
     atom  107 type  1   force =    -0.00001489   -0.00007787   -0.00014659
     atom  108 type  1   force =     0.00045476    0.00021634    0.00191552
     atom  109 type  1   force =     0.00006397   -0.00012654    0.00040603
     atom  110 type  1   force =    -0.00012667   -0.00002834    0.00057848
     atom  111 type  2   force =    -0.00052506   -0.00105513    0.00174988
     atom  112 type  2   force =    -0.00014078    0.00011526   -0.00001610
     atom  113 type  2   force =     0.00011055    0.00012082   -0.00002674
     atom  114 type  2   force =     0.00037158    0.00035644    0.00300222
     atom  115 type  3   force =    -0.00040906   -0.00021997   -0.00069820
     atom  116 type  3   force =    -0.00020855    0.00028234   -0.00007380
     atom  117 type  3   force =     0.00026276    0.00020923   -0.00008568
     atom  118 type  3   force =     0.00036447   -0.00041151   -0.00049502
     atom  119 type  3   force =     0.00167237    0.00071467   -0.00091775
     atom  120 type  3   force =    -0.00013509    0.00045342    0.00007609
     atom  121 type  3   force =     0.00013350    0.00044893    0.00007854
     atom  122 type  3   force =    -0.00222001    0.00018648    0.00158931
     atom  123 type  3   force =    -0.00090648    0.00084531   -0.00004658
     atom  124 type  3   force =    -0.00019125   -0.00011663    0.00020036
     atom  125 type  3   force =    -0.00024774   -0.00002652   -0.00033939
     atom  126 type  3   force =    -0.00030784    0.00019142    0.00001634
     atom  127 type  3   force =     0.00026585    0.00021774   -0.00002781
     atom  128 type  3   force =     0.00023713   -0.00011772    0.00018494
     atom  129 type  3   force =     0.00058067    0.00079769   -0.00009901
     atom  130 type  3   force =     0.00052336   -0.00000340   -0.00054328
     atom  131 type  1   force =    -0.00019951   -0.00020604   -0.00020750
     atom  132 type  1   force =    -0.00017011   -0.00019216    0.00030307
     atom  133 type  1   force =     0.00023251   -0.00008145   -0.00002212
     atom  134 type  1   force =     0.00042752   -0.00036846   -0.00013007
     atom  135 type  1   force =     0.00011164    0.00008735   -0.00035910
     atom  136 type  1   force =     0.00003179    0.00044290   -0.00009908
     atom  137 type  2   force =     0.00014957   -0.00044511    0.00014073
     atom  138 type  2   force =     0.00031155    0.00029684   -0.00024790
     atom  139 type  2   force =    -0.00053144   -0.00048777   -0.00000333
     atom  140 type  2   force =    -0.00016372    0.00002199   -0.00030008
     atom  141 type  3   force =    -0.00019076    0.00007723    0.00011686
     atom  142 type  3   force =    -0.00025352   -0.00002366   -0.00032815
     atom  143 type  3   force =    -0.00007426    0.00006667   -0.00036975
     atom  144 type  3   force =    -0.00011716    0.00033713    0.00016403
     atom  145 type  3   force =     0.00052335    0.00035907   -0.00068563
     atom  146 type  3   force =    -0.00000443    0.00021372    0.00045435
     atom  147 type  3   force =    -0.00007345    0.00015278   -0.00005219
     atom  148 type  3   force =     0.00005812    0.00034746   -0.00035833
     atom  149 type  3   force =    -0.00058429    0.00005089    0.00026625
     atom  150 type  3   force =     0.00025823    0.00027261   -0.00029962
     atom  151 type  3   force =     0.00000331   -0.00003003   -0.00011156
     atom  152 type  3   force =     0.00018273   -0.00020459   -0.00017510
     atom  153 type  3   force =    -0.00019983   -0.00012719    0.00003810
     atom  154 type  3   force =    -0.00036358    0.00020329   -0.00029610
     atom  155 type  3   force =    -0.00045215    0.00007840    0.00000514
     atom  156 type  3   force =     0.00014685   -0.00018843    0.00012283
     atom  157 type  3   force =     0.00631303   -0.00695615    0.00046683
     atom  158 type  4   force =    -0.00646835    0.00562810    0.00163828

     Total force =     0.229060     Total SCF correction =     0.003623
 
     init_run     :    678.46s CPU    688.38s WALL (       1 calls)
     electrons    :  90437.67s CPU  91527.65s WALL (       1 calls)
     forces       :    345.13s CPU    350.15s WALL (       1 calls)

     Called by init_run:
     wfcinit      :    647.52s CPU    655.36s WALL (       1 calls)
     potinit      :      7.59s CPU      7.72s WALL (       1 calls)
     hinit0       :     12.13s CPU     12.17s WALL (       1 calls)

     Called by electrons:
     c_bands      :  80315.17s CPU  81130.83s WALL (      44 calls)
     sum_band     :   9634.08s CPU   9810.30s WALL (      44 calls)
     v_of_rho     :    108.42s CPU    112.37s WALL (      45 calls)
     newd         :    343.65s CPU    439.31s WALL (      45 calls)
     mix_rho      :     30.91s CPU     31.08s WALL (      44 calls)

     Called by c_bands:
     init_us_2    :    403.91s CPU    407.98s WALL (    1800 calls)
     cegterg      :  78733.14s CPU  79541.51s WALL (     882 calls)

     Called by *egterg:
     cdiaghg      :  10686.91s CPU  10728.27s WALL (    4357 calls)
     h_psi        :  39812.62s CPU  40211.42s WALL (    4377 calls)
     s_psi        :   8060.90s CPU   8076.27s WALL (    4377 calls)
     g_psi        :     58.14s CPU     58.49s WALL (    3475 calls)

     Called by h_psi:
     h_psi:calbec :   7906.97s CPU   7936.77s WALL (    4377 calls)
     vloc_psi     :  23764.91s CPU  24008.67s WALL (    4377 calls)
     add_vuspsi   :   8039.29s CPU   8082.62s WALL (    4377 calls)

     General routines
     calbec       :  11155.94s CPU  11199.65s WALL (    5337 calls)
     fft          :    107.06s CPU    108.11s WALL (    1138 calls)
     ffts         :      3.59s CPU      3.66s WALL (     178 calls)
     fftw         :  23728.76s CPU  23973.10s WALL ( 3472684 calls)
     interpolate  :      9.77s CPU      9.83s WALL (      90 calls)
 
     Parallel routines
     fft_scatt_xy :   4462.98s CPU   4512.51s WALL ( 3474000 calls)
     fft_scatt_yz :   5757.63s CPU   5816.99s WALL ( 3474000 calls)
 
     PWSCF        :   1d 1h24m CPU   1d 1h42m WALL

 
   This run was terminated on:  11:34:16  24Oct2023            

=------------------------------------------------------------------------------=
   JOB DONE.
=------------------------------------------------------------------------------=
