
     Program PWSCF v.6.7MaX starts on 22Oct2023 at  8:22:24 

     This program is part of the open-source Quantum ESPRESSO suite
     for quantum simulation of materials; please cite
         "P. Giannozzi et al., J. Phys.:Condens. Matter 21 395502 (2009);
         "P. Giannozzi et al., J. Phys.:Condens. Matter 29 465901 (2017);
          URL http://www.quantum-espresso.org", 
     in publications or presentations arising from this work. More details at
     http://www.quantum-espresso.org/quote

     Parallel version (MPI), running on    20 processors

     MPI processes distributed on     1 nodes
     R & G space division:  proc/nbgrp/npool/nimage =      20
     Waiting for input...
     Reading input from standard input

     Current dimensions of program PWSCF are:
     Max number of different atomic species (ntypx) = 10
     Max number of k-points (npk) =  40000
     Max angular momentum in pseudopotentials (lmaxx) =  3
     Presently no symmetry can be used with electric field

     file Ni.pbe-n-rrkjus_psl.1.0.0.UPF: wavefunction(s)  3D renormalized
     file O.pbe-rrkjus.UPF: wavefunction(s)  2S renormalized
     file H.pbe-rrkjus.UPF: wavefunction(s)  1S renormalized

     -------------------------------------------------
     Parameters for Dispersion (Grimme-D2) Correction:
     -------------------------------------------------
       atom      VdW radius       C_6     

        Ni         2.952        374.666
        P          3.222        271.980
        O          2.536         24.284
        H          1.892          4.857

     Subspace diagonalization in iterative solution of the eigenvalue problem:
     a serial algorithm will be used

 
     Parallelization info
     --------------------
     sticks:   dense  smooth     PW     G-vecs:    dense   smooth      PW
     Min         673     269     72               192489    48693    6732
     Max         674     270     73               192498    48700    6738
     Sum       13471    5389   1449              3849851   973915  134709
 


     bravais-lattice index     =            0
     lattice parameter (alat)  =      17.7231  a.u.
     unit-cell volume          =   20392.3702 (a.u.)^3
     number of atoms/cell      =          158
     number of atomic types    =            4
     number of electrons       =      1063.00
     number of Kohn-Sham states=          638
     kinetic-energy cutoff     =      50.0000  Ry
     charge density cutoff     =     500.0000  Ry
     scf convergence threshold =      1.0E-06
     mixing beta               =       0.2000
     number of iterations used =            8  plain     mixing
     Exchange-correlation=  SLA  PW   PBE  PBE
                           (   1   4   3   4   0   0   0)

     celldm(1)=  17.723132  celldm(2)=   0.000000  celldm(3)=   0.000000
     celldm(4)=   0.000000  celldm(5)=   0.000000  celldm(6)=   0.000000

     crystal axes: (cart. coord. in units of alat)
               a(1) = (   1.000000   0.000000   0.000000 )  
               a(2) = (   0.000000   1.078504   0.000000 )  
               a(3) = (   0.000000   0.000000   3.396445 )  

     reciprocal axes: (cart. coord. in units 2 pi/alat)
               b(1) = (  1.000000  0.000000  0.000000 )  
               b(2) = (  0.000000  0.927210  0.000000 )  
               b(3) = (  0.000000  0.000000  0.294425 )  


     PseudoPot. # 1 for Ni read from file:
     /home/praktikum/PSEUDO/Ni.pbe-n-rrkjus_psl.1.0.0.UPF
     MD5 check sum: 0fbcd075604c6694e0d643a0634a3f21
     Pseudo is Ultrasoft + core correction, Zval = 10.0
     Generated using "atomic" code by A. Dal Corso  v.5.1.2
     Using radial grid of 1195 points,  6 beta functions with: 
                l(1) =   0
                l(2) =   0
                l(3) =   1
                l(4) =   1
                l(5) =   2
                l(6) =   2
     Q(r) pseudized with 0 coefficients 


     PseudoPot. # 2 for P  read from file:
     /home/praktikum/PSEUDO/P.pbe-n-rrkjus_psl.1.0.0.UPF
     MD5 check sum: 4687844b46ff2552cf7009614ac2afe1
     Pseudo is Ultrasoft + core correction, Zval =  5.0
     Generated using "atomic" code by A. Dal Corso  v.5.1.2
     Using radial grid of 1147 points,  6 beta functions with: 
                l(1) =   0
                l(2) =   0
                l(3) =   1
                l(4) =   1
                l(5) =   2
                l(6) =   2
     Q(r) pseudized with 0 coefficients 


     PseudoPot. # 3 for O  read from file:
     /home/praktikum/PSEUDO/O.pbe-rrkjus.UPF
     MD5 check sum: 390ba29e75625707450f3bd3f0eb6be9
     Pseudo is Ultrasoft, Zval =  6.0
     Generated by new atomic code, or converted to UPF format
     Using radial grid of 1269 points,  4 beta functions with: 
                l(1) =   0
                l(2) =   0
                l(3) =   1
                l(4) =   1
     Q(r) pseudized with 0 coefficients 


     PseudoPot. # 4 for H  read from file:
     /home/praktikum/PSEUDO/H.pbe-rrkjus.UPF
     MD5 check sum: 7cc9d459525c9a0585f487a71c3c9563
     Pseudo is Ultrasoft, Zval =  1.0
     Generated by new atomic code, or converted to UPF format
     Using radial grid of 1061 points,  2 beta functions with: 
                l(1) =   0
                l(2) =   0
     Q(r) pseudized with 0 coefficients 


     atomic species   valence    mass     pseudopotential
        Ni            10.00    58.69340     Ni( 1.00)
        P              5.00    30.97376     P ( 1.00)
        O              6.00    15.99940     O ( 1.00)
        H              1.00     1.00794     H ( 1.00)

     Starting magnetic structure 
     atomic species   magnetization
        Ni           1.000
        P            1.000
        O            1.000
        H            0.000

     No symmetry found



   Cartesian axes

     site n.     atom                  positions (alat units)
         1           Ni  tau(   1) = (   0.2425939   0.8289547   0.1232563  )
         2           Ni  tau(   2) = (   0.4925939   0.7682479   0.4397296  )
         3           Ni  tau(   3) = (   0.0074061   0.2897028   0.1232563  )
         4           Ni  tau(   4) = (   0.2574061   0.2289960   0.4397296  )
         5           Ni  tau(   5) = (   0.0000000   1.0682273   0.2814930  )
         6           Ni  tau(   6) = (   0.2500000   0.5289753   0.2814930  )
         7           P   tau(   7) = (   0.2099015   0.9623143   0.4372472  )
         8           P   tau(   8) = (   0.4599015   0.6348883   0.1257387  )
         9           P   tau(   9) = (   0.2900985   0.0956364   0.1257387  )
        10           P   tau(  10) = (   0.0400985   0.4230624   0.4372472  )
        11           O   tau(  11) = (   0.1313289   0.8921807   0.3011581  )
        12           O   tau(  12) = (   0.3813289   0.7050219   0.2618278  )
        13           O   tau(  13) = (   0.3686711   0.1657700   0.2618278  )
        14           O   tau(  14) = (   0.1186711   0.3529288   0.3011581  )
        15           O   tau(  15) = (   0.1470808   0.8739426   0.5619197  )
        16           O   tau(  16) = (   0.3970808   0.7232600   0.0010662  )
        17           O   tau(  17) = (   0.3529192   0.1840081   0.0010662  )
        18           O   tau(  18) = (   0.1029192   0.3346907   0.5619197  )
        19           O   tau(  19) = (   0.0983097   0.5786104   0.4338456  )
        20           O   tau(  20) = (   0.3483097   1.0185922   0.1291403  )
        21           O   tau(  21) = (   0.3763566   0.4168410   0.4274499  )
        22           O   tau(  22) = (   0.1263566   0.1018578   0.1355360  )
        23           O   tau(  23) = (   0.1236434   0.6411097   0.1355360  )
        24           O   tau(  24) = (   0.4016903   0.4793403   0.1291403  )
        25           O   tau(  25) = (   0.1516903   0.0393585   0.4338456  )
        26           O   tau(  26) = (   0.3736434   0.9560929   0.4274499  )
        27           Ni  tau(  27) = (   0.2425939   0.8084016   0.7413658  )
        28           Ni  tau(  28) = (   0.4925939   0.7476948   1.0578391  )
        29           Ni  tau(  29) = (   0.0074061   0.2691497   0.7413658  )
        30           Ni  tau(  30) = (   0.2574061   0.2084429   1.0578391  )
        31           Ni  tau(  31) = (   0.0000000   1.0476741   0.8996025  )
        32           Ni  tau(  32) = (   0.2500000   0.5084222   0.8996025  )
        33           P   tau(  33) = (   0.2099015   0.9417612   1.0553567  )
        34           P   tau(  34) = (   0.4599015   0.6143352   0.7438483  )
        35           P   tau(  35) = (   0.2900985   0.0750833   0.7438483  )
        36           P   tau(  36) = (   0.0400985   0.4025093   1.0553567  )
        37           O   tau(  37) = (   0.1313289   0.8716276   0.9192676  )
        38           O   tau(  38) = (   0.3813289   0.6844688   0.8799374  )
        39           O   tau(  39) = (   0.3686711   0.1452169   0.8799374  )
        40           O   tau(  40) = (   0.1186711   0.3323757   0.9192676  )
        41           O   tau(  41) = (   0.1470808   0.8533895   1.1800292  )
        42           O   tau(  42) = (   0.3970808   0.7027069   0.6191758  )
        43           O   tau(  43) = (   0.3529192   0.1634550   0.6191758  )
        44           O   tau(  44) = (   0.1029192   0.3141376   1.1800292  )
        45           O   tau(  45) = (   0.0983097   0.5580573   1.0519551  )
        46           O   tau(  46) = (   0.3483097   0.9980391   0.7472498  )
        47           O   tau(  47) = (   0.3763566   0.3962879   1.0455594  )
        48           O   tau(  48) = (   0.1263566   0.0813047   0.7536455  )
        49           O   tau(  49) = (   0.1236434   0.6205566   0.7536455  )
        50           O   tau(  50) = (   0.4016903   0.4587872   0.7472498  )
        51           O   tau(  51) = (   0.1516903   0.0188054   1.0519551  )
        52           O   tau(  52) = (   0.3736434   0.9355398   1.0455594  )
        53           Ni  tau(  53) = (   0.2424041   0.7897793   1.3618974  )
        54           Ni  tau(  54) = (   0.4879612   0.7218564   1.6914308  )
        55           Ni  tau(  55) = (   0.0079170   0.2505787   1.3612627  )
        56           Ni  tau(  56) = (   0.2468086   0.1935142   1.6639243  )
        57           Ni  tau(  57) = (   0.0017035   1.0290340   1.5213760  )
        58           Ni  tau(  58) = (   0.2474179   0.4910684   1.5250240  )
        59           P   tau(  59) = (   0.2112199   0.9236045   1.6823438  )
        60           P   tau(  60) = (   0.4591813   0.5957823   1.3658078  )
        61           P   tau(  61) = (   0.2917127   0.0548729   1.3629876  )
        62           P   tau(  62) = (   0.0343831   0.3802729   1.6827085  )
        63           O   tau(  63) = (   0.1344982   0.8581762   1.5384087  )
        64           O   tau(  64) = (   0.3821749   0.6677915   1.5018960  )
        65           O   tau(  65) = (   0.3696684   0.1247784   1.4995401  )
        66           O   tau(  66) = (   0.1141586   0.3197959   1.5372841  )
        67           O   tau(  67) = (   0.1477250   0.8282157   1.7986512  )
        68           O   tau(  68) = (   0.3971844   0.6837803   1.2400827  )
        69           O   tau(  69) = (   0.3536769   0.1435761   1.2380891  )
        70           O   tau(  70) = (   0.0972401   0.2831089   1.7964957  )
        71           O   tau(  71) = (   0.0885696   0.5385964   1.6812115  )
        72           O   tau(  72) = (   0.3499269   0.9780557   1.3669542  )
        73           O   tau(  73) = (   0.3712541   0.3723768   1.6655885  )
        74           O   tau(  74) = (   0.1279370   0.0627700   1.3746559  )
        75           O   tau(  75) = (   0.1221086   0.6022924   1.3766974  )
        76           O   tau(  76) = (   0.4000629   0.4406261   1.3697735  )
        77           O   tau(  77) = (   0.1539963   1.0802196   1.6787776  )
        78           O   tau(  78) = (   0.3757257   0.9187392   1.6710614  )
        79           Ni  tau(  79) = (   0.7425939   0.8289547   0.1232563  )
        80           Ni  tau(  80) = (   0.9925939   0.7682479   0.4397296  )
        81           Ni  tau(  81) = (   0.5074061   0.2897028   0.1232563  )
        82           Ni  tau(  82) = (   0.7574061   0.2289960   0.4397296  )
        83           Ni  tau(  83) = (   0.5000000   1.0682273   0.2814930  )
        84           Ni  tau(  84) = (   0.7500000   0.5289753   0.2814930  )
        85           P   tau(  85) = (   0.7099015   0.9623143   0.4372472  )
        86           P   tau(  86) = (   0.9599015   0.6348883   0.1257387  )
        87           P   tau(  87) = (   0.7900985   0.0956364   0.1257387  )
        88           P   tau(  88) = (   0.5400985   0.4230624   0.4372472  )
        89           O   tau(  89) = (   0.6313289   0.8921807   0.3011581  )
        90           O   tau(  90) = (   0.8813289   0.7050219   0.2618278  )
        91           O   tau(  91) = (   0.8686711   0.1657700   0.2618278  )
        92           O   tau(  92) = (   0.6186711   0.3529288   0.3011581  )
        93           O   tau(  93) = (   0.6470808   0.8739426   0.5619197  )
        94           O   tau(  94) = (   0.8970808   0.7232600   0.0010662  )
        95           O   tau(  95) = (   0.8529192   0.1840081   0.0010662  )
        96           O   tau(  96) = (   0.6029192   0.3346907   0.5619197  )
        97           O   tau(  97) = (   0.5983097   0.5786104   0.4338456  )
        98           O   tau(  98) = (   0.8483097   1.0185922   0.1291403  )
        99           O   tau(  99) = (   0.8763566   0.4168410   0.4274499  )
       100           O   tau( 100) = (   0.6263566   0.1018578   0.1355360  )
       101           O   tau( 101) = (   0.6236434   0.6411097   0.1355360  )
       102           O   tau( 102) = (   0.9016903   0.4793403   0.1291403  )
       103           O   tau( 103) = (   0.6516903   0.0393585   0.4338456  )
       104           O   tau( 104) = (   0.8736434   0.9560929   0.4274499  )
       105           Ni  tau( 105) = (   0.7425939   0.8084016   0.7413658  )
       106           Ni  tau( 106) = (   0.9925939   0.7476948   1.0578391  )
       107           Ni  tau( 107) = (   0.5074061   0.2691497   0.7413658  )
       108           Ni  tau( 108) = (   0.7574061   0.2084429   1.0578391  )
       109           Ni  tau( 109) = (   0.5000000   1.0476741   0.8996025  )
       110           Ni  tau( 110) = (   0.7500000   0.5084222   0.8996025  )
       111           P   tau( 111) = (   0.7099015   0.9417612   1.0553567  )
       112           P   tau( 112) = (   0.9599015   0.6143352   0.7438483  )
       113           P   tau( 113) = (   0.7900985   0.0750833   0.7438483  )
       114           P   tau( 114) = (   0.5400985   0.4025093   1.0553567  )
       115           O   tau( 115) = (   0.6313289   0.8716276   0.9192676  )
       116           O   tau( 116) = (   0.8813289   0.6844688   0.8799374  )
       117           O   tau( 117) = (   0.8686711   0.1452169   0.8799374  )
       118           O   tau( 118) = (   0.6186711   0.3323757   0.9192676  )
       119           O   tau( 119) = (   0.6470808   0.8533895   1.1800292  )
       120           O   tau( 120) = (   0.8970808   0.7027069   0.6191758  )
       121           O   tau( 121) = (   0.8529192   0.1634550   0.6191758  )
       122           O   tau( 122) = (   0.6029192   0.3141376   1.1800292  )
       123           O   tau( 123) = (   0.5983097   0.5580573   1.0519551  )
       124           O   tau( 124) = (   0.8483097   0.9980391   0.7472498  )
       125           O   tau( 125) = (   0.8763566   0.3962879   1.0455594  )
       126           O   tau( 126) = (   0.6263566   0.0813047   0.7536455  )
       127           O   tau( 127) = (   0.6236434   0.6205566   0.7536455  )
       128           O   tau( 128) = (   0.9016903   0.4587872   0.7472498  )
       129           O   tau( 129) = (   0.6516903   0.0188054   1.0519551  )
       130           O   tau( 130) = (   0.8736434   0.9355398   1.0455594  )
       131           Ni  tau( 131) = (   0.7426462   0.7898639   1.3604014  )
       132           Ni  tau( 132) = (  -0.0002066   0.7318828   1.6641114  )
       133           Ni  tau( 133) = (   0.5077061   0.2501780   1.3613832  )
       134           Ni  tau( 134) = (   0.7465307   0.1894565   1.6642078  )
       135           Ni  tau( 135) = (   0.5021934   1.0264055   1.5228946  )
       136           Ni  tau( 136) = (   0.7455086   0.4886102   1.5220246  )
       137           P   tau( 137) = (   0.7116866   0.9161767   1.6766996  )
       138           P   tau( 138) = (   0.9583802   0.5938581   1.3632324  )
       139           P   tau( 139) = (   0.7914519   0.0546979   1.3621112  )
       140           P   tau( 140) = (   0.5357885   0.3763012   1.6821380  )
       141           O   tau( 141) = (   0.6346394   0.8568156   1.5335737  )
       142           O   tau( 142) = (   0.8794257   0.6646640   1.4988356  )
       143           O   tau( 143) = (   0.8695763   0.1251491   1.4988234  )
       144           O   tau( 144) = (   0.6152561   0.3146265   1.5364006  )
       145           O   tau( 145) = (   0.6515338   0.8192773   1.7930363  )
       146           O   tau( 146) = (   0.8970925   0.6818609   1.2376106  )
       147           O   tau( 147) = (   0.8535847   0.1440758   1.2378023  )
       148           O   tau( 148) = (   0.5952313   0.2763491   1.7954797  )
       149           O   tau( 149) = (   0.5957950   0.5319332   1.6778728  )
       150           O   tau( 150) = (   0.8513096   0.9784304   1.3652427  )
       151           O   tau( 151) = (   0.8698230   0.3735298   1.6681144  )
       152           O   tau( 152) = (   0.6278063   0.0613643   1.3739427  )
       153           O   tau( 153) = (   0.6230504   0.6013695   1.3747416  )
       154           O   tau( 154) = (   0.8997892   0.4387455   1.3673113  )
       155           O   tau( 155) = (   0.6572909   1.0746654   1.6784301  )
       156           O   tau( 156) = (   0.8772072   0.9129255   1.6662148  )
       157           O   tau( 157) = (   0.3752302   0.6425654   1.8273188  )
       158           H   tau( 158) = (   0.2886543   0.7019697   1.8481288  )

     number of k points=    10  Gaussian smearing, width (Ry)=  0.0100
                       cart. coord. in units 2pi/alat
        k(    1) = (   0.0000000   0.0000000   0.0000000), wk =   0.0625000
        k(    2) = (   0.0000000   0.2318026   0.0000000), wk =   0.1250000
        k(    3) = (   0.0000000  -0.4636052   0.0000000), wk =   0.0625000
        k(    4) = (   0.2500000   0.0000000   0.0000000), wk =   0.1250000
        k(    5) = (   0.2500000   0.2318026   0.0000000), wk =   0.1250000
        k(    6) = (   0.2500000  -0.4636052   0.0000000), wk =   0.1250000
        k(    7) = (   0.2500000  -0.2318026   0.0000000), wk =   0.1250000
        k(    8) = (  -0.5000000   0.0000000   0.0000000), wk =   0.0625000
        k(    9) = (  -0.5000000   0.2318026   0.0000000), wk =   0.1250000
        k(   10) = (  -0.5000000  -0.4636052   0.0000000), wk =   0.0625000

     Dense  grid:  3849851 G-vectors     FFT dimensions: ( 128, 144, 432)

     Smooth grid:   973915 G-vectors     FFT dimensions: (  80,  90, 288)

     Estimated max dynamical RAM per process >       2.95 GB

     Estimated total dynamical RAM >      59.02 GB
     Generating pointlists ...
     new r_m :   0.0798 (alat units)  1.4150 (a.u.) for type    1
     new r_m :   0.0669 (alat units)  1.1865 (a.u.) for type    2
     new r_m :   0.0442 (alat units)  0.7825 (a.u.) for type    3
     new r_m :   0.0442 (alat units)  0.7825 (a.u.) for type    4

     Initial potential from superposition of free atoms

     starting charge 1062.89078, renormalised to 1063.00000

     negative rho (up, down):  1.106E-03 4.579E-04
 
     Adding external electric field

     Computed dipole along edir(3) : 
        Dipole                1.6045 Ry au,          4.0782 Debye
        Dipole field          0.0010 Ry au, 
 
        Potential amp.       -0.1071 Ry
        Total length         54.1761 bohr
 
 
     Adding external electric field

     Computed dipole along edir(3) : 
        Dipole                1.6045 Ry au,          4.0782 Debye
        Dipole field          0.0010 Ry au, 
 
        Potential amp.       -0.1071 Ry
        Total length         54.1761 bohr
 
     Starting wfcs are  809 randomized atomic wfcs

     total cpu time spent up to now is      679.5 secs

     Self-consistent Calculation

     iteration #  1     ecut=    50.00 Ry     beta= 0.20
     Davidson diagonalization with overlap
     ethr =  1.00E-02,  avg # of iterations =  6.0

     negative rho (up, down):  4.091E-04 0.000E+00
 
     Adding external electric field

     Computed dipole along edir(3) : 
        Dipole             -127.8866 Ry au,       -325.0552 Debye
        Dipole field         -0.0788 Ry au, 
 
        Potential amp.        8.5390 Ry
        Total length         54.1761 bohr
 
 
     Adding external electric field

     Computed dipole along edir(3) : 
        Dipole             -127.8866 Ry au,       -325.0552 Debye
        Dipole field         -0.0788 Ry au, 
 
        Potential amp.        8.5390 Ry
        Total length         54.1761 bohr
 

     total cpu time spent up to now is     3723.3 secs

     total energy              =   -6643.75863461 Ry
     estimated scf accuracy    <     755.98993704 Ry

     total magnetization       =   213.00 Bohr mag/cell
     absolute magnetization    =   290.42 Bohr mag/cell

     iteration #  2     ecut=    50.00 Ry     beta= 0.20
     Davidson diagonalization with overlap
     c_bands:  1 eigenvalues not converged
     c_bands:  2 eigenvalues not converged
     c_bands:  2 eigenvalues not converged
     ethr =  1.00E-02,  avg # of iterations = 15.6

     negative rho (up, down):  2.142E-04 0.000E+00
 
     Adding external electric field

     Computed dipole along edir(3) : 
        Dipole              -24.7799 Ry au,        -62.9842 Debye
        Dipole field         -0.0153 Ry au, 
 
        Potential amp.        1.6545 Ry
        Total length         54.1761 bohr
 
 
     Adding external electric field

     Computed dipole along edir(3) : 
        Dipole              -24.7799 Ry au,        -62.9842 Debye
        Dipole field         -0.0153 Ry au, 
 
        Potential amp.        1.6545 Ry
        Total length         54.1761 bohr
 

     total cpu time spent up to now is    11121.4 secs

     total energy              =   -6046.93800690 Ry
     estimated scf accuracy    <  181458.71672931 Ry

     total magnetization       =   126.11 Bohr mag/cell
     absolute magnetization    =   127.75 Bohr mag/cell

     iteration #  3     ecut=    50.00 Ry     beta= 0.20
     Davidson diagonalization with overlap
     ethr =  1.00E-02,  avg # of iterations = 12.9

     negative rho (up, down):  1.303E-04 0.000E+00
 
     Adding external electric field

     Computed dipole along edir(3) : 
        Dipole              -14.9464 Ry au,        -37.9899 Debye
        Dipole field         -0.0092 Ry au, 
 
        Potential amp.        0.9980 Ry
        Total length         54.1761 bohr
 
 
     Adding external electric field

     Computed dipole along edir(3) : 
        Dipole              -14.9464 Ry au,        -37.9899 Debye
        Dipole field         -0.0092 Ry au, 
 
        Potential amp.        0.9980 Ry
        Total length         54.1761 bohr
 

     total cpu time spent up to now is    18394.0 secs

     total energy              =   -6672.71068351 Ry
     estimated scf accuracy    <   17827.06600620 Ry

     total magnetization       =   155.34 Bohr mag/cell
     absolute magnetization    =   162.64 Bohr mag/cell

     iteration #  4     ecut=    50.00 Ry     beta= 0.20
     Davidson diagonalization with overlap
     ethr =  1.00E-02,  avg # of iterations = 12.6

     negative rho (up, down):  4.618E-05 0.000E+00
 
     Adding external electric field

     Computed dipole along edir(3) : 
        Dipole               -8.9512 Ry au,        -22.7517 Debye
        Dipole field         -0.0055 Ry au, 
 
        Potential amp.        0.5977 Ry
        Total length         54.1761 bohr
 
 
     Adding external electric field

     Computed dipole along edir(3) : 
        Dipole               -8.9512 Ry au,        -22.7517 Debye
        Dipole field         -0.0055 Ry au, 
 
        Potential amp.        0.5977 Ry
        Total length         54.1761 bohr
 

     total cpu time spent up to now is    23252.8 secs

     total energy              =   -6935.57000594 Ry
     estimated scf accuracy    <     555.10766883 Ry

     total magnetization       =   202.42 Bohr mag/cell
     absolute magnetization    =   220.27 Bohr mag/cell

     iteration #  5     ecut=    50.00 Ry     beta= 0.20
     Davidson diagonalization with overlap
     ethr =  1.00E-02,  avg # of iterations =  6.3

     negative rho (up, down):  4.601E-05 0.000E+00
 
     Adding external electric field

     Computed dipole along edir(3) : 
        Dipole              -12.0356 Ry au,        -30.5915 Debye
        Dipole field         -0.0074 Ry au, 
 
        Potential amp.        0.8036 Ry
        Total length         54.1761 bohr
 
 
     Adding external electric field

     Computed dipole along edir(3) : 
        Dipole              -12.0356 Ry au,        -30.5915 Debye
        Dipole field         -0.0074 Ry au, 
 
        Potential amp.        0.8036 Ry
        Total length         54.1761 bohr
 

     total cpu time spent up to now is    25325.1 secs

     total energy              =   -6962.51632630 Ry
     estimated scf accuracy    <     806.44729738 Ry

     total magnetization       =   141.35 Bohr mag/cell
     absolute magnetization    =   174.45 Bohr mag/cell

     iteration #  6     ecut=    50.00 Ry     beta= 0.20
     Davidson diagonalization with overlap
     ethr =  1.00E-02,  avg # of iterations =  1.9

     negative rho (up, down):  5.099E-05 0.000E+00
 
     Adding external electric field

     Computed dipole along edir(3) : 
        Dipole              -10.9086 Ry au,        -27.7268 Debye
        Dipole field         -0.0067 Ry au, 
 
        Potential amp.        0.7284 Ry
        Total length         54.1761 bohr
 
 
     Adding external electric field

     Computed dipole along edir(3) : 
        Dipole              -10.9086 Ry au,        -27.7268 Debye
        Dipole field         -0.0067 Ry au, 
 
        Potential amp.        0.7284 Ry
        Total length         54.1761 bohr
 

     total cpu time spent up to now is    26890.3 secs

     total energy              =   -6974.87890520 Ry
     estimated scf accuracy    <     220.77872788 Ry

     total magnetization       =   122.81 Bohr mag/cell
     absolute magnetization    =   158.19 Bohr mag/cell

     iteration #  7     ecut=    50.00 Ry     beta= 0.20
     Davidson diagonalization with overlap
     ethr =  1.00E-02,  avg # of iterations =  1.6

     negative rho (up, down):  6.358E-05 0.000E+00
 
     Adding external electric field

     Computed dipole along edir(3) : 
        Dipole               -9.9789 Ry au,        -25.3637 Debye
        Dipole field         -0.0061 Ry au, 
 
        Potential amp.        0.6663 Ry
        Total length         54.1761 bohr
 
 
     Adding external electric field

     Computed dipole along edir(3) : 
        Dipole               -9.9789 Ry au,        -25.3637 Debye
        Dipole field         -0.0061 Ry au, 
 
        Potential amp.        0.6663 Ry
        Total length         54.1761 bohr
 

     total cpu time spent up to now is    28461.2 secs

     total energy              =   -6985.83287624 Ry
     estimated scf accuracy    <     109.73585644 Ry

     total magnetization       =   100.20 Bohr mag/cell
     absolute magnetization    =   143.43 Bohr mag/cell

     iteration #  8     ecut=    50.00 Ry     beta= 0.20
     Davidson diagonalization with overlap
     ethr =  1.00E-02,  avg # of iterations =  1.5

     negative rho (up, down):  9.154E-05 0.000E+00
 
     Adding external electric field

     Computed dipole along edir(3) : 
        Dipole               -8.3558 Ry au,        -21.2383 Debye
        Dipole field         -0.0051 Ry au, 
 
        Potential amp.        0.5579 Ry
        Total length         54.1761 bohr
 
 
     Adding external electric field

     Computed dipole along edir(3) : 
        Dipole               -8.3558 Ry au,        -21.2383 Debye
        Dipole field         -0.0051 Ry au, 
 
        Potential amp.        0.5579 Ry
        Total length         54.1761 bohr
 

     total cpu time spent up to now is    30026.5 secs

     total energy              =   -6999.87603955 Ry
     estimated scf accuracy    <     110.34718470 Ry

     total magnetization       =    92.09 Bohr mag/cell
     absolute magnetization    =   136.74 Bohr mag/cell

     iteration #  9     ecut=    50.00 Ry     beta= 0.20
     Davidson diagonalization with overlap
     ethr =  1.00E-02,  avg # of iterations =  1.5

     negative rho (up, down):  1.438E-04 0.000E+00
 
     Adding external electric field

     Computed dipole along edir(3) : 
        Dipole               -5.0805 Ry au,        -12.9134 Debye
        Dipole field         -0.0031 Ry au, 
 
        Potential amp.        0.3392 Ry
        Total length         54.1761 bohr
 
 
     Adding external electric field

     Computed dipole along edir(3) : 
        Dipole               -5.0805 Ry au,        -12.9134 Debye
        Dipole field         -0.0031 Ry au, 
 
        Potential amp.        0.3392 Ry
        Total length         54.1761 bohr
 

     total cpu time spent up to now is    31582.3 secs

     total energy              =   -7021.38043165 Ry
     estimated scf accuracy    <      81.27051781 Ry

     total magnetization       =    84.76 Bohr mag/cell
     absolute magnetization    =   128.46 Bohr mag/cell

     iteration # 10     ecut=    50.00 Ry     beta= 0.20
     Davidson diagonalization with overlap
     ethr =  7.65E-03,  avg # of iterations =  1.4

     negative rho (up, down):  2.836E-04 0.000E+00
 
     Adding external electric field

     Computed dipole along edir(3) : 
        Dipole               -1.7422 Ry au,         -4.4281 Debye
        Dipole field         -0.0011 Ry au, 
 
        Potential amp.        0.1163 Ry
        Total length         54.1761 bohr
 
 
     Adding external electric field

     Computed dipole along edir(3) : 
        Dipole               -1.7422 Ry au,         -4.4281 Debye
        Dipole field         -0.0011 Ry au, 
 
        Potential amp.        0.1163 Ry
        Total length         54.1761 bohr
 

     total cpu time spent up to now is    33138.5 secs

     total energy              =   -7042.99682231 Ry
     estimated scf accuracy    <     175.10463248 Ry

     total magnetization       =    78.93 Bohr mag/cell
     absolute magnetization    =   117.84 Bohr mag/cell

     iteration # 11     ecut=    50.00 Ry     beta= 0.20
     Davidson diagonalization with overlap
     ethr =  7.65E-03,  avg # of iterations =  1.4

     negative rho (up, down):  3.122E-04 0.000E+00
 
     Adding external electric field

     Computed dipole along edir(3) : 
        Dipole               -4.8190 Ry au,        -12.2486 Debye
        Dipole field         -0.0030 Ry au, 
 
        Potential amp.        0.3218 Ry
        Total length         54.1761 bohr
 
 
     Adding external electric field

     Computed dipole along edir(3) : 
        Dipole               -4.8190 Ry au,        -12.2486 Debye
        Dipole field         -0.0030 Ry au, 
 
        Potential amp.        0.3218 Ry
        Total length         54.1761 bohr
 

     total cpu time spent up to now is    34671.0 secs

     total energy              =   -7048.92911448 Ry
     estimated scf accuracy    <     183.56681265 Ry

     total magnetization       =    71.99 Bohr mag/cell
     absolute magnetization    =   100.82 Bohr mag/cell

     iteration # 12     ecut=    50.00 Ry     beta= 0.20
     Davidson diagonalization with overlap
     ethr =  7.65E-03,  avg # of iterations =  1.0

     negative rho (up, down):  3.959E-04 0.000E+00
 
     Adding external electric field

     Computed dipole along edir(3) : 
        Dipole               -1.4323 Ry au,         -3.6404 Debye
        Dipole field         -0.0009 Ry au, 
 
        Potential amp.        0.0956 Ry
        Total length         54.1761 bohr
 
 
     Adding external electric field

     Computed dipole along edir(3) : 
        Dipole               -1.4323 Ry au,         -3.6404 Debye
        Dipole field         -0.0009 Ry au, 
 
        Potential amp.        0.0956 Ry
        Total length         54.1761 bohr
 

     total cpu time spent up to now is    36174.6 secs

     total energy              =   -7050.17798150 Ry
     estimated scf accuracy    <     249.84538932 Ry

     total magnetization       =    69.94 Bohr mag/cell
     absolute magnetization    =    94.08 Bohr mag/cell

     iteration # 13     ecut=    50.00 Ry     beta= 0.20
     Davidson diagonalization with overlap
     ethr =  7.65E-03,  avg # of iterations =  1.0

     negative rho (up, down):  4.265E-04 0.000E+00
 
     Adding external electric field

     Computed dipole along edir(3) : 
        Dipole               -1.8526 Ry au,         -4.7088 Debye
        Dipole field         -0.0011 Ry au, 
 
        Potential amp.        0.1237 Ry
        Total length         54.1761 bohr
 
 
     Adding external electric field

     Computed dipole along edir(3) : 
        Dipole               -1.8526 Ry au,         -4.7088 Debye
        Dipole field         -0.0011 Ry au, 
 
        Potential amp.        0.1237 Ry
        Total length         54.1761 bohr
 

     total cpu time spent up to now is    37657.1 secs

     total energy              =   -7052.21449190 Ry
     estimated scf accuracy    <     315.63627799 Ry

     total magnetization       =    69.77 Bohr mag/cell
     absolute magnetization    =    92.13 Bohr mag/cell

     iteration # 14     ecut=    50.00 Ry     beta= 0.20
     Davidson diagonalization with overlap
     ethr =  7.65E-03,  avg # of iterations =  1.0

     negative rho (up, down):  4.505E-04 0.000E+00
 
     Adding external electric field

     Computed dipole along edir(3) : 
        Dipole               -0.4291 Ry au,         -1.0906 Debye
        Dipole field         -0.0003 Ry au, 
 
        Potential amp.        0.0286 Ry
        Total length         54.1761 bohr
 
 
     Adding external electric field

     Computed dipole along edir(3) : 
        Dipole               -0.4291 Ry au,         -1.0906 Debye
        Dipole field         -0.0003 Ry au, 
 
        Potential amp.        0.0286 Ry
        Total length         54.1761 bohr
 

     total cpu time spent up to now is    39141.6 secs

     total energy              =   -7055.74073301 Ry
     estimated scf accuracy    <      28.74320236 Ry

     total magnetization       =    73.00 Bohr mag/cell
     absolute magnetization    =    90.01 Bohr mag/cell

     iteration # 15     ecut=    50.00 Ry     beta= 0.20
     Davidson diagonalization with overlap
     ethr =  2.70E-03,  avg # of iterations =  1.0

     negative rho (up, down):  4.634E-04 0.000E+00
 
     Adding external electric field

     Computed dipole along edir(3) : 
        Dipole               -1.0529 Ry au,         -2.6763 Debye
        Dipole field         -0.0006 Ry au, 
 
        Potential amp.        0.0703 Ry
        Total length         54.1761 bohr
 
 
     Adding external electric field

     Computed dipole along edir(3) : 
        Dipole               -1.0529 Ry au,         -2.6763 Debye
        Dipole field         -0.0006 Ry au, 
 
        Potential amp.        0.0703 Ry
        Total length         54.1761 bohr
 

     total cpu time spent up to now is    40631.0 secs

     total energy              =   -7055.86881446 Ry
     estimated scf accuracy    <      20.69396499 Ry

     total magnetization       =    73.00 Bohr mag/cell
     absolute magnetization    =    88.12 Bohr mag/cell

     iteration # 16     ecut=    50.00 Ry     beta= 0.20
     Davidson diagonalization with overlap
     ethr =  1.95E-03,  avg # of iterations =  1.1

     negative rho (up, down):  5.019E-04 0.000E+00
 
     Adding external electric field

     Computed dipole along edir(3) : 
        Dipole                0.8569 Ry au,          2.1780 Debye
        Dipole field          0.0005 Ry au, 
 
        Potential amp.       -0.0572 Ry
        Total length         54.1761 bohr
 
 
     Adding external electric field

     Computed dipole along edir(3) : 
        Dipole                0.8569 Ry au,          2.1780 Debye
        Dipole field          0.0005 Ry au, 
 
        Potential amp.       -0.0572 Ry
        Total length         54.1761 bohr
 

     total cpu time spent up to now is    42132.0 secs

     total energy              =   -7055.78281905 Ry
     estimated scf accuracy    <      46.69887976 Ry

     total magnetization       =    71.76 Bohr mag/cell
     absolute magnetization    =    85.63 Bohr mag/cell

     iteration # 17     ecut=    50.00 Ry     beta= 0.20
     Davidson diagonalization with overlap
     ethr =  1.95E-03,  avg # of iterations =  1.3

     negative rho (up, down):  5.245E-04 0.000E+00
 
     Adding external electric field

     Computed dipole along edir(3) : 
        Dipole               -0.1444 Ry au,         -0.3670 Debye
        Dipole field         -0.0001 Ry au, 
 
        Potential amp.        0.0096 Ry
        Total length         54.1761 bohr
 
 
     Adding external electric field

     Computed dipole along edir(3) : 
        Dipole               -0.1444 Ry au,         -0.3670 Debye
        Dipole field         -0.0001 Ry au, 
 
        Potential amp.        0.0096 Ry
        Total length         54.1761 bohr
 

     total cpu time spent up to now is    43651.3 secs

     total energy              =   -7056.40543405 Ry
     estimated scf accuracy    <      23.34029561 Ry

     total magnetization       =    72.98 Bohr mag/cell
     absolute magnetization    =    84.63 Bohr mag/cell

     iteration # 18     ecut=    50.00 Ry     beta= 0.20
     Davidson diagonalization with overlap
     ethr =  1.95E-03,  avg # of iterations =  1.1

     negative rho (up, down):  5.896E-04 0.000E+00
 
     Adding external electric field

     Computed dipole along edir(3) : 
        Dipole                0.3236 Ry au,          0.8225 Debye
        Dipole field          0.0002 Ry au, 
 
        Potential amp.       -0.0216 Ry
        Total length         54.1761 bohr
 
 
     Adding external electric field

     Computed dipole along edir(3) : 
        Dipole                0.3236 Ry au,          0.8225 Debye
        Dipole field          0.0002 Ry au, 
 
        Potential amp.       -0.0216 Ry
        Total length         54.1761 bohr
 

     total cpu time spent up to now is    45172.0 secs

     total energy              =   -7056.61417241 Ry
     estimated scf accuracy    <      31.49327223 Ry

     total magnetization       =    70.39 Bohr mag/cell
     absolute magnetization    =    81.39 Bohr mag/cell

     iteration # 19     ecut=    50.00 Ry     beta= 0.20
     Davidson diagonalization with overlap
     ethr =  1.95E-03,  avg # of iterations =  1.4

     negative rho (up, down):  5.530E-04 0.000E+00
 
     Adding external electric field

     Computed dipole along edir(3) : 
        Dipole                0.1478 Ry au,          0.3757 Debye
        Dipole field          0.0001 Ry au, 
 
        Potential amp.       -0.0099 Ry
        Total length         54.1761 bohr
 
 
     Adding external electric field

     Computed dipole along edir(3) : 
        Dipole                0.1478 Ry au,          0.3757 Debye
        Dipole field          0.0001 Ry au, 
 
        Potential amp.       -0.0099 Ry
        Total length         54.1761 bohr
 

     total cpu time spent up to now is    46717.5 secs

     total energy              =   -7057.24204932 Ry
     estimated scf accuracy    <       6.97791666 Ry

     total magnetization       =    71.80 Bohr mag/cell
     absolute magnetization    =    80.89 Bohr mag/cell

     iteration # 20     ecut=    50.00 Ry     beta= 0.20
     Davidson diagonalization with overlap
     ethr =  6.56E-04,  avg # of iterations =  1.9

     negative rho (up, down):  5.732E-04 0.000E+00
 
     Adding external electric field

     Computed dipole along edir(3) : 
        Dipole               -0.0665 Ry au,         -0.1689 Debye
        Dipole field         -0.0000 Ry au, 
 
        Potential amp.        0.0044 Ry
        Total length         54.1761 bohr
 
 
     Adding external electric field

     Computed dipole along edir(3) : 
        Dipole               -0.0665 Ry au,         -0.1689 Debye
        Dipole field         -0.0000 Ry au, 
 
        Potential amp.        0.0044 Ry
        Total length         54.1761 bohr
 

     total cpu time spent up to now is    48373.0 secs

     total energy              =   -7057.45197095 Ry
     estimated scf accuracy    <       4.12939171 Ry

     total magnetization       =    72.84 Bohr mag/cell
     absolute magnetization    =    81.22 Bohr mag/cell

     iteration # 21     ecut=    50.00 Ry     beta= 0.20
     Davidson diagonalization with overlap
     ethr =  3.88E-04,  avg # of iterations =  1.9

     negative rho (up, down):  6.274E-04 0.000E+00
 
     Adding external electric field

     Computed dipole along edir(3) : 
        Dipole                0.2922 Ry au,          0.7428 Debye
        Dipole field          0.0002 Ry au, 
 
        Potential amp.       -0.0195 Ry
        Total length         54.1761 bohr
 
 
     Adding external electric field

     Computed dipole along edir(3) : 
        Dipole                0.2922 Ry au,          0.7428 Debye
        Dipole field          0.0002 Ry au, 
 
        Potential amp.       -0.0195 Ry
        Total length         54.1761 bohr
 

     total cpu time spent up to now is    50001.4 secs

     total energy              =   -7057.77924130 Ry
     estimated scf accuracy    <       0.59392731 Ry

     total magnetization       =    73.00 Bohr mag/cell
     absolute magnetization    =    80.60 Bohr mag/cell

     iteration # 22     ecut=    50.00 Ry     beta= 0.20
     Davidson diagonalization with overlap
     ethr =  5.59E-05,  avg # of iterations = 15.7

     negative rho (up, down):  6.141E-04 0.000E+00
 
     Adding external electric field

     Computed dipole along edir(3) : 
        Dipole               -0.3884 Ry au,         -0.9871 Debye
        Dipole field         -0.0002 Ry au, 
 
        Potential amp.        0.0259 Ry
        Total length         54.1761 bohr
 
 
     Adding external electric field

     Computed dipole along edir(3) : 
        Dipole               -0.3884 Ry au,         -0.9871 Debye
        Dipole field         -0.0002 Ry au, 
 
        Potential amp.        0.0259 Ry
        Total length         54.1761 bohr
 

     total cpu time spent up to now is    52732.6 secs

     total energy              =   -7057.77749261 Ry
     estimated scf accuracy    <       0.59632410 Ry

     total magnetization       =    72.63 Bohr mag/cell
     absolute magnetization    =    78.68 Bohr mag/cell

     iteration # 23     ecut=    50.00 Ry     beta= 0.20
     Davidson diagonalization with overlap
     ethr =  5.59E-05,  avg # of iterations =  2.1

     negative rho (up, down):  6.344E-04 3.571E-09
 
     Adding external electric field

     Computed dipole along edir(3) : 
        Dipole                0.1146 Ry au,          0.2912 Debye
        Dipole field          0.0001 Ry au, 
 
        Potential amp.       -0.0077 Ry
        Total length         54.1761 bohr
 
 
     Adding external electric field

     Computed dipole along edir(3) : 
        Dipole                0.1146 Ry au,          0.2912 Debye
        Dipole field          0.0001 Ry au, 
 
        Potential amp.       -0.0077 Ry
        Total length         54.1761 bohr
 

     total cpu time spent up to now is    54303.2 secs

     total energy              =   -7057.78274632 Ry
     estimated scf accuracy    <       2.42562176 Ry

     total magnetization       =    71.71 Bohr mag/cell
     absolute magnetization    =    77.66 Bohr mag/cell

     iteration # 24     ecut=    50.00 Ry     beta= 0.20
     Davidson diagonalization with overlap
     ethr =  5.59E-05,  avg # of iterations =  1.9

     negative rho (up, down):  6.761E-04 7.492E-05
 
     Adding external electric field

     Computed dipole along edir(3) : 
        Dipole                0.0731 Ry au,          0.1858 Debye
        Dipole field          0.0000 Ry au, 
 
        Potential amp.       -0.0049 Ry
        Total length         54.1761 bohr
 
 
     Adding external electric field

     Computed dipole along edir(3) : 
        Dipole                0.0731 Ry au,          0.1858 Debye
        Dipole field          0.0000 Ry au, 
 
        Potential amp.       -0.0049 Ry
        Total length         54.1761 bohr
 

     total cpu time spent up to now is    55860.4 secs

     total energy              =   -7057.88811604 Ry
     estimated scf accuracy    <       0.24172691 Ry

     total magnetization       =    72.98 Bohr mag/cell
     absolute magnetization    =    78.31 Bohr mag/cell

     iteration # 25     ecut=    50.00 Ry     beta= 0.20
     Davidson diagonalization with overlap
     c_bands:  1 eigenvalues not converged
     ethr =  2.27E-05,  avg # of iterations =  3.6

     negative rho (up, down):  7.392E-04 2.716E-03
 
     Adding external electric field

     Computed dipole along edir(3) : 
        Dipole                0.3028 Ry au,          0.7695 Debye
        Dipole field          0.0002 Ry au, 
 
        Potential amp.       -0.0202 Ry
        Total length         54.1761 bohr
 
 
     Adding external electric field

     Computed dipole along edir(3) : 
        Dipole                0.3028 Ry au,          0.7695 Debye
        Dipole field          0.0002 Ry au, 
 
        Potential amp.       -0.0202 Ry
        Total length         54.1761 bohr
 

     total cpu time spent up to now is    57517.8 secs

     total energy              =   -7057.92222392 Ry
     estimated scf accuracy    <       0.09721983 Ry

     total magnetization       =    72.87 Bohr mag/cell
     absolute magnetization    =    77.40 Bohr mag/cell

     iteration # 26     ecut=    50.00 Ry     beta= 0.20
     Davidson diagonalization with overlap
     c_bands:  2 eigenvalues not converged
     c_bands:  2 eigenvalues not converged
     ethr =  9.15E-06,  avg # of iterations =  8.4

     negative rho (up, down):  1.000E-03 8.987E-03
 
     Adding external electric field

     Computed dipole along edir(3) : 
        Dipole                0.0759 Ry au,          0.1929 Debye
        Dipole field          0.0000 Ry au, 
 
        Potential amp.       -0.0051 Ry
        Total length         54.1761 bohr
 
 
     Adding external electric field

     Computed dipole along edir(3) : 
        Dipole                0.0759 Ry au,          0.1929 Debye
        Dipole field          0.0000 Ry au, 
 
        Potential amp.       -0.0051 Ry
        Total length         54.1761 bohr
 

     total cpu time spent up to now is    59378.2 secs

     total energy              =   -7057.93821972 Ry
     estimated scf accuracy    <       0.33885684 Ry

     total magnetization       =    72.11 Bohr mag/cell
     absolute magnetization    =    75.90 Bohr mag/cell

     iteration # 27     ecut=    50.00 Ry     beta= 0.20
     Davidson diagonalization with overlap
     c_bands:  1 eigenvalues not converged
     ethr =  9.15E-06,  avg # of iterations =  3.6

     negative rho (up, down):  1.332E-03 1.269E-02
 
     Adding external electric field

     Computed dipole along edir(3) : 
        Dipole                0.0545 Ry au,          0.1385 Debye
        Dipole field          0.0000 Ry au, 
 
        Potential amp.       -0.0036 Ry
        Total length         54.1761 bohr
 
 
     Adding external electric field

     Computed dipole along edir(3) : 
        Dipole                0.0545 Ry au,          0.1385 Debye
        Dipole field          0.0000 Ry au, 
 
        Potential amp.       -0.0036 Ry
        Total length         54.1761 bohr
 

     total cpu time spent up to now is    61037.9 secs

     total energy              =   -7057.95791824 Ry
     estimated scf accuracy    <       0.04671716 Ry

     total magnetization       =    72.75 Bohr mag/cell
     absolute magnetization    =    75.85 Bohr mag/cell

     iteration # 28     ecut=    50.00 Ry     beta= 0.20
     Davidson diagonalization with overlap
     c_bands:  2 eigenvalues not converged
     c_bands:  3 eigenvalues not converged
     c_bands:  2 eigenvalues not converged
     c_bands:  2 eigenvalues not converged
     c_bands:  5 eigenvalues not converged
     c_bands:  3 eigenvalues not converged
     ethr =  4.39E-06,  avg # of iterations = 11.9

     negative rho (up, down):  1.329E-03 1.112E-02
 
     Adding external electric field

     Computed dipole along edir(3) : 
        Dipole                0.0729 Ry au,          0.1853 Debye
        Dipole field          0.0000 Ry au, 
 
        Potential amp.       -0.0049 Ry
        Total length         54.1761 bohr
 
 
     Adding external electric field

     Computed dipole along edir(3) : 
        Dipole                0.0729 Ry au,          0.1853 Debye
        Dipole field          0.0000 Ry au, 
 
        Potential amp.       -0.0049 Ry
        Total length         54.1761 bohr
 

     total cpu time spent up to now is    63192.3 secs

     total energy              =   -7057.96631332 Ry
     estimated scf accuracy    <       0.01752702 Ry

     total magnetization       =    72.54 Bohr mag/cell
     absolute magnetization    =    75.10 Bohr mag/cell

     iteration # 29     ecut=    50.00 Ry     beta= 0.20
     Davidson diagonalization with overlap
     c_bands:  2 eigenvalues not converged
     c_bands:  5 eigenvalues not converged
     c_bands:  5 eigenvalues not converged
     c_bands:  5 eigenvalues not converged
     c_bands:  5 eigenvalues not converged
     c_bands:  3 eigenvalues not converged
     c_bands:  4 eigenvalues not converged
     c_bands:  2 eigenvalues not converged
     c_bands:  4 eigenvalues not converged
     c_bands:  5 eigenvalues not converged
     c_bands:  1 eigenvalues not converged
     ethr =  1.65E-06,  avg # of iterations = 20.6

     negative rho (up, down):  1.215E-03 8.413E-03
 
     Adding external electric field

     Computed dipole along edir(3) : 
        Dipole                0.0437 Ry au,          0.1110 Debye
        Dipole field          0.0000 Ry au, 
 
        Potential amp.       -0.0029 Ry
        Total length         54.1761 bohr
 
 
     Adding external electric field

     Computed dipole along edir(3) : 
        Dipole                0.0437 Ry au,          0.1110 Debye
        Dipole field          0.0000 Ry au, 
 
        Potential amp.       -0.0029 Ry
        Total length         54.1761 bohr
 

     total cpu time spent up to now is    65967.8 secs

     total energy              =   -7057.97108460 Ry
     estimated scf accuracy    <       0.00898754 Ry

     total magnetization       =    72.71 Bohr mag/cell
     absolute magnetization    =    74.94 Bohr mag/cell

     iteration # 30     ecut=    50.00 Ry     beta= 0.20
     Davidson diagonalization with overlap
     c_bands:  2 eigenvalues not converged
     c_bands:  1 eigenvalues not converged
     c_bands:  1 eigenvalues not converged
     c_bands:  1 eigenvalues not converged
     c_bands:  2 eigenvalues not converged
     ethr =  8.45E-07,  avg # of iterations =  6.5

     negative rho (up, down):  1.013E-03 4.203E-03
 
     Adding external electric field

     Computed dipole along edir(3) : 
        Dipole                0.0286 Ry au,          0.0726 Debye
        Dipole field          0.0000 Ry au, 
 
        Potential amp.       -0.0019 Ry
        Total length         54.1761 bohr
 
 
     Adding external electric field

     Computed dipole along edir(3) : 
        Dipole                0.0286 Ry au,          0.0726 Debye
        Dipole field          0.0000 Ry au, 
 
        Potential amp.       -0.0019 Ry
        Total length         54.1761 bohr
 

     total cpu time spent up to now is    67626.1 secs

     total energy              =   -7057.97405178 Ry
     estimated scf accuracy    <       0.00324335 Ry

     total magnetization       =    72.62 Bohr mag/cell
     absolute magnetization    =    74.68 Bohr mag/cell

     iteration # 31     ecut=    50.00 Ry     beta= 0.20
     Davidson diagonalization with overlap
     c_bands:  2 eigenvalues not converged
     c_bands:  1 eigenvalues not converged
     ethr =  3.05E-07,  avg # of iterations =  6.7

     negative rho (up, down):  9.133E-04 1.864E-03
 
     Adding external electric field

     Computed dipole along edir(3) : 
        Dipole                0.0093 Ry au,          0.0237 Debye
        Dipole field          0.0000 Ry au, 
 
        Potential amp.       -0.0006 Ry
        Total length         54.1761 bohr
 
 
     Adding external electric field

     Computed dipole along edir(3) : 
        Dipole                0.0093 Ry au,          0.0237 Debye
        Dipole field          0.0000 Ry au, 
 
        Potential amp.       -0.0006 Ry
        Total length         54.1761 bohr
 

     total cpu time spent up to now is    69572.2 secs

     total energy              =   -7057.97527053 Ry
     estimated scf accuracy    <       0.00157365 Ry

     total magnetization       =    72.66 Bohr mag/cell
     absolute magnetization    =    74.58 Bohr mag/cell

     iteration # 32     ecut=    50.00 Ry     beta= 0.20
     Davidson diagonalization with overlap
     c_bands:  2 eigenvalues not converged
     c_bands:  5 eigenvalues not converged
     ethr =  1.48E-07,  avg # of iterations =  4.1

     negative rho (up, down):  8.579E-04 8.318E-04
 
     Adding external electric field

     Computed dipole along edir(3) : 
        Dipole               -0.0031 Ry au,         -0.0078 Debye
        Dipole field         -0.0000 Ry au, 
 
        Potential amp.        0.0002 Ry
        Total length         54.1761 bohr
 
 
     Adding external electric field

     Computed dipole along edir(3) : 
        Dipole               -0.0031 Ry au,         -0.0078 Debye
        Dipole field         -0.0000 Ry au, 
 
        Potential amp.        0.0002 Ry
        Total length         54.1761 bohr
 

     total cpu time spent up to now is    71394.3 secs

     total energy              =   -7057.97567198 Ry
     estimated scf accuracy    <       0.00056110 Ry

     total magnetization       =    72.62 Bohr mag/cell
     absolute magnetization    =    74.44 Bohr mag/cell

     iteration # 33     ecut=    50.00 Ry     beta= 0.20
     Davidson diagonalization with overlap
     ethr =  5.28E-08,  avg # of iterations =  2.3

     negative rho (up, down):  8.417E-04 6.328E-04
 
     Adding external electric field

     Computed dipole along edir(3) : 
        Dipole               -0.0044 Ry au,         -0.0111 Debye
        Dipole field         -0.0000 Ry au, 
 
        Potential amp.        0.0003 Ry
        Total length         54.1761 bohr
 
 
     Adding external electric field

     Computed dipole along edir(3) : 
        Dipole               -0.0044 Ry au,         -0.0111 Debye
        Dipole field         -0.0000 Ry au, 
 
        Potential amp.        0.0003 Ry
        Total length         54.1761 bohr
 

     total cpu time spent up to now is    73104.2 secs

     total energy              =   -7057.97578070 Ry
     estimated scf accuracy    <       0.00012504 Ry

     total magnetization       =    72.65 Bohr mag/cell
     absolute magnetization    =    74.43 Bohr mag/cell

     iteration # 34     ecut=    50.00 Ry     beta= 0.20
     Davidson diagonalization with overlap
     c_bands:  1 eigenvalues not converged
     c_bands:  2 eigenvalues not converged
     ethr =  1.18E-08,  avg # of iterations = 11.8

     negative rho (up, down):  8.279E-04 4.821E-04
 
     Adding external electric field

     Computed dipole along edir(3) : 
        Dipole               -0.0069 Ry au,         -0.0176 Debye
        Dipole field         -0.0000 Ry au, 
 
        Potential amp.        0.0005 Ry
        Total length         54.1761 bohr
 
 
     Adding external electric field

     Computed dipole along edir(3) : 
        Dipole               -0.0069 Ry au,         -0.0176 Debye
        Dipole field         -0.0000 Ry au, 
 
        Potential amp.        0.0005 Ry
        Total length         54.1761 bohr
 

     total cpu time spent up to now is    75831.6 secs

     total energy              =   -7057.97584594 Ry
     estimated scf accuracy    <       0.00007108 Ry

     total magnetization       =    72.65 Bohr mag/cell
     absolute magnetization    =    74.41 Bohr mag/cell

     iteration # 35     ecut=    50.00 Ry     beta= 0.20
     Davidson diagonalization with overlap
     c_bands:  1 eigenvalues not converged
     ethr =  6.69E-09,  avg # of iterations =  3.2

     negative rho (up, down):  8.269E-04 4.961E-04
 
     Adding external electric field

     Computed dipole along edir(3) : 
        Dipole               -0.0068 Ry au,         -0.0174 Debye
        Dipole field         -0.0000 Ry au, 
 
        Potential amp.        0.0005 Ry
        Total length         54.1761 bohr
 
 
     Adding external electric field

     Computed dipole along edir(3) : 
        Dipole               -0.0068 Ry au,         -0.0174 Debye
        Dipole field         -0.0000 Ry au, 
 
        Potential amp.        0.0005 Ry
        Total length         54.1761 bohr
 

     total cpu time spent up to now is    77534.4 secs

     total energy              =   -7057.97588416 Ry
     estimated scf accuracy    <       0.00003606 Ry

     total magnetization       =    72.65 Bohr mag/cell
     absolute magnetization    =    74.39 Bohr mag/cell

     iteration # 36     ecut=    50.00 Ry     beta= 0.20
     Davidson diagonalization with overlap
     c_bands:  2 eigenvalues not converged
     ethr =  3.39E-09,  avg # of iterations =  4.5

     negative rho (up, down):  8.242E-04 4.848E-04
 
     Adding external electric field

     Computed dipole along edir(3) : 
        Dipole               -0.0114 Ry au,         -0.0290 Debye
        Dipole field         -0.0000 Ry au, 
 
        Potential amp.        0.0008 Ry
        Total length         54.1761 bohr
 
 
     Adding external electric field

     Computed dipole along edir(3) : 
        Dipole               -0.0114 Ry au,         -0.0290 Debye
        Dipole field         -0.0000 Ry au, 
 
        Potential amp.        0.0008 Ry
        Total length         54.1761 bohr
 

     total cpu time spent up to now is    79583.7 secs

     total energy              =   -7057.97590485 Ry
     estimated scf accuracy    <       0.00001748 Ry

     total magnetization       =    72.65 Bohr mag/cell
     absolute magnetization    =    74.38 Bohr mag/cell

     iteration # 37     ecut=    50.00 Ry     beta= 0.20
     Davidson diagonalization with overlap
     ethr =  1.64E-09,  avg # of iterations =  2.0

     negative rho (up, down):  8.274E-04 5.323E-04
 
     Adding external electric field

     Computed dipole along edir(3) : 
        Dipole               -0.0033 Ry au,         -0.0085 Debye
        Dipole field         -0.0000 Ry au, 
 
        Potential amp.        0.0002 Ry
        Total length         54.1761 bohr
 
 
     Adding external electric field

     Computed dipole along edir(3) : 
        Dipole               -0.0033 Ry au,         -0.0085 Debye
        Dipole field         -0.0000 Ry au, 
 
        Potential amp.        0.0002 Ry
        Total length         54.1761 bohr
 

     total cpu time spent up to now is    81459.1 secs

     total energy              =   -7057.97590733 Ry
     estimated scf accuracy    <       0.00003717 Ry

     total magnetization       =    72.65 Bohr mag/cell
     absolute magnetization    =    74.36 Bohr mag/cell

     iteration # 38     ecut=    50.00 Ry     beta= 0.20
     Davidson diagonalization with overlap
     ethr =  1.64E-09,  avg # of iterations =  1.5

     negative rho (up, down):  8.265E-04 5.289E-04
 
     Adding external electric field

     Computed dipole along edir(3) : 
        Dipole               -0.0068 Ry au,         -0.0174 Debye
        Dipole field         -0.0000 Ry au, 
 
        Potential amp.        0.0005 Ry
        Total length         54.1761 bohr
 
 
     Adding external electric field

     Computed dipole along edir(3) : 
        Dipole               -0.0068 Ry au,         -0.0174 Debye
        Dipole field         -0.0000 Ry au, 
 
        Potential amp.        0.0005 Ry
        Total length         54.1761 bohr
 

     total cpu time spent up to now is    82998.6 secs

     total energy              =   -7057.97591514 Ry
     estimated scf accuracy    <       0.00002424 Ry

     total magnetization       =    72.65 Bohr mag/cell
     absolute magnetization    =    74.36 Bohr mag/cell

     iteration # 39     ecut=    50.00 Ry     beta= 0.20
     Davidson diagonalization with overlap
     ethr =  1.64E-09,  avg # of iterations =  2.0

     negative rho (up, down):  8.273E-04 5.476E-04
 
     Adding external electric field

     Computed dipole along edir(3) : 
        Dipole               -0.0056 Ry au,         -0.0143 Debye
        Dipole field         -0.0000 Ry au, 
 
        Potential amp.        0.0004 Ry
        Total length         54.1761 bohr
 
 
     Adding external electric field

     Computed dipole along edir(3) : 
        Dipole               -0.0056 Ry au,         -0.0143 Debye
        Dipole field         -0.0000 Ry au, 
 
        Potential amp.        0.0004 Ry
        Total length         54.1761 bohr
 

     total cpu time spent up to now is    84775.4 secs

     total energy              =   -7057.97591870 Ry
     estimated scf accuracy    <       0.00000244 Ry

     total magnetization       =    72.65 Bohr mag/cell
     absolute magnetization    =    74.35 Bohr mag/cell

     iteration # 40     ecut=    50.00 Ry     beta= 0.20
     Davidson diagonalization with overlap
     ethr =  2.29E-10,  avg # of iterations =  3.9

     negative rho (up, down):  8.266E-04 5.388E-04
 
     Adding external electric field

     Computed dipole along edir(3) : 
        Dipole               -0.0059 Ry au,         -0.0151 Debye
        Dipole field         -0.0000 Ry au, 
 
        Potential amp.        0.0004 Ry
        Total length         54.1761 bohr
 
 
     Adding external electric field

     Computed dipole along edir(3) : 
        Dipole               -0.0059 Ry au,         -0.0151 Debye
        Dipole field         -0.0000 Ry au, 
 
        Potential amp.        0.0004 Ry
        Total length         54.1761 bohr
 

     total cpu time spent up to now is    86720.7 secs

     total energy              =   -7057.97591940 Ry
     estimated scf accuracy    <       0.00000333 Ry

     total magnetization       =    72.65 Bohr mag/cell
     absolute magnetization    =    74.35 Bohr mag/cell

     iteration # 41     ecut=    50.00 Ry     beta= 0.20
     Davidson diagonalization with overlap
     ethr =  2.29E-10,  avg # of iterations =  2.0

     negative rho (up, down):  8.252E-04 5.257E-04
 
     Adding external electric field

     Computed dipole along edir(3) : 
        Dipole               -0.0010 Ry au,         -0.0025 Debye
        Dipole field         -0.0000 Ry au, 
 
        Potential amp.        0.0001 Ry
        Total length         54.1761 bohr
 
 
     Adding external electric field

     Computed dipole along edir(3) : 
        Dipole               -0.0010 Ry au,         -0.0025 Debye
        Dipole field         -0.0000 Ry au, 
 
        Potential amp.        0.0001 Ry
        Total length         54.1761 bohr
 
 
     Magnetic moment per site:
     atom:    1    charge:    7.1216    magn:    1.4621    constr:    0.0000
     atom:    2    charge:    7.1112    magn:    1.5493    constr:    0.0000
     atom:    3    charge:    7.1217    magn:    1.4620    constr:    0.0000
     atom:    4    charge:    7.1112    magn:    1.5493    constr:    0.0000
     atom:    5    charge:    7.1307    magn:    1.5059    constr:    0.0000
     atom:    6    charge:    7.1307    magn:    1.5059    constr:    0.0000
     atom:    7    charge:    0.8200    magn:    0.0061    constr:    0.0000
     atom:    8    charge:    0.8228    magn:    0.0031    constr:    0.0000
     atom:    9    charge:    0.8228    magn:    0.0031    constr:    0.0000
     atom:   10    charge:    0.8200    magn:    0.0061    constr:    0.0000
     atom:   11    charge:    2.0404    magn:    0.0803    constr:    0.0000
     atom:   12    charge:    2.0402    magn:    0.1013    constr:    0.0000
     atom:   13    charge:    2.0402    magn:    0.1013    constr:    0.0000
     atom:   14    charge:    2.0404    magn:    0.0803    constr:    0.0000
     atom:   15    charge:    2.0484    magn:    0.0585    constr:    0.0000
     atom:   16    charge:    2.0305    magn:    0.0517    constr:    0.0000
     atom:   17    charge:    2.0305    magn:    0.0517    constr:    0.0000
     atom:   18    charge:    2.0484    magn:    0.0585    constr:    0.0000
     atom:   19    charge:    2.0463    magn:    0.0591    constr:    0.0000
     atom:   20    charge:    2.0418    magn:    0.0560    constr:    0.0000
     atom:   21    charge:    2.0482    magn:    0.0504    constr:    0.0000
     atom:   22    charge:    2.0466    magn:    0.0500    constr:    0.0000
     atom:   23    charge:    2.0466    magn:    0.0500    constr:    0.0000
     atom:   24    charge:    2.0418    magn:    0.0560    constr:    0.0000
     atom:   25    charge:    2.0463    magn:    0.0591    constr:    0.0000
     atom:   26    charge:    2.0482    magn:    0.0504    constr:    0.0000
     atom:   27    charge:    7.1136    magn:    1.5432    constr:    0.0000
     atom:   28    charge:    7.1127    magn:    1.5434    constr:    0.0000
     atom:   29    charge:    7.1135    magn:    1.5434    constr:    0.0000
     atom:   30    charge:    7.1131    magn:    1.5428    constr:    0.0000
     atom:   31    charge:    7.1324    magn:    1.5043    constr:    0.0000
     atom:   32    charge:    7.1323    magn:    1.5040    constr:    0.0000
     atom:   33    charge:    0.8200    magn:    0.0062    constr:    0.0000
     atom:   34    charge:    0.8202    magn:    0.0063    constr:    0.0000
     atom:   35    charge:    0.8202    magn:    0.0063    constr:    0.0000
     atom:   36    charge:    0.8200    magn:    0.0062    constr:    0.0000
     atom:   37    charge:    2.0411    magn:    0.0836    constr:    0.0000
     atom:   38    charge:    2.0411    magn:    0.0835    constr:    0.0000
     atom:   39    charge:    2.0411    magn:    0.0836    constr:    0.0000
     atom:   40    charge:    2.0411    magn:    0.0837    constr:    0.0000
     atom:   41    charge:    2.0483    magn:    0.0590    constr:    0.0000
     atom:   42    charge:    2.0483    magn:    0.0588    constr:    0.0000
     atom:   43    charge:    2.0483    magn:    0.0588    constr:    0.0000
     atom:   44    charge:    2.0486    magn:    0.0584    constr:    0.0000
     atom:   45    charge:    2.0474    magn:    0.0588    constr:    0.0000
     atom:   46    charge:    2.0470    magn:    0.0588    constr:    0.0000
     atom:   47    charge:    2.0486    magn:    0.0505    constr:    0.0000
     atom:   48    charge:    2.0486    magn:    0.0503    constr:    0.0000
     atom:   49    charge:    2.0486    magn:    0.0503    constr:    0.0000
     atom:   50    charge:    2.0470    magn:    0.0588    constr:    0.0000
     atom:   51    charge:    2.0474    magn:    0.0587    constr:    0.0000
     atom:   52    charge:    2.0486    magn:    0.0503    constr:    0.0000
     atom:   53    charge:    7.1085    magn:    1.5526    constr:    0.0000
     atom:   54    charge:    7.0634    magn:    1.6937    constr:    0.0000
     atom:   55    charge:    7.1105    magn:    1.5458    constr:    0.0000
     atom:   56    charge:    7.1225    magn:    1.4650    constr:    0.0000
     atom:   57    charge:    7.1303    magn:    1.4997    constr:    0.0000
     atom:   58    charge:    7.1276    magn:    1.5048    constr:    0.0000
     atom:   59    charge:    0.8177    magn:    0.0042    constr:    0.0000
     atom:   60    charge:    0.8190    magn:    0.0061    constr:    0.0000
     atom:   61    charge:    0.8206    magn:    0.0060    constr:    0.0000
     atom:   62    charge:    0.8174    magn:    0.0043    constr:    0.0000
     atom:   63    charge:    2.0381    magn:    0.1038    constr:    0.0000
     atom:   64    charge:    2.0394    magn:    0.0872    constr:    0.0000
     atom:   65    charge:    2.0416    magn:    0.0784    constr:    0.0000
     atom:   66    charge:    2.0386    magn:    0.1087    constr:    0.0000
     atom:   67    charge:    2.0396    magn:    0.0408    constr:    0.0000
     atom:   68    charge:    2.0470    magn:    0.0596    constr:    0.0000
     atom:   69    charge:    2.0466    magn:    0.0568    constr:    0.0000
     atom:   70    charge:    2.0367    magn:    0.0468    constr:    0.0000
     atom:   71    charge:    2.0413    magn:    0.0557    constr:    0.0000
     atom:   72    charge:    2.0459    magn:    0.0587    constr:    0.0000
     atom:   73    charge:    2.0462    magn:    0.0521    constr:    0.0000
     atom:   74    charge:    2.0479    magn:    0.0496    constr:    0.0000
     atom:   75    charge:    2.0475    magn:    0.0488    constr:    0.0000
     atom:   76    charge:    2.0453    magn:    0.0607    constr:    0.0000
     atom:   77    charge:    2.0429    magn:    0.0552    constr:    0.0000
     atom:   78    charge:    2.0448    magn:    0.0580    constr:    0.0000
     atom:   79    charge:    7.1217    magn:    1.4620    constr:    0.0000
     atom:   80    charge:    7.1112    magn:    1.5493    constr:    0.0000
     atom:   81    charge:    7.1218    magn:    1.4620    constr:    0.0000
     atom:   82    charge:    7.1112    magn:    1.5493    constr:    0.0000
     atom:   83    charge:    7.1307    magn:    1.5059    constr:    0.0000
     atom:   84    charge:    7.1307    magn:    1.5059    constr:    0.0000
     atom:   85    charge:    0.8200    magn:    0.0061    constr:    0.0000
     atom:   86    charge:    0.8228    magn:    0.0031    constr:    0.0000
     atom:   87    charge:    0.8228    magn:    0.0031    constr:    0.0000
     atom:   88    charge:    0.8200    magn:    0.0061    constr:    0.0000
     atom:   89    charge:    2.0404    magn:    0.0804    constr:    0.0000
     atom:   90    charge:    2.0402    magn:    0.1013    constr:    0.0000
     atom:   91    charge:    2.0402    magn:    0.1013    constr:    0.0000
     atom:   92    charge:    2.0404    magn:    0.0803    constr:    0.0000
     atom:   93    charge:    2.0484    magn:    0.0585    constr:    0.0000
     atom:   94    charge:    2.0305    magn:    0.0517    constr:    0.0000
     atom:   95    charge:    2.0305    magn:    0.0517    constr:    0.0000
     atom:   96    charge:    2.0484    magn:    0.0585    constr:    0.0000
     atom:   97    charge:    2.0463    magn:    0.0591    constr:    0.0000
     atom:   98    charge:    2.0418    magn:    0.0560    constr:    0.0000
     atom:   99    charge:    2.0482    magn:    0.0504    constr:    0.0000
     atom:  100    charge:    2.0466    magn:    0.0500    constr:    0.0000
     atom:  101    charge:    2.0466    magn:    0.0500    constr:    0.0000
     atom:  102    charge:    2.0418    magn:    0.0560    constr:    0.0000
     atom:  103    charge:    2.0463    magn:    0.0591    constr:    0.0000
     atom:  104    charge:    2.0482    magn:    0.0504    constr:    0.0000
     atom:  105    charge:    7.1135    magn:    1.5436    constr:    0.0000
     atom:  106    charge:    7.1130    magn:    1.5435    constr:    0.0000
     atom:  107    charge:    7.1136    magn:    1.5434    constr:    0.0000
     atom:  108    charge:    7.1130    magn:    1.5435    constr:    0.0000
     atom:  109    charge:    7.1323    magn:    1.5041    constr:    0.0000
     atom:  110    charge:    7.1323    magn:    1.5045    constr:    0.0000
     atom:  111    charge:    0.8201    magn:    0.0062    constr:    0.0000
     atom:  112    charge:    0.8202    magn:    0.0063    constr:    0.0000
     atom:  113    charge:    0.8202    magn:    0.0063    constr:    0.0000
     atom:  114    charge:    0.8199    magn:    0.0062    constr:    0.0000
     atom:  115    charge:    2.0411    magn:    0.0839    constr:    0.0000
     atom:  116    charge:    2.0411    magn:    0.0836    constr:    0.0000
     atom:  117    charge:    2.0411    magn:    0.0836    constr:    0.0000
     atom:  118    charge:    2.0411    magn:    0.0837    constr:    0.0000
     atom:  119    charge:    2.0486    magn:    0.0584    constr:    0.0000
     atom:  120    charge:    2.0483    magn:    0.0588    constr:    0.0000
     atom:  121    charge:    2.0483    magn:    0.0588    constr:    0.0000
     atom:  122    charge:    2.0484    magn:    0.0583    constr:    0.0000
     atom:  123    charge:    2.0474    magn:    0.0588    constr:    0.0000
     atom:  124    charge:    2.0470    magn:    0.0589    constr:    0.0000
     atom:  125    charge:    2.0486    magn:    0.0504    constr:    0.0000
     atom:  126    charge:    2.0486    magn:    0.0503    constr:    0.0000
     atom:  127    charge:    2.0486    magn:    0.0503    constr:    0.0000
     atom:  128    charge:    2.0470    magn:    0.0588    constr:    0.0000
     atom:  129    charge:    2.0475    magn:    0.0587    constr:    0.0000
     atom:  130    charge:    2.0486    magn:    0.0504    constr:    0.0000
     atom:  131    charge:    7.1119    magn:    1.5421    constr:    0.0000
     atom:  132    charge:    7.1236    magn:    1.4721    constr:    0.0000
     atom:  133    charge:    7.1098    magn:    1.5475    constr:    0.0000
     atom:  134    charge:    7.1220    magn:    1.4614    constr:    0.0000
     atom:  135    charge:    7.1275    magn:    1.4964    constr:    0.0000
     atom:  136    charge:    7.1263    magn:    1.5067    constr:    0.0000
     atom:  137    charge:    0.8181    magn:    0.0051    constr:    0.0000
     atom:  138    charge:    0.8202    magn:    0.0061    constr:    0.0000
     atom:  139    charge:    0.8202    magn:    0.0058    constr:    0.0000
     atom:  140    charge:    0.8175    magn:    0.0040    constr:    0.0000
     atom:  141    charge:    2.0409    magn:    0.0809    constr:    0.0000
     atom:  142    charge:    2.0423    magn:    0.0810    constr:    0.0000
     atom:  143    charge:    2.0416    magn:    0.0797    constr:    0.0000
     atom:  144    charge:    2.0351    magn:    0.1119    constr:    0.0000
     atom:  145    charge:    2.0390    magn:    0.0624    constr:    0.0000
     atom:  146    charge:    2.0462    magn:    0.0561    constr:    0.0000
     atom:  147    charge:    2.0474    magn:    0.0574    constr:    0.0000
     atom:  148    charge:    2.0361    magn:    0.0463    constr:    0.0000
     atom:  149    charge:    2.0410    magn:    0.0678    constr:    0.0000
     atom:  150    charge:    2.0463    magn:    0.0596    constr:    0.0000
     atom:  151    charge:    2.0440    magn:    0.0497    constr:    0.0000
     atom:  152    charge:    2.0463    magn:    0.0499    constr:    0.0000
     atom:  153    charge:    2.0480    magn:    0.0513    constr:    0.0000
     atom:  154    charge:    2.0458    magn:    0.0581    constr:    0.0000
     atom:  155    charge:    2.0432    magn:    0.0571    constr:    0.0000
     atom:  156    charge:    2.0450    magn:    0.0526    constr:    0.0000
     atom:  157    charge:    2.0223    magn:    0.2309    constr:    0.0000
     atom:  158    charge:    0.3969    magn:   -0.0019    constr:    0.0000

     total cpu time spent up to now is    88397.9 secs

     End of self-consistent calculation

 ------ SPIN UP ------------


          k = 0.0000 0.0000 0.0000 (121819 PWs)   bands (ev):

   -21.4417 -21.3053 -21.2452 -21.2156 -21.1805 -21.1777 -21.1721 -21.1278
   -21.1008 -21.0984 -21.0767 -21.0222 -21.0176 -20.9926 -20.9530 -20.9354
   -20.8228 -20.8147 -20.7828 -20.7158 -20.7029 -20.6718 -20.6115 -20.5769
   -19.0279 -19.0265 -18.9779 -18.9705 -18.9369 -18.9188 -18.9064 -18.8977
   -18.8734 -18.8225 -18.8136 -18.8128 -18.7738 -18.7685 -18.7469 -18.7356
   -18.7267 -18.7162 -18.7121 -18.7090 -18.6991 -18.6957 -18.6791 -18.6678
   -18.6644 -18.6534 -18.6417 -18.6253 -18.6147 -18.5948 -18.5714 -18.5708
   -18.5706 -18.5653 -18.5507 -18.5459 -18.5400 -18.5305 -18.5216 -18.5073
   -18.5040 -18.4949 -18.4904 -18.4800 -18.4776 -18.4749 -18.4549 -18.4459
   -18.4421 -18.4360 -18.4344 -18.4179 -18.3877 -18.3864 -18.3688 -18.3606
   -18.3383 -18.3363 -18.3244 -18.3030 -18.3021 -18.2392 -18.1819 -18.1370
   -18.0521 -17.8358 -17.8213 -17.7869 -17.5546 -17.4374 -17.4162 -17.4126
   -17.3982  -8.8955  -8.7089  -8.5722  -8.5153  -8.5117  -8.4788  -8.4376
    -8.4248  -8.4018  -8.3993  -8.3944  -8.3553  -8.3332  -8.3293  -8.3043
    -8.2530  -8.1407  -8.0773  -8.0444  -7.9896  -7.9374  -7.9292  -7.9231
    -7.8990  -7.5332  -7.2957  -7.1481  -7.1391  -7.0245  -6.9481  -6.9047
    -6.8350  -6.6995  -6.6643  -6.6575  -6.6383  -6.6316  -6.6245  -6.5827
    -6.5640  -6.5088  -6.4512  -6.4080  -6.3938  -6.3688  -6.3454  -6.3388
    -6.2851  -6.2792  -6.2770  -6.2717  -6.2627  -6.2406  -6.2133  -6.1935
    -6.1784  -6.1132  -6.0986  -6.0894  -6.0769  -6.0499  -6.0355  -6.0317
    -6.0298  -5.9710  -5.9648  -5.9469  -5.9452  -5.9303  -5.9211  -5.8622
    -5.8555  -5.8407  -5.7923  -5.7773  -5.7307  -5.7038  -5.7026  -5.6613
    -5.6285  -5.6098  -5.5934  -5.5557  -5.5126  -5.5040  -5.4691  -5.4634
    -5.4534  -5.3946  -5.3824  -5.3773  -5.3401  -5.3326  -5.3243  -5.2967
    -5.2740  -5.2617  -5.2531  -5.2263  -5.1758  -5.1568  -5.1556  -5.0872
    -5.0244  -5.0008  -4.9589  -4.9583  -4.9317  -4.9160  -4.9005  -4.8923
    -4.8835  -4.8548  -4.7796  -4.7700  -4.7625  -4.7045  -4.6792  -4.6519
    -4.6091  -4.5717  -4.5389  -4.4933  -4.4785  -4.4688  -4.4330  -4.4139
    -4.3958  -4.3856  -4.3700  -4.3366  -4.3235  -4.3200  -4.2840  -4.2828
    -4.2414  -4.2118  -4.1998  -4.1881  -4.1795  -4.1427  -4.1285  -4.1155
    -4.0944  -4.0874  -4.0648  -4.0411  -4.0288  -3.9728  -3.9705  -3.9631
    -3.9404  -3.9267  -3.9171  -3.9005  -3.8705  -3.8519  -3.7826  -3.7762
    -3.7684  -3.7548  -3.7357  -3.7312  -3.7250  -3.7126  -3.6846  -3.6744
    -3.6553  -3.6433  -3.6382  -3.6245  -3.6009  -3.5834  -3.5804  -3.5295
    -3.5265  -3.5197  -3.5155  -3.5007  -3.4887  -3.4763  -3.4608  -3.4493
    -3.4407  -3.4158  -3.3879  -3.3699  -3.3525  -3.3278  -3.3078  -3.3038
    -3.2968  -3.2749  -3.2626  -3.2506  -3.2439  -3.2269  -3.2047  -3.1978
    -3.1271  -3.1090  -3.0907  -3.0769  -3.0557  -3.0500  -3.0226  -3.0153
    -3.0044  -2.9476  -2.9176  -2.8990  -2.8590  -2.8318  -2.8159  -2.8104
    -2.7963  -2.7915  -2.7386  -2.7241  -2.7156  -2.6942  -2.6780  -2.6751
    -2.6648  -2.6010  -2.5918  -2.5651  -2.5485  -2.5427  -2.5313  -2.5224
    -2.5057  -2.4935  -2.4752  -2.4522  -2.4314  -2.4267  -2.3817  -2.3748
    -2.3491  -2.3383  -2.3290  -2.3161  -2.2853  -2.2417  -2.2275  -2.2162
    -2.1964  -2.1885  -2.1771  -2.1582  -2.1503  -2.1398  -2.1364  -2.1357
    -2.0986  -2.0838  -2.0753  -2.0295  -2.0153  -2.0074  -2.0033  -1.9863
    -1.9642  -1.9585  -1.9445  -1.9191  -1.9081  -1.8955  -1.8889  -1.8429
    -1.8331  -1.8191  -1.8145  -1.8078  -1.7850  -1.7828  -1.7713  -1.7321
    -1.6730  -1.6370  -1.5701  -1.5326  -1.4566  -1.3718  -1.2897  -1.2781
[...]
    -6.1322  -6.1061  -6.1034  -6.0967  -6.0845  -6.0383  -6.0326  -6.0294
    -6.0281  -6.0060  -5.9994  -5.9902  -5.9882  -5.9135  -5.9066  -5.9015
    -5.8945  -5.8719  -5.8706  -5.8518  -5.8418  -5.7634  -5.7628  -5.7568
    -5.7522  -5.6724  -5.6654  -5.6630  -5.6498  -5.5607  -5.5272  -5.4978
    -5.4923  -5.4569  -5.4473  -5.4163  -5.4108  -5.4032  -5.4011  -5.3836
    -5.3534  -5.1333  -4.9800  -4.9772  -4.9734  -4.9677  -4.9373  -4.9260
    -4.9069  -4.7893  -4.7365  -4.7351  -4.7321  -4.7069  -4.6406  -4.6380
    -4.6298  -4.6255  -4.5973  -4.5801  -4.5710  -4.5267  -4.3887  -4.3877
    -4.3869  -4.3742  -4.3278  -4.3094  -4.3076  -4.2846  -4.2419  -4.2331
    -4.2241  -4.2035  -4.1658  -4.1553  -4.1477  -4.1039  -3.9859  -3.9759
    -3.9721  -3.9523  -3.9056  -3.9004  -3.8834  -3.8430  -3.7757  -3.7724
    -3.7692  -3.7535  -3.7201  -3.7128  -3.7104  -3.7044  -3.6914  -3.6831
    -3.6820  -3.6696  -3.6180  -3.6135  -3.6114  -3.6050  -3.5537  -3.5349
    -3.5218  -3.5127  -3.4410  -3.4328  -3.4289  -3.4143  -3.3991  -3.3872
    -3.3774  -3.3667  -3.2962  -3.2918  -3.2865  -3.2768  -3.2655  -3.2557
    -3.2519  -3.2478  -3.1797  -3.1773  -3.1720  -3.1695  -3.0283  -3.0119
    -3.0020  -2.9963  -2.9613  -2.9532  -2.9371  -2.9296  -2.9013  -2.8972
    -2.8835  -2.8709  -2.7899  -2.7790  -2.7742  -2.7685  -2.7593  -2.7356
    -2.7299  -2.7080  -2.6819  -2.6625  -2.6597  -2.6428  -2.6355  -2.6181
    -2.6140  -2.5927  -2.5869  -2.5834  -2.5768  -2.5629  -2.5197  -2.5175
    -2.5047  -2.4954  -2.4863  -2.4808  -2.4764  -2.4716  -2.4614  -2.4600
    -2.4439  -2.4086  -2.3526  -2.3519  -2.3464  -2.3209  -2.2847  -2.2779
    -2.2686  -2.2558  -2.2520  -2.2402  -2.2277  -2.2217  -2.1879  -2.1783
    -2.1737  -2.1717  -2.0680  -2.0528  -2.0466  -2.0396  -1.9980  -1.9708
    -1.9578  -1.9490  -1.9423  -1.9411  -1.9380  -1.9291  -1.9111  -1.9033
    -1.9005  -1.8786  -1.7986  -1.7820  -1.7803  -1.7765  -1.7700  -1.7569
    -1.7560  -1.7331  -1.7034  -1.6102  -1.6099  -1.6068  -1.5951  -1.5558
    -1.5334  -1.5211  -1.4946  -1.4873  -1.4634  -1.4521  -1.4446  -1.4093
    -1.3916  -1.3857  -1.2979  -1.2580  -1.2488  -1.2460  -1.2158  -1.2058
    -1.2045  -1.2042  -1.1905  -1.0379  -0.9762  -0.9237  -0.8600  -0.6765
    -0.6765  -0.6764  -0.6764  -0.6467   0.1347   0.1417   0.1430   0.1441
     0.1616   0.1771   0.1799   0.1840   0.1944   0.2054   0.2106   0.2146
     0.2237   0.2290   0.2303   0.2358   0.2398   0.2490   0.2566   0.2620
     0.2693   0.2767   0.2828   0.2925   0.2963   0.2990   0.3010   0.3022
     0.3092   0.3202   0.3222   0.3274   0.3381   0.3651   0.3676   0.3685
     0.3722   0.3733   0.3793   0.3880   0.3907   0.3945   0.3960   0.4017
     0.4032   0.4136   0.4173   0.4339   0.4454   0.4511   0.4539   0.4579
     0.4636   0.4711   0.4768   0.4830   0.4871   0.4924   0.4940   0.5024
     0.5047   0.5101   0.5146   0.5160   0.5279   0.5299   0.5309   0.5433
     0.5441   0.5468   0.5607   0.5789   0.5881   0.5957   0.6008   0.6081
     0.6231   0.6317   0.6347   0.6437   0.6491   0.6598   0.6662   0.6872
     0.6901   0.6935   0.6983   0.7152   0.7183   0.7261   0.7319   0.7508
     0.7609   0.7667   0.7690   0.7852   0.7898   0.7931   0.7979   0.8008
     0.8167   0.8237   0.8317   0.8321   0.8335   0.8345   0.8539   1.2989
     1.4241   1.4241   1.4242   1.4244   1.5075   1.5658   1.5766   1.6769
     1.8278   1.8357   1.8430   1.8447   1.8685   1.8706   1.8778   1.8851
     1.9670   1.9747   1.9778   1.9881   2.0278   2.0355   2.0362   2.0514
     2.0587   2.0650   2.0706   2.0732   2.0839   2.0892   2.0898   2.0920
     2.0978   2.1169   2.1255   2.1274   2.1912   2.2112   2.2174   2.2288
     2.2355   2.2470   2.2554   2.2895   2.3017   2.3045   2.3063   2.3299
     2.3453   2.3499   2.3606   2.3926   2.4210   2.4733   2.4779   2.4971
     2.5096   2.5267   2.5349   2.5455   2.5785   2.6136   2.6181   2.6221
     2.6347   2.6457   2.6477   2.6520   2.6562   2.6822   2.7043   2.7154
     5.7265   5.7268   5.7279   5.7308   5.9080   5.9170   5.9506   6.0951
     6.2886   6.2928   6.3111   6.4911   6.7896   6.8016   6.8127   6.9354
     7.1115   7.1265   7.1295   7.2691   7.3304   7.3385   7.3497   7.4303
     7.6338   7.6420   7.6435   7.7160   7.8465   7.8529   7.8588   7.8709
     7.9209   7.9244   7.9362   7.9780   8.0642   8.0770   8.0937   8.1531
     8.1673   8.1771   8.1953   8.2436   8.2887   8.2931   8.3071   8.3150
     8.3218   8.3320   8.3388   8.3438   8.3485   8.3701   8.3820   8.4021
     8.4447   8.4518   8.4807   8.4946   8.5249   8.5308   8.5526   8.6672
     8.6841   8.6873   8.6890   8.7091   8.7322   8.7533

     the Fermi energy is     1.1920 ev

!    total energy              =   -7057.97591974 Ry
     estimated scf accuracy    <       0.00000045 Ry
     smearing contrib. (-TS)   =      -0.00475401 Ry
     internal energy E=F+TS    =   -7057.97116573 Ry

     The total energy is F=E-TS. E is the sum of the following terms:
     one-electron contribution =  -89074.84336855 Ry
     hartree contribution      =   45215.22161990 Ry
     xc contribution           =   -2299.49440896 Ry
     ewald contribution        =   39102.98354068 Ry
     Dispersion Correction     =      -1.83854880 Ry
     electric field correction =       0.00000000 Ry

     total magnetization       =    72.65 Bohr mag/cell
     absolute magnetization    =    74.35 Bohr mag/cell

     convergence has been achieved in  41 iterations

     negative rho (up, down):  8.252E-04 5.257E-04

     Forces acting on atoms (cartesian axes, Ry/au):

     atom    1 type  1   force =     0.02941340   -0.01705909    0.01841273
     atom    2 type  1   force =    -0.00360155    0.00061344   -0.00190220
     atom    3 type  1   force =    -0.02944447   -0.01707373    0.01846184
     atom    4 type  1   force =     0.00356753    0.00061004   -0.00189112
     atom    5 type  1   force =    -0.00316391    0.00468271   -0.00132038
     atom    6 type  1   force =     0.00317694    0.00473842   -0.00131449
     atom    7 type  2   force =     0.00167788    0.00072109   -0.00103778
     atom    8 type  2   force =    -0.03164759    0.04267201   -0.07504675
     atom    9 type  2   force =     0.03164727    0.04267032   -0.07504841
     atom   10 type  2   force =    -0.00169081    0.00073773   -0.00103761
     atom   11 type  3   force =    -0.00189372   -0.00005589   -0.00191530
     atom   12 type  3   force =    -0.00561831   -0.00009711    0.02471801
     atom   13 type  3   force =     0.00559171   -0.00011481    0.02474610
     atom   14 type  3   force =     0.00190870   -0.00006479   -0.00190542
     atom   15 type  3   force =    -0.00058347   -0.00119141    0.00004842
     atom   16 type  3   force =     0.00736105   -0.00041754    0.02933634
     atom   17 type  3   force =    -0.00737611   -0.00042340    0.02931583
     atom   18 type  3   force =     0.00058208   -0.00121084    0.00005876
     atom   19 type  3   force =    -0.00028122   -0.00010028    0.00065944
     atom   20 type  3   force =    -0.01362533   -0.03041792   -0.00100437
     atom   21 type  3   force =     0.00016152   -0.00068822    0.00145610
     atom   22 type  3   force =    -0.01839944    0.00080508    0.00217819
     atom   23 type  3   force =     0.01839824    0.00082694    0.00217634
     atom   24 type  3   force =     0.01359781   -0.03040918   -0.00100586
     atom   25 type  3   force =     0.00028542   -0.00009488    0.00066377
     atom   26 type  3   force =    -0.00017257   -0.00068356    0.00145099
     atom   27 type  1   force =     0.00001480   -0.00009928   -0.00037862
     atom   28 type  1   force =    -0.00125086   -0.00104994    0.00508351
     atom   29 type  1   force =    -0.00005272   -0.00012575   -0.00035126
     atom   30 type  1   force =     0.00069687   -0.00025589    0.00223512
     atom   31 type  1   force =    -0.00009733   -0.00009320    0.00023571
     atom   32 type  1   force =     0.00000688   -0.00008026    0.00026440
     atom   33 type  2   force =     0.00009884   -0.00073407    0.00142070
     atom   34 type  2   force =    -0.00002015    0.00012395    0.00001765
     atom   35 type  2   force =     0.00008421    0.00012383   -0.00007262
     atom   36 type  2   force =    -0.00017860   -0.00032077    0.00151420
     atom   37 type  3   force =    -0.00035619   -0.00014419   -0.00031035
     atom   38 type  3   force =    -0.00033274    0.00024663    0.00005840
     atom   39 type  3   force =     0.00023952    0.00024734    0.00003278
     atom   40 type  3   force =     0.00038573   -0.00034937   -0.00031093
     atom   41 type  3   force =     0.00168075   -0.00095148    0.00282132
     atom   42 type  3   force =    -0.00012893    0.00042238    0.00013548
     atom   43 type  3   force =     0.00010275    0.00040952    0.00013169
     atom   44 type  3   force =    -0.00093683    0.00027355    0.00107490
     atom   45 type  3   force =    -0.00000755    0.00063001    0.00008580
     atom   46 type  3   force =    -0.00020431   -0.00010583    0.00022619
     atom   47 type  3   force =    -0.00080488   -0.00005469    0.00009651
     atom   48 type  3   force =    -0.00027872    0.00020516    0.00002788
     atom   49 type  3   force =     0.00031559    0.00020438    0.00001880
     atom   50 type  3   force =     0.00016821   -0.00011661    0.00021374
     atom   51 type  3   force =     0.00052323    0.00073531    0.00024404
     atom   52 type  3   force =     0.00047662   -0.00009648   -0.00019850
     atom   53 type  1   force =     0.00002318   -0.00009798   -0.00014704
     atom   54 type  1   force =    -0.00052194   -0.00073493    0.00047110
     atom   55 type  1   force =     0.00040665    0.00031760   -0.00001261
     atom   56 type  1   force =     0.00023559   -0.00026308    0.00069144
     atom   57 type  1   force =     0.00004478    0.00027631   -0.00036706
     atom   58 type  1   force =    -0.00015788    0.00002042   -0.00011016
     atom   59 type  2   force =     0.00097451   -0.00052246   -0.00014659
     atom   60 type  2   force =     0.00048629    0.00006087    0.00012093
     atom   61 type  2   force =    -0.00049282   -0.00001536   -0.00008744
     atom   62 type  2   force =    -0.00052932   -0.00044877    0.00016480
     atom   63 type  3   force =     0.00003657    0.00006366    0.00023934
     atom   64 type  3   force =     0.00033020   -0.00011883    0.00007886
     atom   65 type  3   force =     0.00014180    0.00021007   -0.00035826
     atom   66 type  3   force =     0.00011919    0.00020075    0.00033284
     atom   67 type  3   force =     0.00064074   -0.00011877   -0.00006963
     atom   68 type  3   force =    -0.00012053    0.00005482    0.00000191
     atom   69 type  3   force =    -0.00024552    0.00009925    0.00013441
     atom   70 type  3   force =    -0.00008461    0.00044941   -0.00013346
     atom   71 type  3   force =     0.00045702    0.00003217    0.00034043
     atom   72 type  3   force =     0.00019957    0.00001485   -0.00027163
     atom   73 type  3   force =     0.00026001    0.00015713    0.00013381
     atom   74 type  3   force =    -0.00011070   -0.00010014   -0.00009587
     atom   75 type  3   force =     0.00008355   -0.00008407   -0.00024710
     atom   76 type  3   force =    -0.00062710   -0.00007505   -0.00043561
     atom   77 type  3   force =     0.00013860    0.00036554    0.00019933
     atom   78 type  3   force =    -0.00035890   -0.00033978    0.00025488
     atom   79 type  1   force =     0.02945707   -0.01707322    0.01844347
     atom   80 type  1   force =    -0.00356769    0.00061939   -0.00188961
     atom   81 type  1   force =    -0.02946610   -0.01707447    0.01845963
     atom   82 type  1   force =     0.00358852    0.00060678   -0.00188096
     atom   83 type  1   force =    -0.00320615    0.00469145   -0.00130872
     atom   84 type  1   force =     0.00319906    0.00470243   -0.00129681
     atom   85 type  2   force =     0.00168396    0.00072408   -0.00103752
     atom   86 type  2   force =    -0.03164583    0.04266944   -0.07504919
     atom   87 type  2   force =     0.03164359    0.04266986   -0.07504884
     atom   88 type  2   force =    -0.00168768    0.00073813   -0.00104154
     atom   89 type  3   force =    -0.00190989   -0.00005861   -0.00191024
     atom   90 type  3   force =    -0.00559429   -0.00011821    0.02473734
     atom   91 type  3   force =     0.00559703   -0.00011284    0.02474281
     atom   92 type  3   force =     0.00191144   -0.00006661   -0.00190386
     atom   93 type  3   force =    -0.00058506   -0.00120089    0.00005339
     atom   94 type  3   force =     0.00737994   -0.00042338    0.02932188
     atom   95 type  3   force =    -0.00737308   -0.00042304    0.02931879
     atom   96 type  3   force =     0.00058373   -0.00121190    0.00005967
     atom   97 type  3   force =    -0.00028160   -0.00009759    0.00066363
     atom   98 type  3   force =    -0.01360185   -0.03040661   -0.00100490
     atom   99 type  3   force =     0.00016394   -0.00068761    0.00145324
     atom  100 type  3   force =    -0.01840822    0.00080851    0.00217723
     atom  101 type  3   force =     0.01840282    0.00081063    0.00217675
     atom  102 type  3   force =     0.01360459   -0.03041286   -0.00100531
     atom  103 type  3   force =     0.00028378   -0.00008902    0.00066614
     atom  104 type  3   force =    -0.00016639   -0.00068008    0.00145606
     atom  105 type  1   force =     0.00002126   -0.00015286   -0.00026462
     atom  106 type  1   force =    -0.00018049   -0.00059841    0.00203977
     atom  107 type  1   force =     0.00001070   -0.00007947   -0.00033962
     atom  108 type  1   force =     0.00047707    0.00023213    0.00175977
     atom  109 type  1   force =     0.00007110   -0.00010845    0.00022737
     atom  110 type  1   force =    -0.00013280   -0.00003824    0.00041751
     atom  111 type  2   force =    -0.00052324   -0.00104983    0.00177858
     atom  112 type  2   force =    -0.00014549    0.00011130    0.00001934
     atom  113 type  2   force =     0.00011255    0.00012513    0.00000727
     atom  114 type  2   force =     0.00037548    0.00035802    0.00303578
     atom  115 type  3   force =    -0.00041041   -0.00023945   -0.00071002
     atom  116 type  3   force =    -0.00022358    0.00029001   -0.00005956
     atom  117 type  3   force =     0.00027560    0.00022476   -0.00007376
     atom  118 type  3   force =     0.00038967   -0.00041578   -0.00051509
     atom  119 type  3   force =     0.00162756    0.00067207   -0.00083950
     atom  120 type  3   force =    -0.00011339    0.00043117    0.00011076
     atom  121 type  3   force =     0.00011690    0.00042890    0.00012183
     atom  122 type  3   force =    -0.00217815    0.00014990    0.00166899
     atom  123 type  3   force =    -0.00087314    0.00090004   -0.00003514
     atom  124 type  3   force =    -0.00019060   -0.00010624    0.00020422
     atom  125 type  3   force =    -0.00031599   -0.00002088   -0.00033308
     atom  126 type  3   force =    -0.00029523    0.00019375    0.00001518
     atom  127 type  3   force =     0.00026279    0.00021653   -0.00002418
     atom  128 type  3   force =     0.00024496   -0.00010881    0.00019161
     atom  129 type  3   force =     0.00056363    0.00085137   -0.00008083
     atom  130 type  3   force =     0.00058209    0.00000543   -0.00053729
     atom  131 type  1   force =    -0.00026548   -0.00024210   -0.00028781
     atom  132 type  1   force =    -0.00038799   -0.00034175    0.00023637
     atom  133 type  1   force =     0.00022841   -0.00004182   -0.00010448
     atom  134 type  1   force =     0.00040354   -0.00034412   -0.00006060
     atom  135 type  1   force =     0.00012707    0.00004560   -0.00036859
     atom  136 type  1   force =    -0.00006890    0.00048626   -0.00005455
     atom  137 type  2   force =     0.00004021   -0.00048865    0.00020944
     atom  138 type  2   force =     0.00029142    0.00027026   -0.00023487
     atom  139 type  2   force =    -0.00052374   -0.00046722    0.00003095
     atom  140 type  2   force =    -0.00016785    0.00004257   -0.00025632
     atom  141 type  3   force =    -0.00027994    0.00004036    0.00014022
     atom  142 type  3   force =    -0.00029093    0.00006035   -0.00019904
     atom  143 type  3   force =    -0.00000269    0.00012047   -0.00026963
     atom  144 type  3   force =    -0.00009337    0.00029014    0.00009718
     atom  145 type  3   force =     0.00041546    0.00030054   -0.00050885
     atom  146 type  3   force =    -0.00005244    0.00025316    0.00038795
     atom  147 type  3   force =    -0.00003199    0.00019134   -0.00012380
     atom  148 type  3   force =     0.00007469    0.00026248   -0.00014337
     atom  149 type  3   force =    -0.00040897    0.00017529    0.00020428
     atom  150 type  3   force =     0.00032566    0.00015323   -0.00031029
     atom  151 type  3   force =    -0.00009155    0.00000217   -0.00004929
     atom  152 type  3   force =     0.00005009   -0.00021521   -0.00017523
     atom  153 type  3   force =    -0.00010536   -0.00013392    0.00003769
     atom  154 type  3   force =    -0.00040151    0.00010945   -0.00031689
     atom  155 type  3   force =    -0.00049594    0.00015949    0.00010437
     atom  156 type  3   force =     0.00033182   -0.00019032    0.00020611
     atom  157 type  3   force =    -0.01012071    0.00713502    0.00312306
     atom  158 type  4   force =     0.01060237   -0.00623190   -0.00270312

     Total force =     0.229269     Total SCF correction =     0.001749
 
     init_run     :    670.96s CPU    679.02s WALL (       1 calls)
     electrons    :  86745.75s CPU  87718.38s WALL (       1 calls)
     forces       :    342.65s CPU    348.08s WALL (       1 calls)

     Called by init_run:
     wfcinit      :    639.80s CPU    645.79s WALL (       1 calls)
     potinit      :      8.53s CPU      8.66s WALL (       1 calls)
     hinit0       :     11.90s CPU     11.97s WALL (       1 calls)

     Called by electrons:
     c_bands      :  77502.68s CPU  78232.23s WALL (      41 calls)
     sum_band     :   8800.57s CPU   8956.72s WALL (      41 calls)
     v_of_rho     :    100.37s CPU    104.06s WALL (      42 calls)
     newd         :    310.07s CPU    394.95s WALL (      42 calls)
     mix_rho      :     28.70s CPU     28.76s WALL (      41 calls)

     Called by c_bands:
     init_us_2    :    370.87s CPU    374.93s WALL (    1680 calls)
     cegterg      :  76044.12s CPU  76767.78s WALL (     830 calls)

     Called by *egterg:
     cdiaghg      :  10578.06s CPU  10612.40s WALL (    4704 calls)
     h_psi        :  37735.20s CPU  38085.99s WALL (    4724 calls)
     s_psi        :   7703.22s CPU   7717.13s WALL (    4724 calls)
     g_psi        :     55.47s CPU     55.74s WALL (    3874 calls)

     Called by h_psi:
     h_psi:calbec :   7537.68s CPU   7563.79s WALL (    4724 calls)
     vloc_psi     :  22448.10s CPU  22659.40s WALL (    4724 calls)
     add_vuspsi   :   7652.00s CPU   7687.57s WALL (    4724 calls)

     General routines
     calbec       :  10574.26s CPU  10613.75s WALL (    5624 calls)
     fft          :    100.25s CPU    101.31s WALL (    1063 calls)
     ffts         :      3.59s CPU      3.63s WALL (     166 calls)
     fftw         :  22157.50s CPU  22369.11s WALL ( 3286706 calls)
     interpolate  :      9.32s CPU      9.39s WALL (      84 calls)
 
     Parallel routines
     fft_scatt_xy :   4192.45s CPU   4237.90s WALL ( 3287935 calls)
     fft_scatt_yz :   5185.71s CPU   5233.66s WALL ( 3287935 calls)
 
     PWSCF        :   1d 0h22m CPU   1d 0h39m WALL

 
   This run was terminated on:   9: 1:31  23Oct2023            

=------------------------------------------------------------------------------=
   JOB DONE.
=------------------------------------------------------------------------------=
