
     Program PWSCF v.6.7MaX starts on 22Oct2023 at  8:12:16 

     This program is part of the open-source Quantum ESPRESSO suite
     for quantum simulation of materials; please cite
         "P. Giannozzi et al., J. Phys.:Condens. Matter 21 395502 (2009);
         "P. Giannozzi et al., J. Phys.:Condens. Matter 29 465901 (2017);
          URL http://www.quantum-espresso.org", 
     in publications or presentations arising from this work. More details at
     http://www.quantum-espresso.org/quote

     Parallel version (MPI), running on    20 processors

     MPI processes distributed on     1 nodes
     R & G space division:  proc/nbgrp/npool/nimage =      20
     Waiting for input...
     Reading input from standard input

     Current dimensions of program PWSCF are:
     Max number of different atomic species (ntypx) = 10
     Max number of k-points (npk) =  40000
     Max angular momentum in pseudopotentials (lmaxx) =  3
     Presently no symmetry can be used with electric field

     file Ni.pbe-n-rrkjus_psl.1.0.0.UPF: wavefunction(s)  3D renormalized
     file O.pbe-rrkjus.UPF: wavefunction(s)  2S renormalized
     file H.pbe-rrkjus.UPF: wavefunction(s)  1S renormalized

     -------------------------------------------------
     Parameters for Dispersion (Grimme-D2) Correction:
     -------------------------------------------------
       atom      VdW radius       C_6     

        Ni         2.952        374.666
        P          3.222        271.980
        O          2.536         24.284
        H          1.892          4.857

     Subspace diagonalization in iterative solution of the eigenvalue problem:
     a serial algorithm will be used

 
     Parallelization info
     --------------------
     sticks:   dense  smooth     PW     G-vecs:    dense   smooth      PW
     Min         673     269     72               192489    48693    6732
     Max         674     270     73               192498    48700    6738
     Sum       13471    5389   1449              3849851   973915  134709
 


     bravais-lattice index     =            0
     lattice parameter (alat)  =      17.7231  a.u.
     unit-cell volume          =   20392.3702 (a.u.)^3
     number of atoms/cell      =          158
     number of atomic types    =            4
     number of electrons       =      1063.00
     number of Kohn-Sham states=          638
     kinetic-energy cutoff     =      50.0000  Ry
     charge density cutoff     =     500.0000  Ry
     scf convergence threshold =      1.0E-06
     mixing beta               =       0.2000
     number of iterations used =            8  plain     mixing
     Exchange-correlation=  SLA  PW   PBE  PBE
                           (   1   4   3   4   0   0   0)

     celldm(1)=  17.723132  celldm(2)=   0.000000  celldm(3)=   0.000000
     celldm(4)=   0.000000  celldm(5)=   0.000000  celldm(6)=   0.000000

     crystal axes: (cart. coord. in units of alat)
               a(1) = (   1.000000   0.000000   0.000000 )  
               a(2) = (   0.000000   1.078504   0.000000 )  
               a(3) = (   0.000000   0.000000   3.396445 )  

     reciprocal axes: (cart. coord. in units 2 pi/alat)
               b(1) = (  1.000000  0.000000  0.000000 )  
               b(2) = (  0.000000  0.927210  0.000000 )  
               b(3) = (  0.000000  0.000000  0.294425 )  


     PseudoPot. # 1 for Ni read from file:
     /home/praktikum/PSEUDO/Ni.pbe-n-rrkjus_psl.1.0.0.UPF
     MD5 check sum: 0fbcd075604c6694e0d643a0634a3f21
     Pseudo is Ultrasoft + core correction, Zval = 10.0
     Generated using "atomic" code by A. Dal Corso  v.5.1.2
     Using radial grid of 1195 points,  6 beta functions with: 
                l(1) =   0
                l(2) =   0
                l(3) =   1
                l(4) =   1
                l(5) =   2
                l(6) =   2
     Q(r) pseudized with 0 coefficients 


     PseudoPot. # 2 for P  read from file:
     /home/praktikum/PSEUDO/P.pbe-n-rrkjus_psl.1.0.0.UPF
     MD5 check sum: 4687844b46ff2552cf7009614ac2afe1
     Pseudo is Ultrasoft + core correction, Zval =  5.0
     Generated using "atomic" code by A. Dal Corso  v.5.1.2
     Using radial grid of 1147 points,  6 beta functions with: 
                l(1) =   0
                l(2) =   0
                l(3) =   1
                l(4) =   1
                l(5) =   2
                l(6) =   2
     Q(r) pseudized with 0 coefficients 


     PseudoPot. # 3 for O  read from file:
     /home/praktikum/PSEUDO/O.pbe-rrkjus.UPF
     MD5 check sum: 390ba29e75625707450f3bd3f0eb6be9
     Pseudo is Ultrasoft, Zval =  6.0
     Generated by new atomic code, or converted to UPF format
     Using radial grid of 1269 points,  4 beta functions with: 
                l(1) =   0
                l(2) =   0
                l(3) =   1
                l(4) =   1
     Q(r) pseudized with 0 coefficients 


     PseudoPot. # 4 for H  read from file:
     /home/praktikum/PSEUDO/H.pbe-rrkjus.UPF
     MD5 check sum: 7cc9d459525c9a0585f487a71c3c9563
     Pseudo is Ultrasoft, Zval =  1.0
     Generated by new atomic code, or converted to UPF format
     Using radial grid of 1061 points,  2 beta functions with: 
                l(1) =   0
                l(2) =   0
     Q(r) pseudized with 0 coefficients 


     atomic species   valence    mass     pseudopotential
        Ni            10.00    58.69340     Ni( 1.00)
        P              5.00    30.97376     P ( 1.00)
        O              6.00    15.99940     O ( 1.00)
        H              1.00     1.00794     H ( 1.00)

     Starting magnetic structure 
     atomic species   magnetization
        Ni           1.000
        P            1.000
        O            1.000
        H            0.000

     No symmetry found



   Cartesian axes

     site n.     atom                  positions (alat units)
         1           Ni  tau(   1) = (   0.2425939   0.8289547   0.1232563  )
         2           Ni  tau(   2) = (   0.4925939   0.7682479   0.4397296  )
         3           Ni  tau(   3) = (   0.0074061   0.2897028   0.1232563  )
         4           Ni  tau(   4) = (   0.2574061   0.2289960   0.4397296  )
         5           Ni  tau(   5) = (   0.0000000   1.0682273   0.2814930  )
         6           Ni  tau(   6) = (   0.2500000   0.5289753   0.2814930  )
         7           P   tau(   7) = (   0.2099015   0.9623143   0.4372472  )
         8           P   tau(   8) = (   0.4599015   0.6348883   0.1257387  )
         9           P   tau(   9) = (   0.2900985   0.0956364   0.1257387  )
        10           P   tau(  10) = (   0.0400985   0.4230624   0.4372472  )
        11           O   tau(  11) = (   0.1313289   0.8921807   0.3011581  )
        12           O   tau(  12) = (   0.3813289   0.7050219   0.2618278  )
        13           O   tau(  13) = (   0.3686711   0.1657700   0.2618278  )
        14           O   tau(  14) = (   0.1186711   0.3529288   0.3011581  )
        15           O   tau(  15) = (   0.1470808   0.8739426   0.5619197  )
        16           O   tau(  16) = (   0.3970808   0.7232600   0.0010662  )
        17           O   tau(  17) = (   0.3529192   0.1840081   0.0010662  )
        18           O   tau(  18) = (   0.1029192   0.3346907   0.5619197  )
        19           O   tau(  19) = (   0.0983097   0.5786104   0.4338456  )
        20           O   tau(  20) = (   0.3483097   1.0185922   0.1291403  )
        21           O   tau(  21) = (   0.3763566   0.4168410   0.4274499  )
        22           O   tau(  22) = (   0.1263566   0.1018578   0.1355360  )
        23           O   tau(  23) = (   0.1236434   0.6411097   0.1355360  )
        24           O   tau(  24) = (   0.4016903   0.4793403   0.1291403  )
        25           O   tau(  25) = (   0.1516903   0.0393585   0.4338456  )
        26           O   tau(  26) = (   0.3736434   0.9560929   0.4274499  )
        27           Ni  tau(  27) = (   0.2425939   0.8084016   0.7413658  )
        28           Ni  tau(  28) = (   0.4925939   0.7476948   1.0578391  )
        29           Ni  tau(  29) = (   0.0074061   0.2691497   0.7413658  )
        30           Ni  tau(  30) = (   0.2574061   0.2084429   1.0578391  )
        31           Ni  tau(  31) = (   0.0000000   1.0476741   0.8996025  )
        32           Ni  tau(  32) = (   0.2500000   0.5084222   0.8996025  )
        33           P   tau(  33) = (   0.2099015   0.9417612   1.0553567  )
        34           P   tau(  34) = (   0.4599015   0.6143352   0.7438483  )
        35           P   tau(  35) = (   0.2900985   0.0750833   0.7438483  )
        36           P   tau(  36) = (   0.0400985   0.4025093   1.0553567  )
        37           O   tau(  37) = (   0.1313289   0.8716276   0.9192676  )
        38           O   tau(  38) = (   0.3813289   0.6844688   0.8799374  )
        39           O   tau(  39) = (   0.3686711   0.1452169   0.8799374  )
        40           O   tau(  40) = (   0.1186711   0.3323757   0.9192676  )
        41           O   tau(  41) = (   0.1470808   0.8533895   1.1800292  )
        42           O   tau(  42) = (   0.3970808   0.7027069   0.6191758  )
        43           O   tau(  43) = (   0.3529192   0.1634550   0.6191758  )
        44           O   tau(  44) = (   0.1029192   0.3141376   1.1800292  )
        45           O   tau(  45) = (   0.0983097   0.5580573   1.0519551  )
        46           O   tau(  46) = (   0.3483097   0.9980391   0.7472498  )
        47           O   tau(  47) = (   0.3763566   0.3962879   1.0455594  )
        48           O   tau(  48) = (   0.1263566   0.0813047   0.7536455  )
        49           O   tau(  49) = (   0.1236434   0.6205566   0.7536455  )
        50           O   tau(  50) = (   0.4016903   0.4587872   0.7472498  )
        51           O   tau(  51) = (   0.1516903   0.0188054   1.0519551  )
        52           O   tau(  52) = (   0.3736434   0.9355398   1.0455594  )
        53           Ni  tau(  53) = (   0.2424041   0.7897793   1.3618974  )
        54           Ni  tau(  54) = (   0.4879612   0.7218564   1.6914308  )
        55           Ni  tau(  55) = (   0.0079170   0.2505787   1.3612627  )
        56           Ni  tau(  56) = (   0.2468086   0.1935142   1.6639243  )
        57           Ni  tau(  57) = (   0.0017035   1.0290340   1.5213760  )
        58           Ni  tau(  58) = (   0.2474179   0.4910684   1.5250240  )
        59           P   tau(  59) = (   0.2112199   0.9236045   1.6823438  )
        60           P   tau(  60) = (   0.4591813   0.5957823   1.3658078  )
        61           P   tau(  61) = (   0.2917127   0.0548729   1.3629876  )
        62           P   tau(  62) = (   0.0343831   0.3802729   1.6827085  )
        63           O   tau(  63) = (   0.1344982   0.8581762   1.5384087  )
        64           O   tau(  64) = (   0.3821749   0.6677915   1.5018960  )
        65           O   tau(  65) = (   0.3696684   0.1247784   1.4995401  )
        66           O   tau(  66) = (   0.1141586   0.3197959   1.5372841  )
        67           O   tau(  67) = (   0.1477250   0.8282157   1.7986512  )
        68           O   tau(  68) = (   0.3971844   0.6837803   1.2400827  )
        69           O   tau(  69) = (   0.3536769   0.1435761   1.2380891  )
        70           O   tau(  70) = (   0.0972401   0.2831089   1.7964957  )
        71           O   tau(  71) = (   0.0885696   0.5385964   1.6812115  )
        72           O   tau(  72) = (   0.3499269   0.9780557   1.3669542  )
        73           O   tau(  73) = (   0.3712541   0.3723768   1.6655885  )
        74           O   tau(  74) = (   0.1279370   0.0627700   1.3746559  )
        75           O   tau(  75) = (   0.1221086   0.6022924   1.3766974  )
        76           O   tau(  76) = (   0.4000629   0.4406261   1.3697735  )
        77           O   tau(  77) = (   0.1539963   1.0802196   1.6787776  )
        78           O   tau(  78) = (   0.3757257   0.9187392   1.6710614  )
        79           Ni  tau(  79) = (   0.7425939   0.8289547   0.1232563  )
        80           Ni  tau(  80) = (   0.9925939   0.7682479   0.4397296  )
        81           Ni  tau(  81) = (   0.5074061   0.2897028   0.1232563  )
        82           Ni  tau(  82) = (   0.7574061   0.2289960   0.4397296  )
        83           Ni  tau(  83) = (   0.5000000   1.0682273   0.2814930  )
        84           Ni  tau(  84) = (   0.7500000   0.5289753   0.2814930  )
        85           P   tau(  85) = (   0.7099015   0.9623143   0.4372472  )
        86           P   tau(  86) = (   0.9599015   0.6348883   0.1257387  )
        87           P   tau(  87) = (   0.7900985   0.0956364   0.1257387  )
        88           P   tau(  88) = (   0.5400985   0.4230624   0.4372472  )
        89           O   tau(  89) = (   0.6313289   0.8921807   0.3011581  )
        90           O   tau(  90) = (   0.8813289   0.7050219   0.2618278  )
        91           O   tau(  91) = (   0.8686711   0.1657700   0.2618278  )
        92           O   tau(  92) = (   0.6186711   0.3529288   0.3011581  )
        93           O   tau(  93) = (   0.6470808   0.8739426   0.5619197  )
        94           O   tau(  94) = (   0.8970808   0.7232600   0.0010662  )
        95           O   tau(  95) = (   0.8529192   0.1840081   0.0010662  )
        96           O   tau(  96) = (   0.6029192   0.3346907   0.5619197  )
        97           O   tau(  97) = (   0.5983097   0.5786104   0.4338456  )
        98           O   tau(  98) = (   0.8483097   1.0185922   0.1291403  )
        99           O   tau(  99) = (   0.8763566   0.4168410   0.4274499  )
       100           O   tau( 100) = (   0.6263566   0.1018578   0.1355360  )
       101           O   tau( 101) = (   0.6236434   0.6411097   0.1355360  )
       102           O   tau( 102) = (   0.9016903   0.4793403   0.1291403  )
       103           O   tau( 103) = (   0.6516903   0.0393585   0.4338456  )
       104           O   tau( 104) = (   0.8736434   0.9560929   0.4274499  )
       105           Ni  tau( 105) = (   0.7425939   0.8084016   0.7413658  )
       106           Ni  tau( 106) = (   0.9925939   0.7476948   1.0578391  )
       107           Ni  tau( 107) = (   0.5074061   0.2691497   0.7413658  )
       108           Ni  tau( 108) = (   0.7574061   0.2084429   1.0578391  )
       109           Ni  tau( 109) = (   0.5000000   1.0476741   0.8996025  )
       110           Ni  tau( 110) = (   0.7500000   0.5084222   0.8996025  )
       111           P   tau( 111) = (   0.7099015   0.9417612   1.0553567  )
       112           P   tau( 112) = (   0.9599015   0.6143352   0.7438483  )
       113           P   tau( 113) = (   0.7900985   0.0750833   0.7438483  )
       114           P   tau( 114) = (   0.5400985   0.4025093   1.0553567  )
       115           O   tau( 115) = (   0.6313289   0.8716276   0.9192676  )
       116           O   tau( 116) = (   0.8813289   0.6844688   0.8799374  )
       117           O   tau( 117) = (   0.8686711   0.1452169   0.8799374  )
       118           O   tau( 118) = (   0.6186711   0.3323757   0.9192676  )
       119           O   tau( 119) = (   0.6470808   0.8533895   1.1800292  )
       120           O   tau( 120) = (   0.8970808   0.7027069   0.6191758  )
       121           O   tau( 121) = (   0.8529192   0.1634550   0.6191758  )
       122           O   tau( 122) = (   0.6029192   0.3141376   1.1800292  )
       123           O   tau( 123) = (   0.5983097   0.5580573   1.0519551  )
       124           O   tau( 124) = (   0.8483097   0.9980391   0.7472498  )
       125           O   tau( 125) = (   0.8763566   0.3962879   1.0455594  )
       126           O   tau( 126) = (   0.6263566   0.0813047   0.7536455  )
       127           O   tau( 127) = (   0.6236434   0.6205566   0.7536455  )
       128           O   tau( 128) = (   0.9016903   0.4587872   0.7472498  )
       129           O   tau( 129) = (   0.6516903   0.0188054   1.0519551  )
       130           O   tau( 130) = (   0.8736434   0.9355398   1.0455594  )
       131           Ni  tau( 131) = (   0.7426462   0.7898639   1.3604014  )
       132           Ni  tau( 132) = (  -0.0002066   0.7318828   1.6641114  )
       133           Ni  tau( 133) = (   0.5077061   0.2501780   1.3613832  )
       134           Ni  tau( 134) = (   0.7465307   0.1894565   1.6642078  )
       135           Ni  tau( 135) = (   0.5021934   1.0264055   1.5228946  )
       136           Ni  tau( 136) = (   0.7455086   0.4886102   1.5220246  )
       137           P   tau( 137) = (   0.7116866   0.9161767   1.6766996  )
       138           P   tau( 138) = (   0.9583802   0.5938581   1.3632324  )
       139           P   tau( 139) = (   0.7914519   0.0546979   1.3621112  )
       140           P   tau( 140) = (   0.5357885   0.3763012   1.6821380  )
       141           O   tau( 141) = (   0.6346394   0.8568156   1.5335737  )
       142           O   tau( 142) = (   0.8794257   0.6646640   1.4988356  )
       143           O   tau( 143) = (   0.8695763   0.1251491   1.4988234  )
       144           O   tau( 144) = (   0.6152561   0.3146265   1.5364006  )
       145           O   tau( 145) = (   0.6515338   0.8192773   1.7930363  )
       146           O   tau( 146) = (   0.8970925   0.6818609   1.2376106  )
       147           O   tau( 147) = (   0.8535847   0.1440758   1.2378023  )
       148           O   tau( 148) = (   0.5952313   0.2763491   1.7954797  )
       149           O   tau( 149) = (   0.5957950   0.5319332   1.6778728  )
       150           O   tau( 150) = (   0.8513096   0.9784304   1.3652427  )
       151           O   tau( 151) = (   0.8698230   0.3735298   1.6681144  )
       152           O   tau( 152) = (   0.6278063   0.0613643   1.3739427  )
       153           O   tau( 153) = (   0.6230504   0.6013695   1.3747416  )
       154           O   tau( 154) = (   0.8997892   0.4387455   1.3673113  )
       155           O   tau( 155) = (   0.6572909   1.0746654   1.6784301  )
       156           O   tau( 156) = (   0.8772072   0.9129255   1.6662148  )
       157           O   tau( 157) = (   0.3741639   0.6425654   1.8273188  )
       158           H   tau( 158) = (   0.2897206   0.7019697   1.8481288  )

     number of k points=    10  Gaussian smearing, width (Ry)=  0.0100
                       cart. coord. in units 2pi/alat
        k(    1) = (   0.0000000   0.0000000   0.0000000), wk =   0.0625000
        k(    2) = (   0.0000000   0.2318026   0.0000000), wk =   0.1250000
        k(    3) = (   0.0000000  -0.4636052   0.0000000), wk =   0.0625000
        k(    4) = (   0.2500000   0.0000000   0.0000000), wk =   0.1250000
        k(    5) = (   0.2500000   0.2318026   0.0000000), wk =   0.1250000
        k(    6) = (   0.2500000  -0.4636052   0.0000000), wk =   0.1250000
        k(    7) = (   0.2500000  -0.2318026   0.0000000), wk =   0.1250000
        k(    8) = (  -0.5000000   0.0000000   0.0000000), wk =   0.0625000
        k(    9) = (  -0.5000000   0.2318026   0.0000000), wk =   0.1250000
        k(   10) = (  -0.5000000  -0.4636052   0.0000000), wk =   0.0625000

     Dense  grid:  3849851 G-vectors     FFT dimensions: ( 128, 144, 432)

     Smooth grid:   973915 G-vectors     FFT dimensions: (  80,  90, 288)

     Estimated max dynamical RAM per process >       2.95 GB

     Estimated total dynamical RAM >      59.02 GB
     Generating pointlists ...
     new r_m :   0.0801 (alat units)  1.4195 (a.u.) for type    1
     new r_m :   0.0669 (alat units)  1.1865 (a.u.) for type    2
     new r_m :   0.0434 (alat units)  0.7700 (a.u.) for type    3
     new r_m :   0.0434 (alat units)  0.7700 (a.u.) for type    4

     Initial potential from superposition of free atoms

     starting charge 1062.89078, renormalised to 1063.00000

     negative rho (up, down):  1.107E-03 4.578E-04
 
     Adding external electric field

     Computed dipole along edir(3) : 
        Dipole                1.6045 Ry au,          4.0782 Debye
        Dipole field          0.0010 Ry au, 
 
        Potential amp.       -0.1071 Ry
        Total length         54.1761 bohr
 
 
     Adding external electric field

     Computed dipole along edir(3) : 
        Dipole                1.6045 Ry au,          4.0782 Debye
        Dipole field          0.0010 Ry au, 
 
        Potential amp.       -0.1071 Ry
        Total length         54.1761 bohr
 
     Starting wfcs are  809 randomized atomic wfcs

     total cpu time spent up to now is      722.8 secs

     Self-consistent Calculation

     iteration #  1     ecut=    50.00 Ry     beta= 0.20
     Davidson diagonalization with overlap
     ethr =  1.00E-02,  avg # of iterations =  6.0

     negative rho (up, down):  4.089E-04 0.000E+00
 
     Adding external electric field

     Computed dipole along edir(3) : 
        Dipole             -127.8050 Ry au,       -324.8478 Debye
        Dipole field         -0.0788 Ry au, 
 
        Potential amp.        8.5335 Ry
        Total length         54.1761 bohr
 
 
     Adding external electric field

     Computed dipole along edir(3) : 
        Dipole             -127.8050 Ry au,       -324.8478 Debye
        Dipole field         -0.0788 Ry au, 
 
        Potential amp.        8.5335 Ry
        Total length         54.1761 bohr
 

     total cpu time spent up to now is     3737.9 secs

     total energy              =   -6643.99392342 Ry
     estimated scf accuracy    <     755.33720657 Ry

     total magnetization       =   213.00 Bohr mag/cell
     absolute magnetization    =   290.39 Bohr mag/cell

     iteration #  2     ecut=    50.00 Ry     beta= 0.20
     Davidson diagonalization with overlap
     ethr =  1.00E-02,  avg # of iterations = 15.7

     negative rho (up, down):  2.149E-04 0.000E+00
 
     Adding external electric field

     Computed dipole along edir(3) : 
        Dipole              -24.7650 Ry au,        -62.9462 Debye
        Dipole field         -0.0153 Ry au, 
 
        Potential amp.        1.6535 Ry
        Total length         54.1761 bohr
 
 
     Adding external electric field

     Computed dipole along edir(3) : 
        Dipole              -24.7650 Ry au,        -62.9462 Debye
        Dipole field         -0.0153 Ry au, 
 
        Potential amp.        1.6535 Ry
        Total length         54.1761 bohr
 

     total cpu time spent up to now is    11260.2 secs

     total energy              =   -6046.77423565 Ry
     estimated scf accuracy    <  181481.51544230 Ry

     total magnetization       =   127.12 Bohr mag/cell
     absolute magnetization    =   128.67 Bohr mag/cell

     iteration #  3     ecut=    50.00 Ry     beta= 0.20
     Davidson diagonalization with overlap
     ethr =  1.00E-02,  avg # of iterations = 13.1

     negative rho (up, down):  1.292E-04 0.000E+00
 
     Adding external electric field

     Computed dipole along edir(3) : 
        Dipole              -14.9248 Ry au,        -37.9350 Debye
        Dipole field         -0.0092 Ry au, 
 
        Potential amp.        0.9965 Ry
        Total length         54.1761 bohr
 
 
     Adding external electric field

     Computed dipole along edir(3) : 
        Dipole              -14.9248 Ry au,        -37.9350 Debye
        Dipole field         -0.0092 Ry au, 
 
        Potential amp.        0.9965 Ry
        Total length         54.1761 bohr
 

     total cpu time spent up to now is    18529.3 secs

     total energy              =   -6673.02719837 Ry
     estimated scf accuracy    <   17794.21906803 Ry

     total magnetization       =   155.67 Bohr mag/cell
     absolute magnetization    =   162.90 Bohr mag/cell

     iteration #  4     ecut=    50.00 Ry     beta= 0.20
     Davidson diagonalization with overlap
     ethr =  1.00E-02,  avg # of iterations = 12.1

     negative rho (up, down):  4.287E-05 0.000E+00
 
     Adding external electric field

     Computed dipole along edir(3) : 
        Dipole               -8.9267 Ry au,        -22.6895 Debye
        Dipole field         -0.0055 Ry au, 
 
        Potential amp.        0.5960 Ry
        Total length         54.1761 bohr
 
 
     Adding external electric field

     Computed dipole along edir(3) : 
        Dipole               -8.9267 Ry au,        -22.6895 Debye
        Dipole field         -0.0055 Ry au, 
 
        Potential amp.        0.5960 Ry
        Total length         54.1761 bohr
 

     total cpu time spent up to now is    23369.0 secs

     total energy              =   -6934.61976164 Ry
     estimated scf accuracy    <     562.55568925 Ry

     total magnetization       =   201.41 Bohr mag/cell
     absolute magnetization    =   219.23 Bohr mag/cell

     iteration #  5     ecut=    50.00 Ry     beta= 0.20
     Davidson diagonalization with overlap
     ethr =  1.00E-02,  avg # of iterations =  6.2

     negative rho (up, down):  4.324E-05 0.000E+00
 
     Adding external electric field

     Computed dipole along edir(3) : 
        Dipole              -12.0978 Ry au,        -30.7496 Debye
        Dipole field         -0.0075 Ry au, 
 
        Potential amp.        0.8078 Ry
        Total length         54.1761 bohr
 
 
     Adding external electric field

     Computed dipole along edir(3) : 
        Dipole              -12.0978 Ry au,        -30.7496 Debye
        Dipole field         -0.0075 Ry au, 
 
        Potential amp.        0.8078 Ry
        Total length         54.1761 bohr
 

     total cpu time spent up to now is    25433.3 secs

     total energy              =   -6962.74946839 Ry
     estimated scf accuracy    <     747.63851767 Ry

     total magnetization       =   140.99 Bohr mag/cell
     absolute magnetization    =   174.35 Bohr mag/cell

     iteration #  6     ecut=    50.00 Ry     beta= 0.20
     Davidson diagonalization with overlap
     ethr =  1.00E-02,  avg # of iterations =  1.8

     negative rho (up, down):  4.807E-05 0.000E+00
 
     Adding external electric field

     Computed dipole along edir(3) : 
        Dipole              -10.9590 Ry au,        -27.8551 Debye
        Dipole field         -0.0068 Ry au, 
 
        Potential amp.        0.7317 Ry
        Total length         54.1761 bohr
 
 
     Adding external electric field

     Computed dipole along edir(3) : 
        Dipole              -10.9590 Ry au,        -27.8551 Debye
        Dipole field         -0.0068 Ry au, 
 
        Potential amp.        0.7317 Ry
        Total length         54.1761 bohr
 

     total cpu time spent up to now is    27025.6 secs

     total energy              =   -6975.03065205 Ry
     estimated scf accuracy    <     219.11912384 Ry

     total magnetization       =   120.63 Bohr mag/cell
     absolute magnetization    =   157.05 Bohr mag/cell

     iteration #  7     ecut=    50.00 Ry     beta= 0.20
     Davidson diagonalization with overlap
     ethr =  1.00E-02,  avg # of iterations =  1.5

     negative rho (up, down):  6.128E-05 0.000E+00
 
     Adding external electric field

     Computed dipole along edir(3) : 
        Dipole               -9.9230 Ry au,        -25.2219 Debye
        Dipole field         -0.0061 Ry au, 
 
        Potential amp.        0.6626 Ry
        Total length         54.1761 bohr
 
 
     Adding external electric field

     Computed dipole along edir(3) : 
        Dipole               -9.9230 Ry au,        -25.2219 Debye
        Dipole field         -0.0061 Ry au, 
 
        Potential amp.        0.6626 Ry
        Total length         54.1761 bohr
 

     total cpu time spent up to now is    28580.9 secs

     total energy              =   -6986.40749926 Ry
     estimated scf accuracy    <     106.02828205 Ry

     total magnetization       =   100.28 Bohr mag/cell
     absolute magnetization    =   143.37 Bohr mag/cell

     iteration #  8     ecut=    50.00 Ry     beta= 0.20
     Davidson diagonalization with overlap
     ethr =  9.97E-03,  avg # of iterations =  1.6

     negative rho (up, down):  9.027E-05 0.000E+00
 
     Adding external electric field

     Computed dipole along edir(3) : 
        Dipole               -8.3802 Ry au,        -21.3003 Debye
        Dipole field         -0.0052 Ry au, 
 
        Potential amp.        0.5595 Ry
        Total length         54.1761 bohr
 
 
     Adding external electric field

     Computed dipole along edir(3) : 
        Dipole               -8.3802 Ry au,        -21.3003 Debye
        Dipole field         -0.0052 Ry au, 
 
        Potential amp.        0.5595 Ry
        Total length         54.1761 bohr
 

     total cpu time spent up to now is    30153.6 secs

     total energy              =   -7000.22847846 Ry
     estimated scf accuracy    <     117.67529574 Ry

     total magnetization       =    92.24 Bohr mag/cell
     absolute magnetization    =   136.64 Bohr mag/cell

     iteration #  9     ecut=    50.00 Ry     beta= 0.20
     Davidson diagonalization with overlap
     ethr =  9.97E-03,  avg # of iterations =  1.4

     negative rho (up, down):  1.431E-04 0.000E+00
 
     Adding external electric field

     Computed dipole along edir(3) : 
        Dipole               -4.9606 Ry au,        -12.6086 Debye
        Dipole field         -0.0031 Ry au, 
 
        Potential amp.        0.3312 Ry
        Total length         54.1761 bohr
 
 
     Adding external electric field

     Computed dipole along edir(3) : 
        Dipole               -4.9606 Ry au,        -12.6086 Debye
        Dipole field         -0.0031 Ry au, 
 
        Potential amp.        0.3312 Ry
        Total length         54.1761 bohr
 

     total cpu time spent up to now is    31728.7 secs

     total energy              =   -7023.05397316 Ry
     estimated scf accuracy    <      75.63490530 Ry

     total magnetization       =    84.89 Bohr mag/cell
     absolute magnetization    =   128.33 Bohr mag/cell

     iteration # 10     ecut=    50.00 Ry     beta= 0.20
     Davidson diagonalization with overlap
     ethr =  7.12E-03,  avg # of iterations =  1.1

     negative rho (up, down):  2.735E-04 0.000E+00
 
     Adding external electric field

     Computed dipole along edir(3) : 
        Dipole               -1.9791 Ry au,         -5.0304 Debye
        Dipole field         -0.0012 Ry au, 
 
        Potential amp.        0.1321 Ry
        Total length         54.1761 bohr
 
 
     Adding external electric field

     Computed dipole along edir(3) : 
        Dipole               -1.9791 Ry au,         -5.0304 Debye
        Dipole field         -0.0012 Ry au, 
 
        Potential amp.        0.1321 Ry
        Total length         54.1761 bohr
 

     total cpu time spent up to now is    33265.7 secs

     total energy              =   -7043.11462040 Ry
     estimated scf accuracy    <     223.00695246 Ry

     total magnetization       =    78.90 Bohr mag/cell
     absolute magnetization    =   116.80 Bohr mag/cell

     iteration # 11     ecut=    50.00 Ry     beta= 0.20
     Davidson diagonalization with overlap
     ethr =  7.12E-03,  avg # of iterations =  1.5

     negative rho (up, down):  2.978E-04 0.000E+00
 
     Adding external electric field

     Computed dipole along edir(3) : 
        Dipole               -4.4541 Ry au,        -11.3213 Debye
        Dipole field         -0.0027 Ry au, 
 
        Potential amp.        0.2974 Ry
        Total length         54.1761 bohr
 
 
     Adding external electric field

     Computed dipole along edir(3) : 
        Dipole               -4.4541 Ry au,        -11.3213 Debye
        Dipole field         -0.0027 Ry au, 
 
        Potential amp.        0.2974 Ry
        Total length         54.1761 bohr
 

     total cpu time spent up to now is    34821.1 secs

     total energy              =   -7047.30151626 Ry
     estimated scf accuracy    <     153.20418267 Ry

     total magnetization       =    62.47 Bohr mag/cell
     absolute magnetization    =    91.77 Bohr mag/cell

     iteration # 12     ecut=    50.00 Ry     beta= 0.20
     Davidson diagonalization with overlap
     ethr =  7.12E-03,  avg # of iterations =  1.0

     negative rho (up, down):  3.641E-04 0.000E+00
 
     Adding external electric field

     Computed dipole along edir(3) : 
        Dipole               -1.6850 Ry au,         -4.2827 Debye
        Dipole field         -0.0010 Ry au, 
 
        Potential amp.        0.1125 Ry
        Total length         54.1761 bohr
 
 
     Adding external electric field

     Computed dipole along edir(3) : 
        Dipole               -1.6850 Ry au,         -4.2827 Debye
        Dipole field         -0.0010 Ry au, 
 
        Potential amp.        0.1125 Ry
        Total length         54.1761 bohr
 

     total cpu time spent up to now is    36323.5 secs

     total energy              =   -7049.80916644 Ry
     estimated scf accuracy    <     224.60410172 Ry

     total magnetization       =    73.83 Bohr mag/cell
     absolute magnetization    =    98.23 Bohr mag/cell

     iteration # 13     ecut=    50.00 Ry     beta= 0.20
     Davidson diagonalization with overlap
     ethr =  7.12E-03,  avg # of iterations =  1.0

     negative rho (up, down):  4.234E-04 0.000E+00
 
     Adding external electric field

     Computed dipole along edir(3) : 
        Dipole               -1.7034 Ry au,         -4.3296 Debye
        Dipole field         -0.0010 Ry au, 
 
        Potential amp.        0.1137 Ry
        Total length         54.1761 bohr
 
 
     Adding external electric field

     Computed dipole along edir(3) : 
        Dipole               -1.7034 Ry au,         -4.3296 Debye
        Dipole field         -0.0010 Ry au, 
 
        Potential amp.        0.1137 Ry
        Total length         54.1761 bohr
 

     total cpu time spent up to now is    37818.1 secs

     total energy              =   -7053.05812066 Ry
     estimated scf accuracy    <     148.51199195 Ry

     total magnetization       =    73.00 Bohr mag/cell
     absolute magnetization    =    94.95 Bohr mag/cell

     iteration # 14     ecut=    50.00 Ry     beta= 0.20
     Davidson diagonalization with overlap
     ethr =  7.12E-03,  avg # of iterations =  1.0

     negative rho (up, down):  4.471E-04 0.000E+00
 
     Adding external electric field

     Computed dipole along edir(3) : 
        Dipole               -1.2982 Ry au,         -3.2998 Debye
        Dipole field         -0.0008 Ry au, 
 
        Potential amp.        0.0867 Ry
        Total length         54.1761 bohr
 
 
     Adding external electric field

     Computed dipole along edir(3) : 
        Dipole               -1.2982 Ry au,         -3.2998 Debye
        Dipole field         -0.0008 Ry au, 
 
        Potential amp.        0.0867 Ry
        Total length         54.1761 bohr
 

     total cpu time spent up to now is    39312.3 secs

     total energy              =   -7055.01371748 Ry
     estimated scf accuracy    <      39.88595253 Ry

     total magnetization       =    73.00 Bohr mag/cell
     absolute magnetization    =    91.09 Bohr mag/cell

     iteration # 15     ecut=    50.00 Ry     beta= 0.20
     Davidson diagonalization with overlap
     ethr =  3.75E-03,  avg # of iterations =  1.0

     negative rho (up, down):  4.670E-04 0.000E+00
 
     Adding external electric field

     Computed dipole along edir(3) : 
        Dipole                0.3808 Ry au,          0.9680 Debye
        Dipole field          0.0002 Ry au, 
 
        Potential amp.       -0.0254 Ry
        Total length         54.1761 bohr
 
 
     Adding external electric field

     Computed dipole along edir(3) : 
        Dipole                0.3808 Ry au,          0.9680 Debye
        Dipole field          0.0002 Ry au, 
 
        Potential amp.       -0.0254 Ry
        Total length         54.1761 bohr
 

     total cpu time spent up to now is    40814.7 secs

     total energy              =   -7055.96133493 Ry
     estimated scf accuracy    <      29.02003039 Ry

     total magnetization       =    72.98 Bohr mag/cell
     absolute magnetization    =    88.42 Bohr mag/cell

     iteration # 16     ecut=    50.00 Ry     beta= 0.20
     Davidson diagonalization with overlap
     ethr =  2.73E-03,  avg # of iterations =  1.0

     negative rho (up, down):  4.615E-04 0.000E+00
 
     Adding external electric field

     Computed dipole along edir(3) : 
        Dipole               -1.6148 Ry au,         -4.1044 Debye
        Dipole field         -0.0010 Ry au, 
 
        Potential amp.        0.1078 Ry
        Total length         54.1761 bohr
 
 
     Adding external electric field

     Computed dipole along edir(3) : 
        Dipole               -1.6148 Ry au,         -4.1044 Debye
        Dipole field         -0.0010 Ry au, 
 
        Potential amp.        0.1078 Ry
        Total length         54.1761 bohr
 

     total cpu time spent up to now is    42310.6 secs

     total energy              =   -7054.97433809 Ry
     estimated scf accuracy    <      37.89776942 Ry

     total magnetization       =    73.00 Bohr mag/cell
     absolute magnetization    =    87.32 Bohr mag/cell

     iteration # 17     ecut=    50.00 Ry     beta= 0.20
     Davidson diagonalization with overlap
     ethr =  2.73E-03,  avg # of iterations =  1.0

     negative rho (up, down):  5.386E-04 0.000E+00
 
     Adding external electric field

     Computed dipole along edir(3) : 
        Dipole                0.5144 Ry au,          1.3075 Debye
        Dipole field          0.0003 Ry au, 
 
        Potential amp.       -0.0343 Ry
        Total length         54.1761 bohr
 
 
     Adding external electric field

     Computed dipole along edir(3) : 
        Dipole                0.5144 Ry au,          1.3075 Debye
        Dipole field          0.0003 Ry au, 
 
        Potential amp.       -0.0343 Ry
        Total length         54.1761 bohr
 

     total cpu time spent up to now is    43800.6 secs

     total energy              =   -7054.23374110 Ry
     estimated scf accuracy    <     249.33946197 Ry

     total magnetization       =    70.11 Bohr mag/cell
     absolute magnetization    =    84.84 Bohr mag/cell

     iteration # 18     ecut=    50.00 Ry     beta= 0.20
     Davidson diagonalization with overlap
     ethr =  2.73E-03,  avg # of iterations =  1.0

     negative rho (up, down):  6.045E-04 0.000E+00
 
     Adding external electric field

     Computed dipole along edir(3) : 
        Dipole                0.4869 Ry au,          1.2375 Debye
        Dipole field          0.0003 Ry au, 
 
        Potential amp.       -0.0325 Ry
        Total length         54.1761 bohr
 
 
     Adding external electric field

     Computed dipole along edir(3) : 
        Dipole                0.4869 Ry au,          1.2375 Debye
        Dipole field          0.0003 Ry au, 
 
        Potential amp.       -0.0325 Ry
        Total length         54.1761 bohr
 

     total cpu time spent up to now is    45287.8 secs

     total energy              =   -7056.93079449 Ry
     estimated scf accuracy    <      21.07713519 Ry

     total magnetization       =    72.86 Bohr mag/cell
     absolute magnetization    =    84.03 Bohr mag/cell

     iteration # 19     ecut=    50.00 Ry     beta= 0.20
     Davidson diagonalization with overlap
     ethr =  1.98E-03,  avg # of iterations =  1.0

     negative rho (up, down):  5.492E-04 0.000E+00
 
     Adding external electric field

     Computed dipole along edir(3) : 
        Dipole               -0.2395 Ry au,         -0.6088 Debye
        Dipole field         -0.0001 Ry au, 
 
        Potential amp.        0.0160 Ry
        Total length         54.1761 bohr
 
 
     Adding external electric field

     Computed dipole along edir(3) : 
        Dipole               -0.2395 Ry au,         -0.6088 Debye
        Dipole field         -0.0001 Ry au, 
 
        Potential amp.        0.0160 Ry
        Total length         54.1761 bohr
 

     total cpu time spent up to now is    46788.1 secs

     total energy              =   -7057.05953741 Ry
     estimated scf accuracy    <      12.04432620 Ry

     total magnetization       =    72.41 Bohr mag/cell
     absolute magnetization    =    81.87 Bohr mag/cell

     iteration # 20     ecut=    50.00 Ry     beta= 0.20
     Davidson diagonalization with overlap
     ethr =  1.13E-03,  avg # of iterations =  1.1

     negative rho (up, down):  5.638E-04 0.000E+00
 
     Adding external electric field

     Computed dipole along edir(3) : 
        Dipole               -0.2168 Ry au,         -0.5510 Debye
        Dipole field         -0.0001 Ry au, 
 
        Potential amp.        0.0145 Ry
        Total length         54.1761 bohr
 
 
     Adding external electric field

     Computed dipole along edir(3) : 
        Dipole               -0.2168 Ry au,         -0.5510 Debye
        Dipole field         -0.0001 Ry au, 
 
        Potential amp.        0.0145 Ry
        Total length         54.1761 bohr
 

     total cpu time spent up to now is    48287.3 secs

     total energy              =   -7057.15683741 Ry
     estimated scf accuracy    <      15.26791278 Ry

     total magnetization       =    72.86 Bohr mag/cell
     absolute magnetization    =    81.98 Bohr mag/cell

     iteration # 21     ecut=    50.00 Ry     beta= 0.20
     Davidson diagonalization with overlap
     ethr =  1.13E-03,  avg # of iterations =  1.0

     negative rho (up, down):  5.968E-04 0.000E+00
 
     Adding external electric field

     Computed dipole along edir(3) : 
        Dipole                0.3826 Ry au,          0.9726 Debye
        Dipole field          0.0002 Ry au, 
 
        Potential amp.       -0.0255 Ry
        Total length         54.1761 bohr
 
 
     Adding external electric field

     Computed dipole along edir(3) : 
        Dipole                0.3826 Ry au,          0.9726 Debye
        Dipole field          0.0002 Ry au, 
 
        Potential amp.       -0.0255 Ry
        Total length         54.1761 bohr
 

     total cpu time spent up to now is    49782.5 secs

     total energy              =   -7057.51650286 Ry
     estimated scf accuracy    <       4.78670891 Ry

     total magnetization       =    72.88 Bohr mag/cell
     absolute magnetization    =    81.13 Bohr mag/cell

     iteration # 22     ecut=    50.00 Ry     beta= 0.20
     Davidson diagonalization with overlap
     ethr =  4.50E-04,  avg # of iterations =  2.0

     negative rho (up, down):  6.209E-04 0.000E+00
 
     Adding external electric field

     Computed dipole along edir(3) : 
        Dipole               -0.1527 Ry au,         -0.3881 Debye
        Dipole field         -0.0001 Ry au, 
 
        Potential amp.        0.0102 Ry
        Total length         54.1761 bohr
 
 
     Adding external electric field

     Computed dipole along edir(3) : 
        Dipole               -0.1527 Ry au,         -0.3881 Debye
        Dipole field         -0.0001 Ry au, 
 
        Potential amp.        0.0102 Ry
        Total length         54.1761 bohr
 

     total cpu time spent up to now is    51343.6 secs

     total energy              =   -7057.63997857 Ry
     estimated scf accuracy    <       4.09488742 Ry

     total magnetization       =    72.31 Bohr mag/cell
     absolute magnetization    =    79.58 Bohr mag/cell

     iteration # 23     ecut=    50.00 Ry     beta= 0.20
     Davidson diagonalization with overlap
     ethr =  3.85E-04,  avg # of iterations =  1.4

     negative rho (up, down):  6.187E-04 0.000E+00
 
     Adding external electric field

     Computed dipole along edir(3) : 
        Dipole                0.0833 Ry au,          0.2116 Debye
        Dipole field          0.0001 Ry au, 
 
        Potential amp.       -0.0056 Ry
        Total length         54.1761 bohr
 
 
     Adding external electric field

     Computed dipole along edir(3) : 
        Dipole                0.0833 Ry au,          0.2116 Debye
        Dipole field          0.0001 Ry au, 
 
        Potential amp.       -0.0056 Ry
        Total length         54.1761 bohr
 

     total cpu time spent up to now is    52751.4 secs

     total energy              =   -7057.73761335 Ry
     estimated scf accuracy    <       1.14354880 Ry

     total magnetization       =    72.44 Bohr mag/cell
     absolute magnetization    =    79.06 Bohr mag/cell

     iteration # 24     ecut=    50.00 Ry     beta= 0.20
     Davidson diagonalization with overlap
     c_bands:  4 eigenvalues not converged
     c_bands:  1 eigenvalues not converged
     c_bands:  3 eigenvalues not converged
     c_bands:  5 eigenvalues not converged
     ethr =  1.08E-04,  avg # of iterations = 11.8

     negative rho (up, down):  6.001E-04 0.000E+00
 
     Adding external electric field

     Computed dipole along edir(3) : 
        Dipole                0.3909 Ry au,          0.9937 Debye
        Dipole field          0.0002 Ry au, 
 
        Potential amp.       -0.0261 Ry
        Total length         54.1761 bohr
 
 
     Adding external electric field

     Computed dipole along edir(3) : 
        Dipole                0.3909 Ry au,          0.9937 Debye
        Dipole field          0.0002 Ry au, 
 
        Potential amp.       -0.0261 Ry
        Total length         54.1761 bohr
 

     total cpu time spent up to now is    55058.0 secs

     total energy              =   -7057.71450881 Ry
     estimated scf accuracy    <       1.50982133 Ry

     total magnetization       =    72.88 Bohr mag/cell
     absolute magnetization    =    78.97 Bohr mag/cell

     iteration # 25     ecut=    50.00 Ry     beta= 0.20
     Davidson diagonalization with overlap
     c_bands:  1 eigenvalues not converged
     c_bands:  1 eigenvalues not converged
     ethr =  1.08E-04,  avg # of iterations = 11.3

     negative rho (up, down):  5.950E-04 0.000E+00
 
     Adding external electric field

     Computed dipole along edir(3) : 
        Dipole               -0.0663 Ry au,         -0.1685 Debye
        Dipole field         -0.0000 Ry au, 
 
        Potential amp.        0.0044 Ry
        Total length         54.1761 bohr
 
 
     Adding external electric field

     Computed dipole along edir(3) : 
        Dipole               -0.0663 Ry au,         -0.1685 Debye
        Dipole field         -0.0000 Ry au, 
 
        Potential amp.        0.0044 Ry
        Total length         54.1761 bohr
 

     total cpu time spent up to now is    57466.9 secs

     total energy              =   -7057.73820849 Ry
     estimated scf accuracy    <       1.92666744 Ry

     total magnetization       =    72.67 Bohr mag/cell
     absolute magnetization    =    78.80 Bohr mag/cell

     iteration # 26     ecut=    50.00 Ry     beta= 0.20
     Davidson diagonalization with overlap
     ethr =  1.08E-04,  avg # of iterations =  1.6

     negative rho (up, down):  6.132E-04 0.000E+00
 
     Adding external electric field

     Computed dipole along edir(3) : 
        Dipole               -0.0043 Ry au,         -0.0108 Debye
        Dipole field         -0.0000 Ry au, 
 
        Potential amp.        0.0003 Ry
        Total length         54.1761 bohr
 
 
     Adding external electric field

     Computed dipole along edir(3) : 
        Dipole               -0.0043 Ry au,         -0.0108 Debye
        Dipole field         -0.0000 Ry au, 
 
        Potential amp.        0.0003 Ry
        Total length         54.1761 bohr
 

     total cpu time spent up to now is    59031.0 secs

     total energy              =   -7057.84702847 Ry
     estimated scf accuracy    <       0.48876625 Ry

     total magnetization       =    72.86 Bohr mag/cell
     absolute magnetization    =    78.89 Bohr mag/cell

     iteration # 27     ecut=    50.00 Ry     beta= 0.20
     Davidson diagonalization with overlap
     ethr =  4.60E-05,  avg # of iterations =  2.7

     negative rho (up, down):  6.193E-04 1.081E-09
 
     Adding external electric field

     Computed dipole along edir(3) : 
        Dipole                0.0193 Ry au,          0.0490 Debye
        Dipole field          0.0000 Ry au, 
 
        Potential amp.       -0.0013 Ry
        Total length         54.1761 bohr
 
 
     Adding external electric field

     Computed dipole along edir(3) : 
        Dipole                0.0193 Ry au,          0.0490 Debye
        Dipole field          0.0000 Ry au, 
 
        Potential amp.       -0.0013 Ry
        Total length         54.1761 bohr
 

     total cpu time spent up to now is    60674.3 secs

     total energy              =   -7057.87045582 Ry
     estimated scf accuracy    <       0.23478543 Ry

     total magnetization       =    72.80 Bohr mag/cell
     absolute magnetization    =    77.91 Bohr mag/cell

     iteration # 28     ecut=    50.00 Ry     beta= 0.20
     Davidson diagonalization with overlap
     c_bands:  1 eigenvalues not converged
     ethr =  2.21E-05,  avg # of iterations =  3.6

     negative rho (up, down):  6.423E-04 2.767E-07
 
     Adding external electric field

     Computed dipole along edir(3) : 
        Dipole                0.0511 Ry au,          0.1300 Debye
        Dipole field          0.0000 Ry au, 
 
        Potential amp.       -0.0034 Ry
        Total length         54.1761 bohr
 
 
     Adding external electric field

     Computed dipole along edir(3) : 
        Dipole                0.0511 Ry au,          0.1300 Debye
        Dipole field          0.0000 Ry au, 
 
        Potential amp.       -0.0034 Ry
        Total length         54.1761 bohr
 

     total cpu time spent up to now is    62363.2 secs

     total energy              =   -7057.91686497 Ry
     estimated scf accuracy    <       0.13626574 Ry

     total magnetization       =    72.85 Bohr mag/cell
     absolute magnetization    =    77.57 Bohr mag/cell

     iteration # 29     ecut=    50.00 Ry     beta= 0.20
     Davidson diagonalization with overlap
     c_bands:  2 eigenvalues not converged
     c_bands:  2 eigenvalues not converged
     c_bands:  2 eigenvalues not converged
     c_bands:  1 eigenvalues not converged
     ethr =  1.28E-05,  avg # of iterations =  8.0

     negative rho (up, down):  7.967E-04 3.715E-04
 
     Adding external electric field

     Computed dipole along edir(3) : 
        Dipole                0.0485 Ry au,          0.1234 Debye
        Dipole field          0.0000 Ry au, 
 
        Potential amp.       -0.0032 Ry
        Total length         54.1761 bohr
 
 
     Adding external electric field

     Computed dipole along edir(3) : 
        Dipole                0.0485 Ry au,          0.1234 Debye
        Dipole field          0.0000 Ry au, 
 
        Potential amp.       -0.0032 Ry
        Total length         54.1761 bohr
 

     total cpu time spent up to now is    64175.0 secs

     total energy              =   -7057.94956943 Ry
     estimated scf accuracy    <       0.08436426 Ry

     total magnetization       =    72.52 Bohr mag/cell
     absolute magnetization    =    76.46 Bohr mag/cell

     iteration # 30     ecut=    50.00 Ry     beta= 0.20
     Davidson diagonalization with overlap
     c_bands:  1 eigenvalues not converged
     c_bands:  4 eigenvalues not converged
     c_bands:  1 eigenvalues not converged
     c_bands:  4 eigenvalues not converged
     c_bands:  2 eigenvalues not converged
     c_bands:  3 eigenvalues not converged
     c_bands:  3 eigenvalues not converged
     ethr =  7.94E-06,  avg # of iterations = 14.0

     negative rho (up, down):  1.206E-03 4.095E-03
 
     Adding external electric field

     Computed dipole along edir(3) : 
        Dipole               -0.0060 Ry au,         -0.0152 Debye
        Dipole field         -0.0000 Ry au, 
 
        Potential amp.        0.0004 Ry
        Total length         54.1761 bohr
 
 
     Adding external electric field

     Computed dipole along edir(3) : 
        Dipole               -0.0060 Ry au,         -0.0152 Debye
        Dipole field         -0.0000 Ry au, 
 
        Potential amp.        0.0004 Ry
        Total length         54.1761 bohr
 

     total cpu time spent up to now is    66275.9 secs

     total energy              =   -7057.96567854 Ry
     estimated scf accuracy    <       0.03410572 Ry

     total magnetization       =    72.82 Bohr mag/cell
     absolute magnetization    =    75.83 Bohr mag/cell

     iteration # 31     ecut=    50.00 Ry     beta= 0.20
     Davidson diagonalization with overlap
     c_bands:  3 eigenvalues not converged
     c_bands:  5 eigenvalues not converged
     c_bands:  4 eigenvalues not converged
     c_bands:  3 eigenvalues not converged
     c_bands:  4 eigenvalues not converged
     c_bands:  5 eigenvalues not converged
     c_bands:  3 eigenvalues not converged
     c_bands:  5 eigenvalues not converged
     c_bands:  1 eigenvalues not converged
     c_bands:  3 eigenvalues not converged
     ethr =  3.21E-06,  avg # of iterations = 15.3

     negative rho (up, down):  1.284E-03 4.806E-03
 
     Adding external electric field

     Computed dipole along edir(3) : 
        Dipole               -0.0409 Ry au,         -0.1040 Debye
        Dipole field         -0.0000 Ry au, 
 
        Potential amp.        0.0027 Ry
        Total length         54.1761 bohr
 
 
     Adding external electric field

     Computed dipole along edir(3) : 
        Dipole               -0.0409 Ry au,         -0.1040 Debye
        Dipole field         -0.0000 Ry au, 
 
        Potential amp.        0.0027 Ry
        Total length         54.1761 bohr
 

     total cpu time spent up to now is    68866.4 secs

     total energy              =   -7057.97022708 Ry
     estimated scf accuracy    <       0.03205620 Ry

     total magnetization       =    72.38 Bohr mag/cell
     absolute magnetization    =    74.77 Bohr mag/cell

     iteration # 32     ecut=    50.00 Ry     beta= 0.20
     Davidson diagonalization with overlap
     c_bands:  4 eigenvalues not converged
     ethr =  3.02E-06,  avg # of iterations =  3.2

     negative rho (up, down):  1.254E-03 4.514E-03
 
     Adding external electric field

     Computed dipole along edir(3) : 
        Dipole                0.0228 Ry au,          0.0580 Debye
        Dipole field          0.0000 Ry au, 
 
        Potential amp.       -0.0015 Ry
        Total length         54.1761 bohr
 
 
     Adding external electric field

     Computed dipole along edir(3) : 
        Dipole                0.0228 Ry au,          0.0580 Debye
        Dipole field          0.0000 Ry au, 
 
        Potential amp.       -0.0015 Ry
        Total length         54.1761 bohr
 

     total cpu time spent up to now is    70521.8 secs

     total energy              =   -7057.97273066 Ry
     estimated scf accuracy    <       0.01962565 Ry

     total magnetization       =    72.69 Bohr mag/cell
     absolute magnetization    =    74.85 Bohr mag/cell

     iteration # 33     ecut=    50.00 Ry     beta= 0.20
     Davidson diagonalization with overlap
     ethr =  1.85E-06,  avg # of iterations =  3.2

     negative rho (up, down):  1.203E-03 4.044E-03
 
     Adding external electric field

     Computed dipole along edir(3) : 
        Dipole               -0.0210 Ry au,         -0.0534 Debye
        Dipole field         -0.0000 Ry au, 
 
        Potential amp.        0.0014 Ry
        Total length         54.1761 bohr
 
 
     Adding external electric field

     Computed dipole along edir(3) : 
        Dipole               -0.0210 Ry au,         -0.0534 Debye
        Dipole field         -0.0000 Ry au, 
 
        Potential amp.        0.0014 Ry
        Total length         54.1761 bohr
 

     total cpu time spent up to now is    72176.7 secs

     total energy              =   -7057.97430282 Ry
     estimated scf accuracy    <       0.00343854 Ry

     total magnetization       =    72.67 Bohr mag/cell
     absolute magnetization    =    74.74 Bohr mag/cell

     iteration # 34     ecut=    50.00 Ry     beta= 0.20
     Davidson diagonalization with overlap
     ethr =  3.23E-07,  avg # of iterations =  2.1

     negative rho (up, down):  1.076E-03 2.867E-03
 
     Adding external electric field

     Computed dipole along edir(3) : 
        Dipole               -0.0001 Ry au,         -0.0003 Debye
        Dipole field         -0.0000 Ry au, 
 
        Potential amp.        0.0000 Ry
        Total length         54.1761 bohr
 
 
     Adding external electric field

     Computed dipole along edir(3) : 
        Dipole               -0.0001 Ry au,         -0.0003 Debye
        Dipole field         -0.0000 Ry au, 
 
        Potential amp.        0.0000 Ry
        Total length         54.1761 bohr
 

     total cpu time spent up to now is    73838.1 secs

     total energy              =   -7057.97483985 Ry
     estimated scf accuracy    <       0.00133993 Ry

     total magnetization       =    72.62 Bohr mag/cell
     absolute magnetization    =    74.55 Bohr mag/cell

     iteration # 35     ecut=    50.00 Ry     beta= 0.20
     Davidson diagonalization with overlap
     ethr =  1.26E-07,  avg # of iterations =  1.9

     negative rho (up, down):  9.412E-04 1.540E-03
 
     Adding external electric field

     Computed dipole along edir(3) : 
        Dipole               -0.0152 Ry au,         -0.0385 Debye
        Dipole field         -0.0000 Ry au, 
 
        Potential amp.        0.0010 Ry
        Total length         54.1761 bohr
 
 
     Adding external electric field

     Computed dipole along edir(3) : 
        Dipole               -0.0152 Ry au,         -0.0385 Debye
        Dipole field         -0.0000 Ry au, 
 
        Potential amp.        0.0010 Ry
        Total length         54.1761 bohr
 

     total cpu time spent up to now is    75302.3 secs

     total energy              =   -7057.97545466 Ry
     estimated scf accuracy    <       0.00069925 Ry

     total magnetization       =    72.63 Bohr mag/cell
     absolute magnetization    =    74.54 Bohr mag/cell

     iteration # 36     ecut=    50.00 Ry     beta= 0.20
     Davidson diagonalization with overlap
     ethr =  6.58E-08,  avg # of iterations =  2.8

     negative rho (up, down):  9.025E-04 1.168E-03
 
     Adding external electric field

     Computed dipole along edir(3) : 
        Dipole               -0.0004 Ry au,         -0.0010 Debye
        Dipole field         -0.0000 Ry au, 
 
        Potential amp.        0.0000 Ry
        Total length         54.1761 bohr
 
 
     Adding external electric field

     Computed dipole along edir(3) : 
        Dipole               -0.0004 Ry au,         -0.0010 Debye
        Dipole field         -0.0000 Ry au, 
 
        Potential amp.        0.0000 Ry
        Total length         54.1761 bohr
 

     total cpu time spent up to now is    77186.8 secs

     total energy              =   -7057.97567023 Ry
     estimated scf accuracy    <       0.00022834 Ry

     total magnetization       =    72.62 Bohr mag/cell
     absolute magnetization    =    74.44 Bohr mag/cell

     iteration # 37     ecut=    50.00 Ry     beta= 0.20
     Davidson diagonalization with overlap
     ethr =  2.15E-08,  avg # of iterations =  2.9

     negative rho (up, down):  8.544E-04 7.427E-04
 
     Adding external electric field

     Computed dipole along edir(3) : 
        Dipole               -0.0125 Ry au,         -0.0317 Debye
        Dipole field         -0.0000 Ry au, 
 
        Potential amp.        0.0008 Ry
        Total length         54.1761 bohr
 
 
     Adding external electric field

     Computed dipole along edir(3) : 
        Dipole               -0.0125 Ry au,         -0.0317 Debye
        Dipole field         -0.0000 Ry au, 
 
        Potential amp.        0.0008 Ry
        Total length         54.1761 bohr
 

     total cpu time spent up to now is    78901.0 secs

     total energy              =   -7057.97578770 Ry
     estimated scf accuracy    <       0.00033128 Ry

     total magnetization       =    72.64 Bohr mag/cell
     absolute magnetization    =    74.43 Bohr mag/cell

     iteration # 38     ecut=    50.00 Ry     beta= 0.20
     Davidson diagonalization with overlap
     ethr =  2.15E-08,  avg # of iterations =  2.0

     negative rho (up, down):  8.303E-04 5.577E-04
 
     Adding external electric field

     Computed dipole along edir(3) : 
        Dipole               -0.0135 Ry au,         -0.0344 Debye
        Dipole field         -0.0000 Ry au, 
 
        Potential amp.        0.0009 Ry
        Total length         54.1761 bohr
 
 
     Adding external electric field

     Computed dipole along edir(3) : 
        Dipole               -0.0135 Ry au,         -0.0344 Debye
        Dipole field         -0.0000 Ry au, 
 
        Potential amp.        0.0009 Ry
        Total length         54.1761 bohr
 

     total cpu time spent up to now is    80564.1 secs

     total energy              =   -7057.97584726 Ry
     estimated scf accuracy    <       0.00005704 Ry

     total magnetization       =    72.64 Bohr mag/cell
     absolute magnetization    =    74.40 Bohr mag/cell

     iteration # 39     ecut=    50.00 Ry     beta= 0.20
     Davidson diagonalization with overlap
     c_bands:  3 eigenvalues not converged
     ethr =  5.37E-09,  avg # of iterations =  6.0

     negative rho (up, down):  8.227E-04 5.036E-04
 
     Adding external electric field

     Computed dipole along edir(3) : 
        Dipole               -0.0134 Ry au,         -0.0341 Debye
        Dipole field         -0.0000 Ry au, 
 
        Potential amp.        0.0009 Ry
        Total length         54.1761 bohr
 
 
     Adding external electric field

     Computed dipole along edir(3) : 
        Dipole               -0.0134 Ry au,         -0.0341 Debye
        Dipole field         -0.0000 Ry au, 
 
        Potential amp.        0.0009 Ry
        Total length         54.1761 bohr
 

     total cpu time spent up to now is    82719.2 secs

     total energy              =   -7057.97587239 Ry
     estimated scf accuracy    <       0.00002584 Ry

     total magnetization       =    72.64 Bohr mag/cell
     absolute magnetization    =    74.37 Bohr mag/cell

     iteration # 40     ecut=    50.00 Ry     beta= 0.20
     Davidson diagonalization with overlap
     ethr =  2.43E-09,  avg # of iterations =  3.5

     negative rho (up, down):  8.190E-04 4.785E-04
 
     Adding external electric field

     Computed dipole along edir(3) : 
        Dipole               -0.0148 Ry au,         -0.0377 Debye
        Dipole field         -0.0000 Ry au, 
 
        Potential amp.        0.0010 Ry
        Total length         54.1761 bohr
 
 
     Adding external electric field

     Computed dipole along edir(3) : 
        Dipole               -0.0148 Ry au,         -0.0377 Debye
        Dipole field         -0.0000 Ry au, 
 
        Potential amp.        0.0010 Ry
        Total length         54.1761 bohr
 

     total cpu time spent up to now is    84538.5 secs

     total energy              =   -7057.97588433 Ry
     estimated scf accuracy    <       0.00001328 Ry

     total magnetization       =    72.64 Bohr mag/cell
     absolute magnetization    =    74.36 Bohr mag/cell

     iteration # 41     ecut=    50.00 Ry     beta= 0.20
     Davidson diagonalization with overlap
     ethr =  1.25E-09,  avg # of iterations =  3.4

     negative rho (up, down):  8.191E-04 4.810E-04
 
     Adding external electric field

     Computed dipole along edir(3) : 
        Dipole               -0.0144 Ry au,         -0.0367 Debye
        Dipole field         -0.0000 Ry au, 
 
        Potential amp.        0.0010 Ry
        Total length         54.1761 bohr
 
 
     Adding external electric field

     Computed dipole along edir(3) : 
        Dipole               -0.0144 Ry au,         -0.0367 Debye
        Dipole field         -0.0000 Ry au, 
 
        Potential amp.        0.0010 Ry
        Total length         54.1761 bohr
 

     total cpu time spent up to now is    86395.7 secs

     total energy              =   -7057.97589219 Ry
     estimated scf accuracy    <       0.00000793 Ry

     total magnetization       =    72.64 Bohr mag/cell
     absolute magnetization    =    74.36 Bohr mag/cell

     iteration # 42     ecut=    50.00 Ry     beta= 0.20
     Davidson diagonalization with overlap
     c_bands:  2 eigenvalues not converged
     ethr =  7.46E-10,  avg # of iterations =  2.9

     negative rho (up, down):  8.196E-04 4.850E-04
 
     Adding external electric field

     Computed dipole along edir(3) : 
        Dipole               -0.0160 Ry au,         -0.0406 Debye
        Dipole field         -0.0000 Ry au, 
 
        Potential amp.        0.0011 Ry
        Total length         54.1761 bohr
 
 
     Adding external electric field

     Computed dipole along edir(3) : 
        Dipole               -0.0160 Ry au,         -0.0406 Debye
        Dipole field         -0.0000 Ry au, 
 
        Potential amp.        0.0011 Ry
        Total length         54.1761 bohr
 

     total cpu time spent up to now is    88338.9 secs

     total energy              =   -7057.97589588 Ry
     estimated scf accuracy    <       0.00000466 Ry

     total magnetization       =    72.64 Bohr mag/cell
     absolute magnetization    =    74.35 Bohr mag/cell

     iteration # 43     ecut=    50.00 Ry     beta= 0.20
     Davidson diagonalization with overlap
     c_bands:  1 eigenvalues not converged
     ethr =  4.38E-10,  avg # of iterations =  3.1

     negative rho (up, down):  8.214E-04 4.976E-04
 
     Adding external electric field

     Computed dipole along edir(3) : 
        Dipole               -0.0148 Ry au,         -0.0376 Debye
        Dipole field         -0.0000 Ry au, 
 
        Potential amp.        0.0010 Ry
        Total length         54.1761 bohr
 
 
     Adding external electric field

     Computed dipole along edir(3) : 
        Dipole               -0.0148 Ry au,         -0.0376 Debye
        Dipole field         -0.0000 Ry au, 
 
        Potential amp.        0.0010 Ry
        Total length         54.1761 bohr
 

     total cpu time spent up to now is    90276.6 secs

     total energy              =   -7057.97589754 Ry
     estimated scf accuracy    <       0.00000256 Ry

     total magnetization       =    72.64 Bohr mag/cell
     absolute magnetization    =    74.34 Bohr mag/cell

     iteration # 44     ecut=    50.00 Ry     beta= 0.20
     Davidson diagonalization with overlap
     ethr =  2.41E-10,  avg # of iterations =  2.5

     negative rho (up, down):  8.253E-04 5.257E-04
 
     Adding external electric field

     Computed dipole along edir(3) : 
        Dipole               -0.0273 Ry au,         -0.0694 Debye
        Dipole field         -0.0000 Ry au, 
 
        Potential amp.        0.0018 Ry
        Total length         54.1761 bohr
 
 
     Adding external electric field

     Computed dipole along edir(3) : 
        Dipole               -0.0273 Ry au,         -0.0694 Debye
        Dipole field         -0.0000 Ry au, 
 
        Potential amp.        0.0018 Ry
        Total length         54.1761 bohr
 
 
     Magnetic moment per site:
     atom:    1    charge:    7.1348    magn:    1.4640    constr:    0.0000
     atom:    2    charge:    7.1245    magn:    1.5511    constr:    0.0000
     atom:    3    charge:    7.1350    magn:    1.4639    constr:    0.0000
     atom:    4    charge:    7.1245    magn:    1.5511    constr:    0.0000
     atom:    5    charge:    7.1442    magn:    1.5076    constr:    0.0000
     atom:    6    charge:    7.1442    magn:    1.5076    constr:    0.0000
     atom:    7    charge:    0.8200    magn:    0.0061    constr:    0.0000
     atom:    8    charge:    0.8229    magn:    0.0031    constr:    0.0000
     atom:    9    charge:    0.8229    magn:    0.0031    constr:    0.0000
     atom:   10    charge:    0.8200    magn:    0.0061    constr:    0.0000
     atom:   11    charge:    1.9671    magn:    0.0778    constr:    0.0000
     atom:   12    charge:    1.9669    magn:    0.0980    constr:    0.0000
     atom:   13    charge:    1.9669    magn:    0.0980    constr:    0.0000
     atom:   14    charge:    1.9671    magn:    0.0778    constr:    0.0000
     atom:   15    charge:    1.9748    magn:    0.0566    constr:    0.0000
     atom:   16    charge:    1.9572    magn:    0.0500    constr:    0.0000
     atom:   17    charge:    1.9573    magn:    0.0500    constr:    0.0000
     atom:   18    charge:    1.9748    magn:    0.0566    constr:    0.0000
     atom:   19    charge:    1.9732    magn:    0.0572    constr:    0.0000
     atom:   20    charge:    1.9682    magn:    0.0542    constr:    0.0000
     atom:   21    charge:    1.9744    magn:    0.0488    constr:    0.0000
     atom:   22    charge:    1.9734    magn:    0.0484    constr:    0.0000
     atom:   23    charge:    1.9734    magn:    0.0484    constr:    0.0000
     atom:   24    charge:    1.9682    magn:    0.0542    constr:    0.0000
     atom:   25    charge:    1.9732    magn:    0.0572    constr:    0.0000
     atom:   26    charge:    1.9744    magn:    0.0488    constr:    0.0000
     atom:   27    charge:    7.1268    magn:    1.5450    constr:    0.0000
     atom:   28    charge:    7.1260    magn:    1.5452    constr:    0.0000
     atom:   29    charge:    7.1268    magn:    1.5452    constr:    0.0000
     atom:   30    charge:    7.1264    magn:    1.5446    constr:    0.0000
     atom:   31    charge:    7.1458    magn:    1.5060    constr:    0.0000
     atom:   32    charge:    7.1458    magn:    1.5057    constr:    0.0000
     atom:   33    charge:    0.8200    magn:    0.0062    constr:    0.0000
     atom:   34    charge:    0.8202    magn:    0.0062    constr:    0.0000
     atom:   35    charge:    0.8202    magn:    0.0062    constr:    0.0000
     atom:   36    charge:    0.8200    magn:    0.0062    constr:    0.0000
     atom:   37    charge:    1.9676    magn:    0.0809    constr:    0.0000
     atom:   38    charge:    1.9675    magn:    0.0808    constr:    0.0000
     atom:   39    charge:    1.9675    magn:    0.0808    constr:    0.0000
     atom:   40    charge:    1.9676    magn:    0.0810    constr:    0.0000
     atom:   41    charge:    1.9739    magn:    0.0571    constr:    0.0000
     atom:   42    charge:    1.9740    magn:    0.0569    constr:    0.0000
     atom:   43    charge:    1.9740    magn:    0.0569    constr:    0.0000
     atom:   44    charge:    1.9742    magn:    0.0565    constr:    0.0000
     atom:   45    charge:    1.9738    magn:    0.0569    constr:    0.0000
     atom:   46    charge:    1.9734    magn:    0.0569    constr:    0.0000
     atom:   47    charge:    1.9743    magn:    0.0488    constr:    0.0000
     atom:   48    charge:    1.9741    magn:    0.0487    constr:    0.0000
     atom:   49    charge:    1.9741    magn:    0.0487    constr:    0.0000
     atom:   50    charge:    1.9734    magn:    0.0569    constr:    0.0000
     atom:   51    charge:    1.9738    magn:    0.0568    constr:    0.0000
     atom:   52    charge:    1.9743    magn:    0.0486    constr:    0.0000
     atom:   53    charge:    7.1218    magn:    1.5542    constr:    0.0000
     atom:   54    charge:    7.0768    magn:    1.6944    constr:    0.0000
     atom:   55    charge:    7.1238    magn:    1.5474    constr:    0.0000
     atom:   56    charge:    7.1359    magn:    1.4659    constr:    0.0000
     atom:   57    charge:    7.1438    magn:    1.5011    constr:    0.0000
     atom:   58    charge:    7.1410    magn:    1.5065    constr:    0.0000
     atom:   59    charge:    0.8177    magn:    0.0042    constr:    0.0000
     atom:   60    charge:    0.8190    magn:    0.0061    constr:    0.0000
     atom:   61    charge:    0.8206    magn:    0.0060    constr:    0.0000
     atom:   62    charge:    0.8174    magn:    0.0043    constr:    0.0000
     atom:   63    charge:    1.9651    magn:    0.1005    constr:    0.0000
     atom:   64    charge:    1.9651    magn:    0.0843    constr:    0.0000
     atom:   65    charge:    1.9683    magn:    0.0758    constr:    0.0000
     atom:   66    charge:    1.9619    magn:    0.1050    constr:    0.0000
     atom:   67    charge:    1.9662    magn:    0.0398    constr:    0.0000
     atom:   68    charge:    1.9731    magn:    0.0576    constr:    0.0000
     atom:   69    charge:    1.9723    magn:    0.0550    constr:    0.0000
     atom:   70    charge:    1.9614    magn:    0.0452    constr:    0.0000
     atom:   71    charge:    1.9679    magn:    0.0540    constr:    0.0000
     atom:   72    charge:    1.9721    magn:    0.0567    constr:    0.0000
     atom:   73    charge:    1.9731    magn:    0.0504    constr:    0.0000
     atom:   74    charge:    1.9742    magn:    0.0480    constr:    0.0000
     atom:   75    charge:    1.9738    magn:    0.0472    constr:    0.0000
     atom:   76    charge:    1.9711    magn:    0.0587    constr:    0.0000
     atom:   77    charge:    1.9684    magn:    0.0534    constr:    0.0000
     atom:   78    charge:    1.9714    magn:    0.0562    constr:    0.0000
     atom:   79    charge:    7.1350    magn:    1.4639    constr:    0.0000
     atom:   80    charge:    7.1245    magn:    1.5511    constr:    0.0000
     atom:   81    charge:    7.1349    magn:    1.4640    constr:    0.0000
     atom:   82    charge:    7.1245    magn:    1.5511    constr:    0.0000
     atom:   83    charge:    7.1442    magn:    1.5076    constr:    0.0000
     atom:   84    charge:    7.1442    magn:    1.5076    constr:    0.0000
     atom:   85    charge:    0.8200    magn:    0.0061    constr:    0.0000
     atom:   86    charge:    0.8229    magn:    0.0031    constr:    0.0000
     atom:   87    charge:    0.8229    magn:    0.0031    constr:    0.0000
     atom:   88    charge:    0.8200    magn:    0.0061    constr:    0.0000
     atom:   89    charge:    1.9671    magn:    0.0778    constr:    0.0000
     atom:   90    charge:    1.9669    magn:    0.0980    constr:    0.0000
     atom:   91    charge:    1.9669    magn:    0.0980    constr:    0.0000
     atom:   92    charge:    1.9671    magn:    0.0778    constr:    0.0000
     atom:   93    charge:    1.9748    magn:    0.0566    constr:    0.0000
     atom:   94    charge:    1.9572    magn:    0.0500    constr:    0.0000
     atom:   95    charge:    1.9573    magn:    0.0500    constr:    0.0000
     atom:   96    charge:    1.9748    magn:    0.0566    constr:    0.0000
     atom:   97    charge:    1.9732    magn:    0.0572    constr:    0.0000
     atom:   98    charge:    1.9682    magn:    0.0542    constr:    0.0000
     atom:   99    charge:    1.9744    magn:    0.0488    constr:    0.0000
     atom:  100    charge:    1.9734    magn:    0.0484    constr:    0.0000
     atom:  101    charge:    1.9734    magn:    0.0484    constr:    0.0000
     atom:  102    charge:    1.9682    magn:    0.0542    constr:    0.0000
     atom:  103    charge:    1.9732    magn:    0.0572    constr:    0.0000
     atom:  104    charge:    1.9744    magn:    0.0488    constr:    0.0000
     atom:  105    charge:    7.1268    magn:    1.5453    constr:    0.0000
     atom:  106    charge:    7.1263    magn:    1.5452    constr:    0.0000
     atom:  107    charge:    7.1268    magn:    1.5452    constr:    0.0000
     atom:  108    charge:    7.1263    magn:    1.5453    constr:    0.0000
     atom:  109    charge:    7.1458    magn:    1.5058    constr:    0.0000
     atom:  110    charge:    7.1458    magn:    1.5062    constr:    0.0000
     atom:  111    charge:    0.8201    magn:    0.0062    constr:    0.0000
     atom:  112    charge:    0.8202    magn:    0.0063    constr:    0.0000
     atom:  113    charge:    0.8202    magn:    0.0063    constr:    0.0000
     atom:  114    charge:    0.8199    magn:    0.0062    constr:    0.0000
     atom:  115    charge:    1.9676    magn:    0.0812    constr:    0.0000
     atom:  116    charge:    1.9675    magn:    0.0809    constr:    0.0000
     atom:  117    charge:    1.9675    magn:    0.0809    constr:    0.0000
     atom:  118    charge:    1.9676    magn:    0.0810    constr:    0.0000
     atom:  119    charge:    1.9742    magn:    0.0565    constr:    0.0000
     atom:  120    charge:    1.9740    magn:    0.0569    constr:    0.0000
     atom:  121    charge:    1.9740    magn:    0.0569    constr:    0.0000
     atom:  122    charge:    1.9740    magn:    0.0564    constr:    0.0000
     atom:  123    charge:    1.9737    magn:    0.0569    constr:    0.0000
     atom:  124    charge:    1.9734    magn:    0.0570    constr:    0.0000
     atom:  125    charge:    1.9743    magn:    0.0488    constr:    0.0000
     atom:  126    charge:    1.9741    magn:    0.0487    constr:    0.0000
     atom:  127    charge:    1.9741    magn:    0.0487    constr:    0.0000
     atom:  128    charge:    1.9734    magn:    0.0569    constr:    0.0000
     atom:  129    charge:    1.9738    magn:    0.0568    constr:    0.0000
     atom:  130    charge:    1.9743    magn:    0.0488    constr:    0.0000
     atom:  131    charge:    7.1252    magn:    1.5436    constr:    0.0000
     atom:  132    charge:    7.1369    magn:    1.4737    constr:    0.0000
     atom:  133    charge:    7.1231    magn:    1.5491    constr:    0.0000
     atom:  134    charge:    7.1353    magn:    1.4623    constr:    0.0000
     atom:  135    charge:    7.1410    magn:    1.4975    constr:    0.0000
     atom:  136    charge:    7.1397    magn:    1.5080    constr:    0.0000
     atom:  137    charge:    0.8181    magn:    0.0051    constr:    0.0000
     atom:  138    charge:    0.8202    magn:    0.0060    constr:    0.0000
     atom:  139    charge:    0.8202    magn:    0.0058    constr:    0.0000
     atom:  140    charge:    0.8175    magn:    0.0040    constr:    0.0000
     atom:  141    charge:    1.9672    magn:    0.0784    constr:    0.0000
     atom:  142    charge:    1.9666    magn:    0.0782    constr:    0.0000
     atom:  143    charge:    1.9671    magn:    0.0770    constr:    0.0000
     atom:  144    charge:    1.9633    magn:    0.1083    constr:    0.0000
     atom:  145    charge:    1.9655    magn:    0.0603    constr:    0.0000
     atom:  146    charge:    1.9733    magn:    0.0543    constr:    0.0000
     atom:  147    charge:    1.9733    magn:    0.0556    constr:    0.0000
     atom:  148    charge:    1.9632    magn:    0.0447    constr:    0.0000
     atom:  149    charge:    1.9687    magn:    0.0655    constr:    0.0000
     atom:  150    charge:    1.9724    magn:    0.0576    constr:    0.0000
     atom:  151    charge:    1.9704    magn:    0.0481    constr:    0.0000
     atom:  152    charge:    1.9724    magn:    0.0482    constr:    0.0000
     atom:  153    charge:    1.9739    magn:    0.0496    constr:    0.0000
     atom:  154    charge:    1.9719    magn:    0.0562    constr:    0.0000
     atom:  155    charge:    1.9694    magn:    0.0552    constr:    0.0000
     atom:  156    charge:    1.9712    magn:    0.0509    constr:    0.0000
     atom:  157    charge:    1.9530    magn:    0.2213    constr:    0.0000
     atom:  158    charge:    0.3967    magn:   -0.0017    constr:    0.0000

     total cpu time spent up to now is    92010.1 secs

     End of self-consistent calculation

 ------ SPIN UP ------------


          k = 0.0000 0.0000 0.0000 (121819 PWs)   bands (ev):

   -21.4445 -21.3080 -21.2481 -21.2178 -21.1834 -21.1807 -21.1752 -21.1302
   -21.1037 -21.1009 -21.0792 -21.0248 -21.0204 -20.9949 -20.9557 -20.9374
   -20.8193 -20.8181 -20.7861 -20.7160 -20.7063 -20.6752 -20.6120 -20.5774
   -19.0308 -19.0294 -18.9812 -18.9738 -18.9390 -18.9210 -18.9091 -18.8994
   -18.8764 -18.8252 -18.8170 -18.8162 -18.7767 -18.7706 -18.7475 -18.7387
   -18.7280 -18.7191 -18.7147 -18.7120 -18.7018 -18.6985 -18.6815 -18.6702
   -18.6668 -18.6553 -18.6440 -18.6286 -18.6178 -18.5975 -18.5746 -18.5738
   -18.5735 -18.5683 -18.5532 -18.5485 -18.5427 -18.5330 -18.5244 -18.5103
   -18.5066 -18.4977 -18.4929 -18.4822 -18.4800 -18.4770 -18.4565 -18.4483
   -18.4438 -18.4373 -18.4367 -18.4201 -18.3904 -18.3891 -18.3701 -18.3629
[...]
    -6.1345  -6.1083  -6.1045  -6.0982  -6.0860  -6.0405  -6.0347  -6.0318
    -6.0304  -6.0076  -6.0011  -5.9923  -5.9901  -5.9151  -5.9086  -5.9035
    -5.8968  -5.8732  -5.8728  -5.8534  -5.8434  -5.7658  -5.7652  -5.7591
    -5.7544  -5.6744  -5.6673  -5.6651  -5.6516  -5.5604  -5.5281  -5.5001
    -5.4948  -5.4587  -5.4488  -5.4185  -5.4135  -5.4058  -5.4035  -5.3847
    -5.3539  -5.1302  -4.9823  -4.9798  -4.9761  -4.9706  -4.9384  -4.9275
    -4.9073  -4.7950  -4.7387  -4.7373  -4.7344  -4.7111  -4.6428  -4.6399
    -4.6323  -4.6281  -4.5988  -4.5816  -4.5724  -4.5274  -4.3910  -4.3901
    -4.3892  -4.3765  -4.3293  -4.3114  -4.3097  -4.2869  -4.2442  -4.2353
    -4.2266  -4.2054  -4.1676  -4.1566  -4.1494  -4.1057  -3.9874  -3.9778
    -3.9743  -3.9547  -3.9071  -3.9018  -3.8853  -3.8447  -3.7779  -3.7746
    -3.7714  -3.7560  -3.7217  -3.7149  -3.7126  -3.7060  -3.6935  -3.6853
    -3.6842  -3.6717  -3.6199  -3.6155  -3.6137  -3.6073  -3.5552  -3.5367
    -3.5236  -3.5143  -3.4429  -3.4348  -3.4305  -3.4162  -3.4011  -3.3884
    -3.3791  -3.3686  -3.2977  -3.2933  -3.2886  -3.2786  -3.2678  -3.2580
    -3.2537  -3.2496  -3.1818  -3.1794  -3.1742  -3.1718  -3.0292  -3.0137
    -3.0040  -2.9986  -2.9631  -2.9547  -2.9393  -2.9319  -2.9035  -2.8992
    -2.8850  -2.8721  -2.7909  -2.7812  -2.7766  -2.7709  -2.7607  -2.7371
    -2.7316  -2.7096  -2.6830  -2.6642  -2.6618  -2.6448  -2.6376  -2.6197
    -2.6157  -2.5944  -2.5889  -2.5855  -2.5789  -2.5635  -2.5214  -2.5192
    -2.5069  -2.4978  -2.4883  -2.4830  -2.4785  -2.4734  -2.4632  -2.4618
    -2.4459  -2.4106  -2.3542  -2.3529  -2.3480  -2.3230  -2.2859  -2.2797
    -2.2709  -2.2580  -2.2538  -2.2421  -2.2297  -2.2238  -2.1899  -2.1801
    -2.1753  -2.1734  -2.0683  -2.0545  -2.0485  -2.0416  -1.9970  -1.9718
    -1.9584  -1.9514  -1.9448  -1.9435  -1.9402  -1.9312  -1.9132  -1.9053
    -1.9022  -1.8800  -1.7994  -1.7841  -1.7826  -1.7792  -1.7724  -1.7581
    -1.7568  -1.7342  -1.6949  -1.6122  -1.6119  -1.6087  -1.5968  -1.5557
    -1.5351  -1.5223  -1.4959  -1.4885  -1.4650  -1.4530  -1.4446  -1.4104
    -1.3933  -1.3864  -1.2975  -1.2597  -1.2511  -1.2477  -1.2175  -1.2087
    -1.2074  -1.2071  -1.1906  -1.0298  -0.9754  -0.9229  -0.8595  -0.6796
    -0.6795  -0.6795  -0.6794  -0.6315   0.1329   0.1392   0.1404   0.1414
     0.1598   0.1749   0.1774   0.1813   0.1922   0.2043   0.2087   0.2143
     0.2219   0.2268   0.2278   0.2343   0.2375   0.2472   0.2545   0.2604
     0.2674   0.2745   0.2807   0.2906   0.2938   0.2968   0.2984   0.2998
     0.3072   0.3180   0.3203   0.3257   0.3364   0.3637   0.3652   0.3660
     0.3697   0.3714   0.3773   0.3856   0.3884   0.3918   0.3933   0.3994
     0.4009   0.4114   0.4152   0.4318   0.4434   0.4491   0.4517   0.4556
     0.4620   0.4691   0.4745   0.4811   0.4849   0.4904   0.4917   0.4999
     0.5026   0.5077   0.5122   0.5137   0.5259   0.5280   0.5284   0.5410
     0.5418   0.5445   0.5588   0.5771   0.5860   0.5933   0.5985   0.6061
     0.6215   0.6300   0.6327   0.6415   0.6473   0.6576   0.6639   0.6848
     0.6879   0.6911   0.6963   0.7131   0.7161   0.7236   0.7294   0.7486
     0.7588   0.7644   0.7669   0.7835   0.7878   0.7911   0.7956   0.7990
     0.8150   0.8219   0.8287   0.8292   0.8307   0.8318   0.8522   1.2921
     1.4210   1.4211   1.4212   1.4213   1.5084   1.5645   1.5746   1.6788
     1.8256   1.8331   1.8406   1.8421   1.8661   1.8681   1.8753   1.8826
     1.9647   1.9722   1.9753   1.9857   2.0256   2.0328   2.0336   2.0487
     2.0562   2.0630   2.0681   2.0709   2.0817   2.0865   2.0873   2.0894
     2.0953   2.1146   2.1234   2.1252   2.1896   2.2091   2.2147   2.2260
     2.2330   2.2450   2.2534   2.2873   2.2995   2.3022   2.3040   2.3277
     2.3430   2.3478   2.3582   2.3897   2.4191   2.4711   2.4754   2.4944
     2.5073   2.5245   2.5328   2.5430   2.5765   2.6110   2.6155   2.6194
     2.6319   2.6431   2.6450   2.6494   2.6538   2.6808   2.7022   2.7132
     5.7235   5.7238   5.7250   5.7278   5.9082   5.9171   5.9494   6.0937
     6.2877   6.2911   6.3094   6.4911   6.7885   6.7996   6.8107   6.9341
     7.1100   7.1245   7.1274   7.2680   7.3284   7.3364   7.3475   7.4288
     7.6319   7.6401   7.6416   7.7153   7.8450   7.8510   7.8567   7.8686
     7.9194   7.9230   7.9361   7.9773   8.0629   8.0752   8.0927   8.1517
     8.1674   8.1772   8.1945   8.2444   8.2875   8.2926   8.3058   8.3139
     8.3205   8.3308   8.3378   8.3428   8.3474   8.3685   8.3802   8.4006
     8.4433   8.4501   8.4787   8.4936   8.5233   8.5295   8.5519   8.6665
     8.6838   8.6873   8.6881   8.7091   8.7323   8.7542

     the Fermi energy is     1.1884 ev

!    total energy              =   -7057.97589810 Ry
     estimated scf accuracy    <       0.00000068 Ry
     smearing contrib. (-TS)   =      -0.00486686 Ry
     internal energy E=F+TS    =   -7057.97103124 Ry

     The total energy is F=E-TS. E is the sum of the following terms:
     one-electron contribution =  -89074.70212969 Ry
     hartree contribution      =   45215.07393890 Ry
     xc contribution           =   -2299.50175972 Ry
     ewald contribution        =   39102.99745750 Ry
     Dispersion Correction     =      -1.83853869 Ry
     electric field correction =       0.00000046 Ry

     total magnetization       =    72.64 Bohr mag/cell
     absolute magnetization    =    74.34 Bohr mag/cell

     convergence has been achieved in  44 iterations

     negative rho (up, down):  8.253E-04 5.257E-04

     Forces acting on atoms (cartesian axes, Ry/au):

     atom    1 type  1   force =     0.02941646   -0.01707263    0.01843479
     atom    2 type  1   force =    -0.00359721    0.00063745   -0.00204216
     atom    3 type  1   force =    -0.02941296   -0.01708082    0.01841968
     atom    4 type  1   force =     0.00358476    0.00060482   -0.00203139
     atom    5 type  1   force =    -0.00319248    0.00470266   -0.00139683
     atom    6 type  1   force =     0.00321581    0.00475854   -0.00141046
     atom    7 type  2   force =     0.00167615    0.00072095   -0.00097047
     atom    8 type  2   force =    -0.03164270    0.04266426   -0.07499125
     atom    9 type  2   force =     0.03164105    0.04267488   -0.07499523
     atom   10 type  2   force =    -0.00169519    0.00073920   -0.00096983
     atom   11 type  3   force =    -0.00182384    0.00002667   -0.00177496
     atom   12 type  3   force =    -0.00554574   -0.00019282    0.02460244
     atom   13 type  3   force =     0.00552712   -0.00020467    0.02462113
     atom   14 type  3   force =     0.00183167    0.00001983   -0.00176051
     atom   15 type  3   force =    -0.00051909   -0.00113201   -0.00005312
     atom   16 type  3   force =     0.00742223   -0.00053743    0.02966209
     atom   17 type  3   force =    -0.00743604   -0.00054274    0.02963912
     atom   18 type  3   force =     0.00052051   -0.00114903   -0.00004502
     atom   19 type  3   force =    -0.00035320   -0.00024263    0.00064299
     atom   20 type  3   force =    -0.01372926   -0.03022424   -0.00091981
     atom   21 type  3   force =     0.00033095   -0.00069569    0.00145545
     atom   22 type  3   force =    -0.01819101    0.00081903    0.00223878
     atom   23 type  3   force =     0.01818258    0.00084686    0.00224134
     atom   24 type  3   force =     0.01371240   -0.03021542   -0.00092134
     atom   25 type  3   force =     0.00035678   -0.00024228    0.00064403
     atom   26 type  3   force =    -0.00034457   -0.00068513    0.00144452
     atom   27 type  1   force =     0.00003776   -0.00012928   -0.00053571
     atom   28 type  1   force =    -0.00129575   -0.00103648    0.00490591
     atom   29 type  1   force =    -0.00004807   -0.00011652   -0.00054293
     atom   30 type  1   force =     0.00071365   -0.00025330    0.00204414
     atom   31 type  1   force =    -0.00009828   -0.00009489    0.00003456
     atom   32 type  1   force =     0.00001283   -0.00009332    0.00007156
     atom   33 type  2   force =     0.00009250   -0.00075996    0.00152420
     atom   34 type  2   force =    -0.00002660    0.00012514    0.00009612
     atom   35 type  2   force =     0.00008140    0.00012402    0.00000089
     atom   36 type  2   force =    -0.00017845   -0.00031175    0.00159769
     atom   37 type  3   force =    -0.00034745   -0.00013128   -0.00029442
     atom   38 type  3   force =    -0.00031563    0.00022978    0.00002665
     atom   39 type  3   force =     0.00023228    0.00022545   -0.00000164
     atom   40 type  3   force =     0.00038134   -0.00033221   -0.00028683
     atom   41 type  3   force =     0.00165086   -0.00096244    0.00283579
     atom   42 type  3   force =    -0.00007475    0.00037777    0.00023024
     atom   43 type  3   force =     0.00004512    0.00036397    0.00024075
     atom   44 type  3   force =    -0.00091667    0.00024921    0.00111422
     atom   45 type  3   force =    -0.00000206    0.00063990    0.00008284
     atom   46 type  3   force =    -0.00023583   -0.00002841    0.00025550
     atom   47 type  3   force =    -0.00082020   -0.00005621    0.00008791
     atom   48 type  3   force =    -0.00019515    0.00020989    0.00004621
     atom   49 type  3   force =     0.00022694    0.00021056    0.00003306
     atom   50 type  3   force =     0.00020925   -0.00004152    0.00023856
     atom   51 type  3   force =     0.00051820    0.00075895    0.00024362
     atom   52 type  3   force =     0.00048668   -0.00008445   -0.00020900
     atom   53 type  1   force =    -0.00001954   -0.00010306   -0.00027859
     atom   54 type  1   force =    -0.00211975   -0.00179816    0.00238447
     atom   55 type  1   force =     0.00039917    0.00031281   -0.00014209
     atom   56 type  1   force =     0.00013328   -0.00029249    0.00061294
     atom   57 type  1   force =     0.00008893    0.00019894   -0.00044040
     atom   58 type  1   force =    -0.00022174    0.00007941   -0.00017377
     atom   59 type  2   force =     0.00050207   -0.00124414    0.00080846
     atom   60 type  2   force =     0.00039448    0.00014194    0.00033293
     atom   61 type  2   force =    -0.00054146   -0.00004956   -0.00000188
     atom   62 type  2   force =    -0.00041078   -0.00021254    0.00032499
     atom   63 type  3   force =    -0.00007715    0.00004503   -0.00015003
     atom   64 type  3   force =     0.00023875   -0.00010715    0.00002697
     atom   65 type  3   force =     0.00022869    0.00028311   -0.00020058
     atom   66 type  3   force =     0.00016395    0.00009768    0.00017302
     atom   67 type  3   force =     0.00003659    0.00075931   -0.00067115
     atom   68 type  3   force =    -0.00014889    0.00010348   -0.00011938
     atom   69 type  3   force =    -0.00019606    0.00015181    0.00006163
     atom   70 type  3   force =     0.00000041    0.00021997    0.00008669
     atom   71 type  3   force =     0.00038385    0.00007028    0.00025340
     atom   72 type  3   force =     0.00026694   -0.00008244   -0.00027938
     atom   73 type  3   force =     0.00015956    0.00007270    0.00012338
     atom   74 type  3   force =    -0.00021845   -0.00008580   -0.00012760
     atom   75 type  3   force =     0.00016364   -0.00008363   -0.00028525
     atom   76 type  3   force =    -0.00066748   -0.00024170   -0.00047799
     atom   77 type  3   force =     0.00003587    0.00090152    0.00007038
     atom   78 type  3   force =     0.00010811   -0.00025947    0.00017980
     atom   79 type  1   force =     0.02945090   -0.01707160    0.01845554
     atom   80 type  1   force =    -0.00357554    0.00062208   -0.00204784
     atom   81 type  1   force =    -0.02940711   -0.01705056    0.01840051
     atom   82 type  1   force =     0.00355865    0.00061982   -0.00201797
     atom   83 type  1   force =    -0.00322052    0.00473107   -0.00139133
     atom   84 type  1   force =     0.00319124    0.00472433   -0.00137458
     atom   85 type  2   force =     0.00168237    0.00072145   -0.00097225
     atom   86 type  2   force =    -0.03164604    0.04266934   -0.07498541
     atom   87 type  2   force =     0.03163469    0.04266674   -0.07498874
     atom   88 type  2   force =    -0.00168972    0.00073489   -0.00097390
     atom   89 type  3   force =    -0.00184051    0.00002528   -0.00177630
     atom   90 type  3   force =    -0.00552621   -0.00020854    0.02461883
     atom   91 type  3   force =     0.00552804   -0.00019979    0.02463079
     atom   92 type  3   force =     0.00181782    0.00001935   -0.00176479
     atom   93 type  3   force =    -0.00052141   -0.00113494   -0.00004874
     atom   94 type  3   force =     0.00743713   -0.00053484    0.02964167
     atom   95 type  3   force =    -0.00743647   -0.00054252    0.02962319
     atom   96 type  3   force =     0.00051029   -0.00115017   -0.00004050
     atom   97 type  3   force =    -0.00035234   -0.00024417    0.00064592
     atom   98 type  3   force =    -0.01370447   -0.03022959   -0.00092496
     atom   99 type  3   force =     0.00032724   -0.00069412    0.00145321
     atom  100 type  3   force =    -0.01818895    0.00083515    0.00224140
     atom  101 type  3   force =     0.01818963    0.00083369    0.00224268
     atom  102 type  3   force =     0.01370496   -0.03022005   -0.00092265
     atom  103 type  3   force =     0.00035327   -0.00024424    0.00064609
     atom  104 type  3   force =    -0.00033861   -0.00068746    0.00145054
     atom  105 type  1   force =    -0.00000974   -0.00011447   -0.00045821
     atom  106 type  1   force =    -0.00018578   -0.00060409    0.00188505
     atom  107 type  1   force =     0.00000471   -0.00008366   -0.00049531
     atom  108 type  1   force =     0.00045492    0.00021839    0.00155734
     atom  109 type  1   force =     0.00006872   -0.00011024    0.00004690
     atom  110 type  1   force =    -0.00014715   -0.00004262    0.00021083
     atom  111 type  2   force =    -0.00052600   -0.00106128    0.00186406
     atom  112 type  2   force =    -0.00014415    0.00011774    0.00009648
     atom  113 type  2   force =     0.00010320    0.00012481    0.00008256
     atom  114 type  2   force =     0.00036903    0.00036384    0.00312011
     atom  115 type  3   force =    -0.00040950   -0.00021070   -0.00069471
     atom  116 type  3   force =    -0.00020418    0.00028003   -0.00008257
     atom  117 type  3   force =     0.00025081    0.00020377   -0.00010307
     atom  118 type  3   force =     0.00035915   -0.00041034   -0.00050005
     atom  119 type  3   force =     0.00160323    0.00065524   -0.00080635
     atom  120 type  3   force =    -0.00005743    0.00038480    0.00020457
     atom  121 type  3   force =     0.00004820    0.00037875    0.00021725
     atom  122 type  3   force =    -0.00215464    0.00012222    0.00170597
     atom  123 type  3   force =    -0.00087654    0.00090812   -0.00003438
     atom  124 type  3   force =    -0.00023849   -0.00002409    0.00022487
     atom  125 type  3   force =    -0.00032162   -0.00002105   -0.00033208
     atom  126 type  3   force =    -0.00021256    0.00020699    0.00003422
     atom  127 type  3   force =     0.00017095    0.00022403   -0.00001378
     atom  128 type  3   force =     0.00027953   -0.00003049    0.00020814
     atom  129 type  3   force =     0.00054176    0.00086937   -0.00008785
     atom  130 type  3   force =     0.00059377    0.00000535   -0.00053590
     atom  131 type  1   force =    -0.00024466   -0.00022227   -0.00044564
     atom  132 type  1   force =    -0.00005551   -0.00022588    0.00032201
     atom  133 type  1   force =     0.00024498   -0.00001149   -0.00027870
     atom  134 type  1   force =     0.00041370   -0.00033491   -0.00015951
     atom  135 type  1   force =     0.00015462    0.00002041   -0.00048027
     atom  136 type  1   force =    -0.00002651    0.00045750   -0.00022134
     atom  137 type  2   force =     0.00006970   -0.00060958    0.00042047
     atom  138 type  2   force =     0.00035728    0.00030231   -0.00011669
     atom  139 type  2   force =    -0.00055214   -0.00049484    0.00010011
     atom  140 type  2   force =    -0.00038510    0.00009555   -0.00014934
     atom  141 type  3   force =    -0.00033582    0.00001015   -0.00007740
     atom  142 type  3   force =    -0.00038781    0.00010401   -0.00010110
     atom  143 type  3   force =     0.00002389    0.00020516   -0.00011692
     atom  144 type  3   force =     0.00001614    0.00024926   -0.00001020
     atom  145 type  3   force =     0.00027927    0.00008008   -0.00022627
     atom  146 type  3   force =    -0.00010533    0.00031054    0.00031211
     atom  147 type  3   force =     0.00001376    0.00024158   -0.00018101
     atom  148 type  3   force =     0.00022323    0.00004856    0.00010124
     atom  149 type  3   force =    -0.00060600    0.00050951    0.00046649
     atom  150 type  3   force =     0.00036778    0.00005385   -0.00032384
     atom  151 type  3   force =    -0.00038532   -0.00005164   -0.00003860
     atom  152 type  3   force =    -0.00005391   -0.00021010   -0.00018485
     atom  153 type  3   force =     0.00007280   -0.00014119    0.00000990
     atom  154 type  3   force =    -0.00048448   -0.00002629   -0.00031536
     atom  155 type  3   force =    -0.00060879    0.00041240    0.00011365
     atom  156 type  3   force =     0.00044798   -0.00014073    0.00019725
     atom  157 type  3   force =     0.01363398   -0.00630050   -0.00438458
     atom  158 type  4   force =    -0.01013842    0.00736947    0.00293906

     Total force =     0.229368     Total SCF correction =     0.003015
 
     init_run     :    712.49s CPU    722.36s WALL (       1 calls)
     electrons    :  90256.56s CPU  91287.31s WALL (       1 calls)
     forces       :    335.73s CPU    341.77s WALL (       1 calls)

     Called by init_run:
     wfcinit      :    676.18s CPU    683.40s WALL (       1 calls)
     potinit      :      8.93s CPU      9.12s WALL (       1 calls)
     hinit0       :     14.48s CPU     14.60s WALL (       1 calls)

     Called by electrons:
     c_bands      :  80421.90s CPU  81191.54s WALL (      44 calls)
     sum_band     :   9379.61s CPU   9547.92s WALL (      44 calls)
     v_of_rho     :     98.36s CPU    101.74s WALL (      45 calls)
     newd         :    330.08s CPU    421.68s WALL (      45 calls)
     mix_rho      :     26.46s CPU     26.51s WALL (      44 calls)

     Called by c_bands:
     init_us_2    :    397.57s CPU    401.70s WALL (    1800 calls)
     cegterg      :  78853.15s CPU  79617.08s WALL (     896 calls)

     Called by *egterg:
     cdiaghg      :  10248.93s CPU  10285.62s WALL (    4560 calls)
     h_psi        :  39837.05s CPU  40206.81s WALL (    4580 calls)
     s_psi        :   8101.45s CPU   8114.62s WALL (    4580 calls)
     g_psi        :     59.04s CPU     59.27s WALL (    3664 calls)

     Called by h_psi:
     h_psi:calbec :   7926.80s CPU   7953.54s WALL (    4580 calls)
     vloc_psi     :  23778.96s CPU  24003.24s WALL (    4580 calls)
     add_vuspsi   :   8029.94s CPU   8066.09s WALL (    4580 calls)

     General routines
     calbec       :  11144.30s CPU  11185.27s WALL (    5540 calls)
     fft          :     90.06s CPU     90.90s WALL (    1138 calls)
     ffts         :      3.42s CPU      3.46s WALL (     178 calls)
     fftw         :  23535.56s CPU  23763.14s WALL ( 3490084 calls)
     interpolate  :      8.81s CPU      8.87s WALL (      90 calls)
 
     Parallel routines
     fft_scatt_xy :   4403.56s CPU   4448.15s WALL ( 3491400 calls)
     fft_scatt_yz :   5620.65s CPU   5674.41s WALL ( 3491400 calls)
 
     PWSCF        :   1d 1h21m CPU   1d 1h39m WALL

 
   This run was terminated on:   9:51:28  23Oct2023            

=------------------------------------------------------------------------------=
   JOB DONE.
=------------------------------------------------------------------------------=
