
     Program PWSCF v.6.7MaX starts on 24Oct2023 at 11: 7:18 

     This program is part of the open-source Quantum ESPRESSO suite
     for quantum simulation of materials; please cite
         "P. Giannozzi et al., J. Phys.:Condens. Matter 21 395502 (2009);
         "P. Giannozzi et al., J. Phys.:Condens. Matter 29 465901 (2017);
          URL http://www.quantum-espresso.org", 
     in publications or presentations arising from this work. More details at
     http://www.quantum-espresso.org/quote

     Parallel version (MPI), running on    20 processors

     MPI processes distributed on     1 nodes
     R & G space division:  proc/nbgrp/npool/nimage =      20
     Waiting for input...
     Reading input from standard input

     Current dimensions of program PWSCF are:
     Max number of different atomic species (ntypx) = 10
     Max number of k-points (npk) =  40000
     Max angular momentum in pseudopotentials (lmaxx) =  3
     Presently no symmetry can be used with electric field

     file Ni.pbe-n-rrkjus_psl.1.0.0.UPF: wavefunction(s)  3D renormalized
     file O.pbe-rrkjus.UPF: wavefunction(s)  2S renormalized
     file H.pbe-rrkjus.UPF: wavefunction(s)  1S renormalized

     -------------------------------------------------
     Parameters for Dispersion (Grimme-D2) Correction:
     -------------------------------------------------
       atom      VdW radius       C_6     

        Ni         2.952        374.666
        P          3.222        271.980
        O          2.536         24.284
        H          1.892          4.857

     Subspace diagonalization in iterative solution of the eigenvalue problem:
     a serial algorithm will be used

 
     Parallelization info
     --------------------
     sticks:   dense  smooth     PW     G-vecs:    dense   smooth      PW
     Min         673     269     72               192489    48693    6732
     Max         674     270     73               192498    48700    6738
     Sum       13471    5389   1449              3849851   973915  134709
 


     bravais-lattice index     =            0
     lattice parameter (alat)  =      17.7231  a.u.
     unit-cell volume          =   20392.3702 (a.u.)^3
     number of atoms/cell      =          158
     number of atomic types    =            4
     number of electrons       =      1063.00
     number of Kohn-Sham states=          638
     kinetic-energy cutoff     =      50.0000  Ry
     charge density cutoff     =     500.0000  Ry
     scf convergence threshold =      1.0E-06
     mixing beta               =       0.2000
     number of iterations used =            8  plain     mixing
     Exchange-correlation=  SLA  PW   PBE  PBE
                           (   1   4   3   4   0   0   0)

     celldm(1)=  17.723132  celldm(2)=   0.000000  celldm(3)=   0.000000
     celldm(4)=   0.000000  celldm(5)=   0.000000  celldm(6)=   0.000000

     crystal axes: (cart. coord. in units of alat)
               a(1) = (   1.000000   0.000000   0.000000 )  
               a(2) = (   0.000000   1.078504   0.000000 )  
               a(3) = (   0.000000   0.000000   3.396445 )  

     reciprocal axes: (cart. coord. in units 2 pi/alat)
               b(1) = (  1.000000  0.000000  0.000000 )  
               b(2) = (  0.000000  0.927210  0.000000 )  
               b(3) = (  0.000000  0.000000  0.294425 )  


     PseudoPot. # 1 for Ni read from file:
     /home/praktikum/PSEUDO/Ni.pbe-n-rrkjus_psl.1.0.0.UPF
     MD5 check sum: 0fbcd075604c6694e0d643a0634a3f21
     Pseudo is Ultrasoft + core correction, Zval = 10.0
     Generated using "atomic" code by A. Dal Corso  v.5.1.2
     Using radial grid of 1195 points,  6 beta functions with: 
                l(1) =   0
                l(2) =   0
                l(3) =   1
                l(4) =   1
                l(5) =   2
                l(6) =   2
     Q(r) pseudized with 0 coefficients 


     PseudoPot. # 2 for P  read from file:
     /home/praktikum/PSEUDO/P.pbe-n-rrkjus_psl.1.0.0.UPF
     MD5 check sum: 4687844b46ff2552cf7009614ac2afe1
     Pseudo is Ultrasoft + core correction, Zval =  5.0
     Generated using "atomic" code by A. Dal Corso  v.5.1.2
     Using radial grid of 1147 points,  6 beta functions with: 
                l(1) =   0
                l(2) =   0
                l(3) =   1
                l(4) =   1
                l(5) =   2
                l(6) =   2
     Q(r) pseudized with 0 coefficients 


     PseudoPot. # 3 for O  read from file:
     /home/praktikum/PSEUDO/O.pbe-rrkjus.UPF
     MD5 check sum: 390ba29e75625707450f3bd3f0eb6be9
     Pseudo is Ultrasoft, Zval =  6.0
     Generated by new atomic code, or converted to UPF format
     Using radial grid of 1269 points,  4 beta functions with: 
                l(1) =   0
                l(2) =   0
                l(3) =   1
                l(4) =   1
     Q(r) pseudized with 0 coefficients 


     PseudoPot. # 4 for H  read from file:
     /home/praktikum/PSEUDO/H.pbe-rrkjus.UPF
     MD5 check sum: 7cc9d459525c9a0585f487a71c3c9563
     Pseudo is Ultrasoft, Zval =  1.0
     Generated by new atomic code, or converted to UPF format
     Using radial grid of 1061 points,  2 beta functions with: 
                l(1) =   0
                l(2) =   0
     Q(r) pseudized with 0 coefficients 


     atomic species   valence    mass     pseudopotential
        Ni            10.00    58.69340     Ni( 1.00)
        P              5.00    30.97376     P ( 1.00)
        O              6.00    15.99940     O ( 1.00)
        H              1.00     1.00794     H ( 1.00)

     Starting magnetic structure 
     atomic species   magnetization
        Ni           1.000
        P            1.000
        O            1.000
        H            0.000

     No symmetry found



   Cartesian axes

     site n.     atom                  positions (alat units)
         1           Ni  tau(   1) = (   0.2425939   0.8289547   0.1232563  )
         2           Ni  tau(   2) = (   0.4925939   0.7682479   0.4397296  )
         3           Ni  tau(   3) = (   0.0074061   0.2897028   0.1232563  )
         4           Ni  tau(   4) = (   0.2574061   0.2289960   0.4397296  )
         5           Ni  tau(   5) = (   0.0000000   1.0682273   0.2814930  )
         6           Ni  tau(   6) = (   0.2500000   0.5289753   0.2814930  )
         7           P   tau(   7) = (   0.2099015   0.9623143   0.4372472  )
         8           P   tau(   8) = (   0.4599015   0.6348883   0.1257387  )
         9           P   tau(   9) = (   0.2900985   0.0956364   0.1257387  )
        10           P   tau(  10) = (   0.0400985   0.4230624   0.4372472  )
        11           O   tau(  11) = (   0.1313289   0.8921807   0.3011581  )
        12           O   tau(  12) = (   0.3813289   0.7050219   0.2618278  )
        13           O   tau(  13) = (   0.3686711   0.1657700   0.2618278  )
        14           O   tau(  14) = (   0.1186711   0.3529288   0.3011581  )
        15           O   tau(  15) = (   0.1470808   0.8739426   0.5619197  )
        16           O   tau(  16) = (   0.3970808   0.7232600   0.0010662  )
        17           O   tau(  17) = (   0.3529192   0.1840081   0.0010662  )
        18           O   tau(  18) = (   0.1029192   0.3346907   0.5619197  )
        19           O   tau(  19) = (   0.0983097   0.5786104   0.4338456  )
        20           O   tau(  20) = (   0.3483097   1.0185922   0.1291403  )
        21           O   tau(  21) = (   0.3763566   0.4168410   0.4274499  )
        22           O   tau(  22) = (   0.1263566   0.1018578   0.1355360  )
        23           O   tau(  23) = (   0.1236434   0.6411097   0.1355360  )
        24           O   tau(  24) = (   0.4016903   0.4793403   0.1291403  )
        25           O   tau(  25) = (   0.1516903   0.0393585   0.4338456  )
        26           O   tau(  26) = (   0.3736434   0.9560929   0.4274499  )
        27           Ni  tau(  27) = (   0.2425939   0.8084016   0.7413658  )
        28           Ni  tau(  28) = (   0.4925939   0.7476948   1.0578391  )
        29           Ni  tau(  29) = (   0.0074061   0.2691497   0.7413658  )
        30           Ni  tau(  30) = (   0.2574061   0.2084429   1.0578391  )
        31           Ni  tau(  31) = (   0.0000000   1.0476741   0.8996025  )
        32           Ni  tau(  32) = (   0.2500000   0.5084222   0.8996025  )
        33           P   tau(  33) = (   0.2099015   0.9417612   1.0553567  )
        34           P   tau(  34) = (   0.4599015   0.6143352   0.7438483  )
        35           P   tau(  35) = (   0.2900985   0.0750833   0.7438483  )
        36           P   tau(  36) = (   0.0400985   0.4025093   1.0553567  )
        37           O   tau(  37) = (   0.1313289   0.8716276   0.9192676  )
        38           O   tau(  38) = (   0.3813289   0.6844688   0.8799374  )
        39           O   tau(  39) = (   0.3686711   0.1452169   0.8799374  )
        40           O   tau(  40) = (   0.1186711   0.3323757   0.9192676  )
        41           O   tau(  41) = (   0.1470808   0.8533895   1.1800292  )
        42           O   tau(  42) = (   0.3970808   0.7027069   0.6191758  )
        43           O   tau(  43) = (   0.3529192   0.1634550   0.6191758  )
        44           O   tau(  44) = (   0.1029192   0.3141376   1.1800292  )
        45           O   tau(  45) = (   0.0983097   0.5580573   1.0519551  )
        46           O   tau(  46) = (   0.3483097   0.9980391   0.7472498  )
        47           O   tau(  47) = (   0.3763566   0.3962879   1.0455594  )
        48           O   tau(  48) = (   0.1263566   0.0813047   0.7536455  )
        49           O   tau(  49) = (   0.1236434   0.6205566   0.7536455  )
        50           O   tau(  50) = (   0.4016903   0.4587872   0.7472498  )
        51           O   tau(  51) = (   0.1516903   0.0188054   1.0519551  )
        52           O   tau(  52) = (   0.3736434   0.9355398   1.0455594  )
        53           Ni  tau(  53) = (   0.2424041   0.7897793   1.3618974  )
        54           Ni  tau(  54) = (   0.4879612   0.7218564   1.6914308  )
        55           Ni  tau(  55) = (   0.0079170   0.2505787   1.3612627  )
        56           Ni  tau(  56) = (   0.2468086   0.1935142   1.6639243  )
        57           Ni  tau(  57) = (   0.0017035   1.0290340   1.5213760  )
        58           Ni  tau(  58) = (   0.2474179   0.4910684   1.5250240  )
        59           P   tau(  59) = (   0.2112199   0.9236045   1.6823438  )
        60           P   tau(  60) = (   0.4591813   0.5957823   1.3658078  )
        61           P   tau(  61) = (   0.2917127   0.0548729   1.3629876  )
        62           P   tau(  62) = (   0.0343831   0.3802729   1.6827085  )
        63           O   tau(  63) = (   0.1344982   0.8581762   1.5384087  )
        64           O   tau(  64) = (   0.3821749   0.6677915   1.5018960  )
        65           O   tau(  65) = (   0.3696684   0.1247784   1.4995401  )
        66           O   tau(  66) = (   0.1141586   0.3197959   1.5372841  )
        67           O   tau(  67) = (   0.1477250   0.8282157   1.7986512  )
        68           O   tau(  68) = (   0.3971844   0.6837803   1.2400827  )
        69           O   tau(  69) = (   0.3536769   0.1435761   1.2380891  )
        70           O   tau(  70) = (   0.0972401   0.2831089   1.7964957  )
        71           O   tau(  71) = (   0.0885696   0.5385964   1.6812115  )
        72           O   tau(  72) = (   0.3499269   0.9780557   1.3669542  )
        73           O   tau(  73) = (   0.3712541   0.3723768   1.6655885  )
        74           O   tau(  74) = (   0.1279370   0.0627700   1.3746559  )
        75           O   tau(  75) = (   0.1221086   0.6022924   1.3766974  )
        76           O   tau(  76) = (   0.4000629   0.4406261   1.3697735  )
        77           O   tau(  77) = (   0.1539963   1.0802196   1.6787776  )
        78           O   tau(  78) = (   0.3757257   0.9187392   1.6710614  )
        79           Ni  tau(  79) = (   0.7425939   0.8289547   0.1232563  )
        80           Ni  tau(  80) = (   0.9925939   0.7682479   0.4397296  )
        81           Ni  tau(  81) = (   0.5074061   0.2897028   0.1232563  )
        82           Ni  tau(  82) = (   0.7574061   0.2289960   0.4397296  )
        83           Ni  tau(  83) = (   0.5000000   1.0682273   0.2814930  )
        84           Ni  tau(  84) = (   0.7500000   0.5289753   0.2814930  )
        85           P   tau(  85) = (   0.7099015   0.9623143   0.4372472  )
        86           P   tau(  86) = (   0.9599015   0.6348883   0.1257387  )
        87           P   tau(  87) = (   0.7900985   0.0956364   0.1257387  )
        88           P   tau(  88) = (   0.5400985   0.4230624   0.4372472  )
        89           O   tau(  89) = (   0.6313289   0.8921807   0.3011581  )
        90           O   tau(  90) = (   0.8813289   0.7050219   0.2618278  )
        91           O   tau(  91) = (   0.8686711   0.1657700   0.2618278  )
        92           O   tau(  92) = (   0.6186711   0.3529288   0.3011581  )
        93           O   tau(  93) = (   0.6470808   0.8739426   0.5619197  )
        94           O   tau(  94) = (   0.8970808   0.7232600   0.0010662  )
        95           O   tau(  95) = (   0.8529192   0.1840081   0.0010662  )
        96           O   tau(  96) = (   0.6029192   0.3346907   0.5619197  )
        97           O   tau(  97) = (   0.5983097   0.5786104   0.4338456  )
        98           O   tau(  98) = (   0.8483097   1.0185922   0.1291403  )
        99           O   tau(  99) = (   0.8763566   0.4168410   0.4274499  )
       100           O   tau( 100) = (   0.6263566   0.1018578   0.1355360  )
       101           O   tau( 101) = (   0.6236434   0.6411097   0.1355360  )
       102           O   tau( 102) = (   0.9016903   0.4793403   0.1291403  )
       103           O   tau( 103) = (   0.6516903   0.0393585   0.4338456  )
       104           O   tau( 104) = (   0.8736434   0.9560929   0.4274499  )
       105           Ni  tau( 105) = (   0.7425939   0.8084016   0.7413658  )
       106           Ni  tau( 106) = (   0.9925939   0.7476948   1.0578391  )
       107           Ni  tau( 107) = (   0.5074061   0.2691497   0.7413658  )
       108           Ni  tau( 108) = (   0.7574061   0.2084429   1.0578391  )
       109           Ni  tau( 109) = (   0.5000000   1.0476741   0.8996025  )
       110           Ni  tau( 110) = (   0.7500000   0.5084222   0.8996025  )
       111           P   tau( 111) = (   0.7099015   0.9417612   1.0553567  )
       112           P   tau( 112) = (   0.9599015   0.6143352   0.7438483  )
       113           P   tau( 113) = (   0.7900985   0.0750833   0.7438483  )
       114           P   tau( 114) = (   0.5400985   0.4025093   1.0553567  )
       115           O   tau( 115) = (   0.6313289   0.8716276   0.9192676  )
       116           O   tau( 116) = (   0.8813289   0.6844688   0.8799374  )
       117           O   tau( 117) = (   0.8686711   0.1452169   0.8799374  )
       118           O   tau( 118) = (   0.6186711   0.3323757   0.9192676  )
       119           O   tau( 119) = (   0.6470808   0.8533895   1.1800292  )
       120           O   tau( 120) = (   0.8970808   0.7027069   0.6191758  )
       121           O   tau( 121) = (   0.8529192   0.1634550   0.6191758  )
       122           O   tau( 122) = (   0.6029192   0.3141376   1.1800292  )
       123           O   tau( 123) = (   0.5983097   0.5580573   1.0519551  )
       124           O   tau( 124) = (   0.8483097   0.9980391   0.7472498  )
       125           O   tau( 125) = (   0.8763566   0.3962879   1.0455594  )
       126           O   tau( 126) = (   0.6263566   0.0813047   0.7536455  )
       127           O   tau( 127) = (   0.6236434   0.6205566   0.7536455  )
       128           O   tau( 128) = (   0.9016903   0.4587872   0.7472498  )
       129           O   tau( 129) = (   0.6516903   0.0188054   1.0519551  )
       130           O   tau( 130) = (   0.8736434   0.9355398   1.0455594  )
       131           Ni  tau( 131) = (   0.7426462   0.7898639   1.3604014  )
       132           Ni  tau( 132) = (  -0.0002066   0.7318828   1.6641114  )
       133           Ni  tau( 133) = (   0.5077061   0.2501780   1.3613832  )
       134           Ni  tau( 134) = (   0.7465307   0.1894565   1.6642078  )
       135           Ni  tau( 135) = (   0.5021934   1.0264055   1.5228946  )
       136           Ni  tau( 136) = (   0.7455086   0.4886102   1.5220246  )
       137           P   tau( 137) = (   0.7116866   0.9161767   1.6766996  )
       138           P   tau( 138) = (   0.9583802   0.5938581   1.3632324  )
       139           P   tau( 139) = (   0.7914519   0.0546979   1.3621112  )
       140           P   tau( 140) = (   0.5357885   0.3763012   1.6821380  )
       141           O   tau( 141) = (   0.6346394   0.8568156   1.5335737  )
       142           O   tau( 142) = (   0.8794257   0.6646640   1.4988356  )
       143           O   tau( 143) = (   0.8695763   0.1251491   1.4988234  )
       144           O   tau( 144) = (   0.6152561   0.3146265   1.5364006  )
       145           O   tau( 145) = (   0.6515338   0.8192773   1.7930363  )
       146           O   tau( 146) = (   0.8970925   0.6818609   1.2376106  )
       147           O   tau( 147) = (   0.8535847   0.1440758   1.2378023  )
       148           O   tau( 148) = (   0.5952313   0.2763491   1.7954797  )
       149           O   tau( 149) = (   0.5957950   0.5319332   1.6778728  )
       150           O   tau( 150) = (   0.8513096   0.9784304   1.3652427  )
       151           O   tau( 151) = (   0.8698230   0.3735298   1.6681144  )
       152           O   tau( 152) = (   0.6278063   0.0613643   1.3739427  )
       153           O   tau( 153) = (   0.6230504   0.6013695   1.3747416  )
       154           O   tau( 154) = (   0.8997892   0.4387455   1.3673113  )
       155           O   tau( 155) = (   0.6572909   1.0746654   1.6784301  )
       156           O   tau( 156) = (   0.8772072   0.9129255   1.6662148  )
       157           O   tau( 157) = (   0.3752302   0.6425654   1.8273188  )
       158           H   tau( 158) = (   0.2897206   0.7009035   1.8481288  )

     number of k points=    10  Gaussian smearing, width (Ry)=  0.0100
                       cart. coord. in units 2pi/alat
        k(    1) = (   0.0000000   0.0000000   0.0000000), wk =   0.0625000
        k(    2) = (   0.0000000   0.2318026   0.0000000), wk =   0.1250000
        k(    3) = (   0.0000000  -0.4636052   0.0000000), wk =   0.0625000
        k(    4) = (   0.2500000   0.0000000   0.0000000), wk =   0.1250000
        k(    5) = (   0.2500000   0.2318026   0.0000000), wk =   0.1250000
        k(    6) = (   0.2500000  -0.4636052   0.0000000), wk =   0.1250000
        k(    7) = (   0.2500000  -0.2318026   0.0000000), wk =   0.1250000
        k(    8) = (  -0.5000000   0.0000000   0.0000000), wk =   0.0625000
        k(    9) = (  -0.5000000   0.2318026   0.0000000), wk =   0.1250000
        k(   10) = (  -0.5000000  -0.4636052   0.0000000), wk =   0.0625000

     Dense  grid:  3849851 G-vectors     FFT dimensions: ( 128, 144, 432)

     Smooth grid:   973915 G-vectors     FFT dimensions: (  80,  90, 288)

     Estimated max dynamical RAM per process >       2.95 GB

     Estimated total dynamical RAM >      59.02 GB
     Generating pointlists ...
     new r_m :   0.0798 (alat units)  1.4150 (a.u.) for type    1
     new r_m :   0.0669 (alat units)  1.1865 (a.u.) for type    2
     new r_m :   0.0436 (alat units)  0.7719 (a.u.) for type    3
     new r_m :   0.0436 (alat units)  0.7719 (a.u.) for type    4

     Initial potential from superposition of free atoms

     starting charge 1062.89078, renormalised to 1063.00000

     negative rho (up, down):  1.107E-03 4.567E-04
 
     Adding external electric field

     Computed dipole along edir(3) : 
        Dipole                1.6045 Ry au,          4.0782 Debye
        Dipole field          0.0010 Ry au, 
 
        Potential amp.       -0.1071 Ry
        Total length         54.1761 bohr
 
 
     Adding external electric field

     Computed dipole along edir(3) : 
        Dipole                1.6045 Ry au,          4.0782 Debye
        Dipole field          0.0010 Ry au, 
 
        Potential amp.       -0.1071 Ry
        Total length         54.1761 bohr
 
     Starting wfcs are  809 randomized atomic wfcs

     total cpu time spent up to now is      687.5 secs

     Self-consistent Calculation

     iteration #  1     ecut=    50.00 Ry     beta= 0.20
     Davidson diagonalization with overlap
     ethr =  1.00E-02,  avg # of iterations =  6.0

     negative rho (up, down):  4.089E-04 0.000E+00
 
     Adding external electric field

     Computed dipole along edir(3) : 
        Dipole             -127.7874 Ry au,       -324.8033 Debye
        Dipole field         -0.0787 Ry au, 
 
        Potential amp.        8.5323 Ry
        Total length         54.1761 bohr
 
 
     Adding external electric field

     Computed dipole along edir(3) : 
        Dipole             -127.7874 Ry au,       -324.8033 Debye
        Dipole field         -0.0787 Ry au, 
 
        Potential amp.        8.5323 Ry
        Total length         54.1761 bohr
 

     total cpu time spent up to now is     3757.5 secs

     total energy              =   -6644.03376700 Ry
     estimated scf accuracy    <     755.18801947 Ry

     total magnetization       =   213.00 Bohr mag/cell
     absolute magnetization    =   290.42 Bohr mag/cell

     iteration #  2     ecut=    50.00 Ry     beta= 0.20
     Davidson diagonalization with overlap
     ethr =  1.00E-02,  avg # of iterations = 15.3

     negative rho (up, down):  2.145E-04 0.000E+00
 
     Adding external electric field

     Computed dipole along edir(3) : 
        Dipole              -24.7639 Ry au,        -62.9436 Debye
        Dipole field         -0.0153 Ry au, 
 
        Potential amp.        1.6535 Ry
        Total length         54.1761 bohr
 
 
     Adding external electric field

     Computed dipole along edir(3) : 
        Dipole              -24.7639 Ry au,        -62.9436 Debye
        Dipole field         -0.0153 Ry au, 
 
        Potential amp.        1.6535 Ry
        Total length         54.1761 bohr
 

     total cpu time spent up to now is    11172.8 secs

     total energy              =   -6046.98753320 Ry
     estimated scf accuracy    <  181396.00461422 Ry

     total magnetization       =   126.59 Bohr mag/cell
     absolute magnetization    =   128.19 Bohr mag/cell

     iteration #  3     ecut=    50.00 Ry     beta= 0.20
     Davidson diagonalization with overlap
     ethr =  1.00E-02,  avg # of iterations = 13.0

     negative rho (up, down):  1.296E-04 0.000E+00
 
     Adding external electric field

     Computed dipole along edir(3) : 
        Dipole              -14.9343 Ry au,        -37.9593 Debye
        Dipole field         -0.0092 Ry au, 
 
        Potential amp.        0.9972 Ry
        Total length         54.1761 bohr
 
 
     Adding external electric field

     Computed dipole along edir(3) : 
        Dipole              -14.9343 Ry au,        -37.9593 Debye
        Dipole field         -0.0092 Ry au, 
 
        Potential amp.        0.9972 Ry
        Total length         54.1761 bohr
 

     total cpu time spent up to now is    18406.7 secs

     total energy              =   -6672.69795769 Ry
     estimated scf accuracy    <   17814.02536564 Ry

     total magnetization       =   155.43 Bohr mag/cell
     absolute magnetization    =   162.72 Bohr mag/cell

     iteration #  4     ecut=    50.00 Ry     beta= 0.20
     Davidson diagonalization with overlap
     ethr =  1.00E-02,  avg # of iterations = 12.2

     negative rho (up, down):  4.823E-05 0.000E+00
 
     Adding external electric field

     Computed dipole along edir(3) : 
        Dipole               -8.9493 Ry au,        -22.7469 Debye
        Dipole field         -0.0055 Ry au, 
 
        Potential amp.        0.5975 Ry
        Total length         54.1761 bohr
 
 
     Adding external electric field

     Computed dipole along edir(3) : 
        Dipole               -8.9493 Ry au,        -22.7469 Debye
        Dipole field         -0.0055 Ry au, 
 
        Potential amp.        0.5975 Ry
        Total length         54.1761 bohr
 

     total cpu time spent up to now is    23272.9 secs

     total energy              =   -6935.62329546 Ry
     estimated scf accuracy    <     554.07302223 Ry

     total magnetization       =   202.83 Bohr mag/cell
     absolute magnetization    =   220.64 Bohr mag/cell

     iteration #  5     ecut=    50.00 Ry     beta= 0.20
     Davidson diagonalization with overlap
     ethr =  1.00E-02,  avg # of iterations =  6.3

     negative rho (up, down):  4.754E-05 0.000E+00
 
     Adding external electric field

     Computed dipole along edir(3) : 
        Dipole              -12.0220 Ry au,        -30.5570 Debye
        Dipole field         -0.0074 Ry au, 
 
        Potential amp.        0.8027 Ry
        Total length         54.1761 bohr
 
 
     Adding external electric field

     Computed dipole along edir(3) : 
        Dipole              -12.0220 Ry au,        -30.5570 Debye
        Dipole field         -0.0074 Ry au, 
 
        Potential amp.        0.8027 Ry
        Total length         54.1761 bohr
 

     total cpu time spent up to now is    25325.7 secs

     total energy              =   -6962.61818020 Ry
     estimated scf accuracy    <     795.75422929 Ry

     total magnetization       =   140.46 Bohr mag/cell
     absolute magnetization    =   174.07 Bohr mag/cell

     iteration #  6     ecut=    50.00 Ry     beta= 0.20
     Davidson diagonalization with overlap
     ethr =  1.00E-02,  avg # of iterations =  2.0

     negative rho (up, down):  5.241E-05 0.000E+00
 
     Adding external electric field

     Computed dipole along edir(3) : 
        Dipole              -10.9022 Ry au,        -27.7106 Debye
        Dipole field         -0.0067 Ry au, 
 
        Potential amp.        0.7279 Ry
        Total length         54.1761 bohr
 
 
     Adding external electric field

     Computed dipole along edir(3) : 
        Dipole              -10.9022 Ry au,        -27.7106 Debye
        Dipole field         -0.0067 Ry au, 
 
        Potential amp.        0.7279 Ry
        Total length         54.1761 bohr
 

     total cpu time spent up to now is    26865.0 secs

     total energy              =   -6974.89844230 Ry
     estimated scf accuracy    <     220.07214739 Ry

     total magnetization       =   122.83 Bohr mag/cell
     absolute magnetization    =   158.23 Bohr mag/cell

     iteration #  7     ecut=    50.00 Ry     beta= 0.20
     Davidson diagonalization with overlap
     ethr =  1.00E-02,  avg # of iterations =  1.5

     negative rho (up, down):  6.475E-05 0.000E+00
 
     Adding external electric field

     Computed dipole along edir(3) : 
        Dipole               -9.9876 Ry au,        -25.3860 Debye
        Dipole field         -0.0062 Ry au, 
 
        Potential amp.        0.6669 Ry
        Total length         54.1761 bohr
 
 
     Adding external electric field

     Computed dipole along edir(3) : 
        Dipole               -9.9876 Ry au,        -25.3860 Debye
        Dipole field         -0.0062 Ry au, 
 
        Potential amp.        0.6669 Ry
        Total length         54.1761 bohr
 

     total cpu time spent up to now is    28429.1 secs

     total energy              =   -6985.90902747 Ry
     estimated scf accuracy    <     109.26161140 Ry

     total magnetization       =   100.11 Bohr mag/cell
     absolute magnetization    =   143.41 Bohr mag/cell

     iteration #  8     ecut=    50.00 Ry     beta= 0.20
     Davidson diagonalization with overlap
     ethr =  1.00E-02,  avg # of iterations =  1.4

     negative rho (up, down):  9.228E-05 0.000E+00
 
     Adding external electric field

     Computed dipole along edir(3) : 
        Dipole               -8.3692 Ry au,        -21.2725 Debye
        Dipole field         -0.0052 Ry au, 
 
        Potential amp.        0.5588 Ry
        Total length         54.1761 bohr
 
 
     Adding external electric field

     Computed dipole along edir(3) : 
        Dipole               -8.3692 Ry au,        -21.2725 Debye
        Dipole field         -0.0052 Ry au, 
 
        Potential amp.        0.5588 Ry
        Total length         54.1761 bohr
 

     total cpu time spent up to now is    29958.0 secs

     total energy              =   -6999.89258869 Ry
     estimated scf accuracy    <     111.36214088 Ry

     total magnetization       =    92.00 Bohr mag/cell
     absolute magnetization    =   136.69 Bohr mag/cell

     iteration #  9     ecut=    50.00 Ry     beta= 0.20
     Davidson diagonalization with overlap
     ethr =  1.00E-02,  avg # of iterations =  1.4

     negative rho (up, down):  1.441E-04 0.000E+00
 
     Adding external electric field

     Computed dipole along edir(3) : 
        Dipole               -5.1642 Ry au,        -13.1261 Debye
        Dipole field         -0.0032 Ry au, 
 
        Potential amp.        0.3448 Ry
        Total length         54.1761 bohr
 
 
     Adding external electric field

     Computed dipole along edir(3) : 
        Dipole               -5.1642 Ry au,        -13.1261 Debye
        Dipole field         -0.0032 Ry au, 
 
        Potential amp.        0.3448 Ry
        Total length         54.1761 bohr
 

     total cpu time spent up to now is    31483.1 secs

     total energy              =   -7020.92143555 Ry
     estimated scf accuracy    <      81.79272826 Ry

     total magnetization       =    84.81 Bohr mag/cell
     absolute magnetization    =   128.47 Bohr mag/cell

     iteration # 10     ecut=    50.00 Ry     beta= 0.20
     Davidson diagonalization with overlap
     ethr =  7.69E-03,  avg # of iterations =  1.4

     negative rho (up, down):  2.890E-04 0.000E+00
 
     Adding external electric field

     Computed dipole along edir(3) : 
        Dipole               -1.7788 Ry au,         -4.5213 Debye
        Dipole field         -0.0011 Ry au, 
 
        Potential amp.        0.1188 Ry
        Total length         54.1761 bohr
 
 
     Adding external electric field

     Computed dipole along edir(3) : 
        Dipole               -1.7788 Ry au,         -4.5213 Debye
        Dipole field         -0.0011 Ry au, 
 
        Potential amp.        0.1188 Ry
        Total length         54.1761 bohr
 

     total cpu time spent up to now is    33040.5 secs

     total energy              =   -7042.90784474 Ry
     estimated scf accuracy    <     174.66301319 Ry

     total magnetization       =    79.11 Bohr mag/cell
     absolute magnetization    =   118.12 Bohr mag/cell

     iteration # 11     ecut=    50.00 Ry     beta= 0.20
     Davidson diagonalization with overlap
     ethr =  7.69E-03,  avg # of iterations =  1.2

     negative rho (up, down):  3.200E-04 0.000E+00
 
     Adding external electric field

     Computed dipole along edir(3) : 
        Dipole               -4.7875 Ry au,        -12.1686 Debye
        Dipole field         -0.0030 Ry au, 
 
        Potential amp.        0.3197 Ry
        Total length         54.1761 bohr
 
 
     Adding external electric field

     Computed dipole along edir(3) : 
        Dipole               -4.7875 Ry au,        -12.1686 Debye
        Dipole field         -0.0030 Ry au, 
 
        Potential amp.        0.3197 Ry
        Total length         54.1761 bohr
 

     total cpu time spent up to now is    34551.8 secs

     total energy              =   -7049.32600288 Ry
     estimated scf accuracy    <     167.62538551 Ry

     total magnetization       =    73.28 Bohr mag/cell
     absolute magnetization    =   101.90 Bohr mag/cell

     iteration # 12     ecut=    50.00 Ry     beta= 0.20
     Davidson diagonalization with overlap
     ethr =  7.69E-03,  avg # of iterations =  1.0

     negative rho (up, down):  3.920E-04 0.000E+00
 
     Adding external electric field

     Computed dipole along edir(3) : 
        Dipole               -1.7564 Ry au,         -4.4643 Debye
        Dipole field         -0.0011 Ry au, 
 
        Potential amp.        0.1173 Ry
        Total length         54.1761 bohr
 
 
     Adding external electric field

     Computed dipole along edir(3) : 
        Dipole               -1.7564 Ry au,         -4.4643 Debye
        Dipole field         -0.0011 Ry au, 
 
        Potential amp.        0.1173 Ry
        Total length         54.1761 bohr
 

     total cpu time spent up to now is    36049.4 secs

     total energy              =   -7049.96392307 Ry
     estimated scf accuracy    <     257.74689430 Ry

     total magnetization       =    69.62 Bohr mag/cell
     absolute magnetization    =    93.79 Bohr mag/cell

     iteration # 13     ecut=    50.00 Ry     beta= 0.20
     Davidson diagonalization with overlap
     ethr =  7.69E-03,  avg # of iterations =  1.0

     negative rho (up, down):  4.222E-04 0.000E+00
 
     Adding external electric field

     Computed dipole along edir(3) : 
        Dipole               -2.0853 Ry au,         -5.3002 Debye
        Dipole field         -0.0013 Ry au, 
 
        Potential amp.        0.1392 Ry
        Total length         54.1761 bohr
 
 
     Adding external electric field

     Computed dipole along edir(3) : 
        Dipole               -2.0853 Ry au,         -5.3002 Debye
        Dipole field         -0.0013 Ry au, 
 
        Potential amp.        0.1392 Ry
        Total length         54.1761 bohr
 

     total cpu time spent up to now is    37534.7 secs

     total energy              =   -7052.48634782 Ry
     estimated scf accuracy    <     237.55935434 Ry

     total magnetization       =    73.00 Bohr mag/cell
     absolute magnetization    =    94.85 Bohr mag/cell

     iteration # 14     ecut=    50.00 Ry     beta= 0.20
     Davidson diagonalization with overlap
     ethr =  7.69E-03,  avg # of iterations =  1.0

     negative rho (up, down):  4.469E-04 0.000E+00
 
     Adding external electric field

     Computed dipole along edir(3) : 
        Dipole               -0.2140 Ry au,         -0.5441 Debye
        Dipole field         -0.0001 Ry au, 
 
        Potential amp.        0.0143 Ry
        Total length         54.1761 bohr
 
 
     Adding external electric field

     Computed dipole along edir(3) : 
        Dipole               -0.2140 Ry au,         -0.5441 Debye
        Dipole field         -0.0001 Ry au, 
 
        Potential amp.        0.0143 Ry
        Total length         54.1761 bohr
 

     total cpu time spent up to now is    39022.7 secs

     total energy              =   -7055.40360846 Ry
     estimated scf accuracy    <      37.14795637 Ry

     total magnetization       =    73.00 Bohr mag/cell
     absolute magnetization    =    90.37 Bohr mag/cell

     iteration # 15     ecut=    50.00 Ry     beta= 0.20
     Davidson diagonalization with overlap
     ethr =  3.49E-03,  avg # of iterations =  1.0

     negative rho (up, down):  4.591E-04 0.000E+00
 
     Adding external electric field

     Computed dipole along edir(3) : 
        Dipole               -1.2686 Ry au,         -3.2245 Debye
        Dipole field         -0.0008 Ry au, 
 
        Potential amp.        0.0847 Ry
        Total length         54.1761 bohr
 
 
     Adding external electric field

     Computed dipole along edir(3) : 
        Dipole               -1.2686 Ry au,         -3.2245 Debye
        Dipole field         -0.0008 Ry au, 
 
        Potential amp.        0.0847 Ry
        Total length         54.1761 bohr
 

     total cpu time spent up to now is    40513.1 secs

     total energy              =   -7055.87197332 Ry
     estimated scf accuracy    <      26.26112002 Ry

     total magnetization       =    73.00 Bohr mag/cell
     absolute magnetization    =    88.27 Bohr mag/cell

     iteration # 16     ecut=    50.00 Ry     beta= 0.20
     Davidson diagonalization with overlap
     ethr =  2.47E-03,  avg # of iterations =  1.0

     negative rho (up, down):  4.978E-04 0.000E+00
 
     Adding external electric field

     Computed dipole along edir(3) : 
        Dipole                0.3552 Ry au,          0.9028 Debye
        Dipole field          0.0002 Ry au, 
 
        Potential amp.       -0.0237 Ry
        Total length         54.1761 bohr
 
 
     Adding external electric field

     Computed dipole along edir(3) : 
        Dipole                0.3552 Ry au,          0.9028 Debye
        Dipole field          0.0002 Ry au, 
 
        Potential amp.       -0.0237 Ry
        Total length         54.1761 bohr
 

     total cpu time spent up to now is    42005.5 secs

     total energy              =   -7055.56566803 Ry
     estimated scf accuracy    <      60.78082838 Ry

     total magnetization       =    70.01 Bohr mag/cell
     absolute magnetization    =    84.28 Bohr mag/cell

     iteration # 17     ecut=    50.00 Ry     beta= 0.20
     Davidson diagonalization with overlap
     ethr =  2.47E-03,  avg # of iterations =  1.1

     negative rho (up, down):  5.348E-04 0.000E+00
 
     Adding external electric field

     Computed dipole along edir(3) : 
        Dipole               -0.1886 Ry au,         -0.4793 Debye
        Dipole field         -0.0001 Ry au, 
 
        Potential amp.        0.0126 Ry
        Total length         54.1761 bohr
 
 
     Adding external electric field

     Computed dipole along edir(3) : 
        Dipole               -0.1886 Ry au,         -0.4793 Debye
        Dipole field         -0.0001 Ry au, 
 
        Potential amp.        0.0126 Ry
        Total length         54.1761 bohr
 

     total cpu time spent up to now is    43500.8 secs

     total energy              =   -7056.75615488 Ry
     estimated scf accuracy    <      13.28374466 Ry

     total magnetization       =    73.00 Bohr mag/cell
     absolute magnetization    =    84.62 Bohr mag/cell

     iteration # 18     ecut=    50.00 Ry     beta= 0.20
     Davidson diagonalization with overlap
     ethr =  1.25E-03,  avg # of iterations =  1.6

     negative rho (up, down):  5.757E-04 0.000E+00
 
     Adding external electric field

     Computed dipole along edir(3) : 
        Dipole                0.3006 Ry au,          0.7642 Debye
        Dipole field          0.0002 Ry au, 
 
        Potential amp.       -0.0201 Ry
        Total length         54.1761 bohr
 
 
     Adding external electric field

     Computed dipole along edir(3) : 
        Dipole                0.3006 Ry au,          0.7642 Debye
        Dipole field          0.0002 Ry au, 
 
        Potential amp.       -0.0201 Ry
        Total length         54.1761 bohr
 

     total cpu time spent up to now is    45102.1 secs

     total energy              =   -7056.72749230 Ry
     estimated scf accuracy    <      26.17017554 Ry

     total magnetization       =    71.83 Bohr mag/cell
     absolute magnetization    =    82.38 Bohr mag/cell

     iteration # 19     ecut=    50.00 Ry     beta= 0.20
     Davidson diagonalization with overlap
     ethr =  1.25E-03,  avg # of iterations =  1.0

     negative rho (up, down):  5.745E-04 0.000E+00
 
     Adding external electric field

     Computed dipole along edir(3) : 
        Dipole                0.1763 Ry au,          0.4481 Debye
        Dipole field          0.0001 Ry au, 
 
        Potential amp.       -0.0118 Ry
        Total length         54.1761 bohr
 
 
     Adding external electric field

     Computed dipole along edir(3) : 
        Dipole                0.1763 Ry au,          0.4481 Debye
        Dipole field          0.0001 Ry au, 
 
        Potential amp.       -0.0118 Ry
        Total length         54.1761 bohr
 

     total cpu time spent up to now is    46586.1 secs

     total energy              =   -7057.52741513 Ry
     estimated scf accuracy    <       3.25773712 Ry

     total magnetization       =    72.77 Bohr mag/cell
     absolute magnetization    =    81.63 Bohr mag/cell

     iteration # 20     ecut=    50.00 Ry     beta= 0.20
     Davidson diagonalization with overlap
     ethr =  3.06E-04,  avg # of iterations =  2.3

     negative rho (up, down):  6.144E-04 0.000E+00
 
     Adding external electric field

     Computed dipole along edir(3) : 
        Dipole                0.0593 Ry au,          0.1508 Debye
        Dipole field          0.0000 Ry au, 
 
        Potential amp.       -0.0040 Ry
        Total length         54.1761 bohr
 
 
     Adding external electric field

     Computed dipole along edir(3) : 
        Dipole                0.0593 Ry au,          0.1508 Debye
        Dipole field          0.0000 Ry au, 
 
        Potential amp.       -0.0040 Ry
        Total length         54.1761 bohr
 

     total cpu time spent up to now is    48281.0 secs

     total energy              =   -7057.70513877 Ry
     estimated scf accuracy    <       1.33993165 Ry

     total magnetization       =    72.90 Bohr mag/cell
     absolute magnetization    =    80.70 Bohr mag/cell

     iteration # 21     ecut=    50.00 Ry     beta= 0.20
     Davidson diagonalization with overlap
     c_bands:  1 eigenvalues not converged
     c_bands:  1 eigenvalues not converged
     c_bands:  4 eigenvalues not converged
     c_bands:  2 eigenvalues not converged
     ethr =  1.26E-04,  avg # of iterations = 10.1

     negative rho (up, down):  6.640E-04 9.317E-07
 
     Adding external electric field

     Computed dipole along edir(3) : 
        Dipole                0.2796 Ry au,          0.7106 Debye
        Dipole field          0.0002 Ry au, 
 
        Potential amp.       -0.0187 Ry
        Total length         54.1761 bohr
 
 
     Adding external electric field

     Computed dipole along edir(3) : 
        Dipole                0.2796 Ry au,          0.7106 Debye
        Dipole field          0.0002 Ry au, 
 
        Potential amp.       -0.0187 Ry
        Total length         54.1761 bohr
 

     total cpu time spent up to now is    50585.1 secs

     total energy              =   -7057.82695091 Ry
     estimated scf accuracy    <       0.33815229 Ry

     total magnetization       =    72.93 Bohr mag/cell
     absolute magnetization    =    79.49 Bohr mag/cell

     iteration # 22     ecut=    50.00 Ry     beta= 0.20
     Davidson diagonalization with overlap
     ethr =  3.18E-05,  avg # of iterations = 11.6

     negative rho (up, down):  6.594E-04 7.198E-07
 
     Adding external electric field

     Computed dipole along edir(3) : 
        Dipole               -0.0693 Ry au,         -0.1762 Debye
        Dipole field         -0.0000 Ry au, 
 
        Potential amp.        0.0046 Ry
        Total length         54.1761 bohr
 
 
     Adding external electric field

     Computed dipole along edir(3) : 
        Dipole               -0.0693 Ry au,         -0.1762 Debye
        Dipole field         -0.0000 Ry au, 
 
        Potential amp.        0.0046 Ry
        Total length         54.1761 bohr
 

     total cpu time spent up to now is    52939.7 secs

     total energy              =   -7057.85020545 Ry
     estimated scf accuracy    <       0.32226648 Ry

     total magnetization       =    72.44 Bohr mag/cell
     absolute magnetization    =    78.01 Bohr mag/cell

     iteration # 23     ecut=    50.00 Ry     beta= 0.20
     Davidson diagonalization with overlap
     ethr =  3.03E-05,  avg # of iterations =  2.0

     negative rho (up, down):  7.448E-04 3.370E-03
 
     Adding external electric field

     Computed dipole along edir(3) : 
        Dipole                0.0976 Ry au,          0.2481 Debye
        Dipole field          0.0001 Ry au, 
 
        Potential amp.       -0.0065 Ry
        Total length         54.1761 bohr
 
 
     Adding external electric field

     Computed dipole along edir(3) : 
        Dipole                0.0976 Ry au,          0.2481 Debye
        Dipole field          0.0001 Ry au, 
 
        Potential amp.       -0.0065 Ry
        Total length         54.1761 bohr
 

     total cpu time spent up to now is    54505.3 secs

     total energy              =   -7057.90219417 Ry
     estimated scf accuracy    <       0.18296399 Ry

     total magnetization       =    72.69 Bohr mag/cell
     absolute magnetization    =    77.86 Bohr mag/cell

     iteration # 24     ecut=    50.00 Ry     beta= 0.20
     Davidson diagonalization with overlap
     ethr =  1.72E-05,  avg # of iterations =  3.7

     negative rho (up, down):  9.220E-04 7.556E-03
 
     Adding external electric field

     Computed dipole along edir(3) : 
        Dipole                0.1308 Ry au,          0.3324 Debye
        Dipole field          0.0001 Ry au, 
 
        Potential amp.       -0.0087 Ry
        Total length         54.1761 bohr
 
 
     Adding external electric field

     Computed dipole along edir(3) : 
        Dipole                0.1308 Ry au,          0.3324 Debye
        Dipole field          0.0001 Ry au, 
 
        Potential amp.       -0.0087 Ry
        Total length         54.1761 bohr
 

     total cpu time spent up to now is    56212.9 secs

     total energy              =   -7057.93382866 Ry
     estimated scf accuracy    <       0.06562789 Ry

     total magnetization       =    72.79 Bohr mag/cell
     absolute magnetization    =    77.03 Bohr mag/cell

     iteration # 25     ecut=    50.00 Ry     beta= 0.20
     Davidson diagonalization with overlap
     c_bands:  1 eigenvalues not converged
     c_bands:  3 eigenvalues not converged
     c_bands:  2 eigenvalues not converged
     c_bands:  1 eigenvalues not converged
     c_bands:  1 eigenvalues not converged
     c_bands:  2 eigenvalues not converged
     ethr =  6.17E-06,  avg # of iterations =  7.5

     negative rho (up, down):  1.411E-03 1.311E-02
 
     Adding external electric field

     Computed dipole along edir(3) : 
        Dipole                0.0741 Ry au,          0.1884 Debye
        Dipole field          0.0000 Ry au, 
 
        Potential amp.       -0.0049 Ry
        Total length         54.1761 bohr
 
 
     Adding external electric field

     Computed dipole along edir(3) : 
        Dipole                0.0741 Ry au,          0.1884 Debye
        Dipole field          0.0000 Ry au, 
 
        Potential amp.       -0.0049 Ry
        Total length         54.1761 bohr
 

     total cpu time spent up to now is    58120.1 secs

     total energy              =   -7057.95184256 Ry
     estimated scf accuracy    <       0.10254246 Ry

     total magnetization       =    72.19 Bohr mag/cell
     absolute magnetization    =    75.65 Bohr mag/cell

     iteration # 26     ecut=    50.00 Ry     beta= 0.20
     Davidson diagonalization with overlap
     c_bands:  2 eigenvalues not converged
     c_bands:  2 eigenvalues not converged
     ethr =  6.17E-06,  avg # of iterations =  5.0

     negative rho (up, down):  1.471E-03 1.235E-02
 
     Adding external electric field

     Computed dipole along edir(3) : 
        Dipole                0.0591 Ry au,          0.1502 Debye
        Dipole field          0.0000 Ry au, 
 
        Potential amp.       -0.0039 Ry
        Total length         54.1761 bohr
 
 
     Adding external electric field

     Computed dipole along edir(3) : 
        Dipole                0.0591 Ry au,          0.1502 Debye
        Dipole field          0.0000 Ry au, 
 
        Potential amp.       -0.0039 Ry
        Total length         54.1761 bohr
 

     total cpu time spent up to now is    59853.3 secs

     total energy              =   -7057.96451115 Ry
     estimated scf accuracy    <       0.02551157 Ry

     total magnetization       =    72.70 Bohr mag/cell
     absolute magnetization    =    75.37 Bohr mag/cell

     iteration # 27     ecut=    50.00 Ry     beta= 0.20
     Davidson diagonalization with overlap
     c_bands:  2 eigenvalues not converged
     c_bands:  1 eigenvalues not converged
     c_bands:  3 eigenvalues not converged
     c_bands:  2 eigenvalues not converged
     c_bands:  1 eigenvalues not converged
     c_bands:  4 eigenvalues not converged
     c_bands:  2 eigenvalues not converged
     c_bands:  2 eigenvalues not converged
     c_bands:  5 eigenvalues not converged
     ethr =  2.40E-06,  avg # of iterations = 19.6

     negative rho (up, down):  1.359E-03 1.025E-02
 
     Adding external electric field

     Computed dipole along edir(3) : 
        Dipole                0.0310 Ry au,          0.0787 Debye
        Dipole field          0.0000 Ry au, 
 
        Potential amp.       -0.0021 Ry
        Total length         54.1761 bohr
 
 
     Adding external electric field

     Computed dipole along edir(3) : 
        Dipole                0.0310 Ry au,          0.0787 Debye
        Dipole field          0.0000 Ry au, 
 
        Potential amp.       -0.0021 Ry
        Total length         54.1761 bohr
 

     total cpu time spent up to now is    62746.0 secs

     total energy              =   -7057.96896299 Ry
     estimated scf accuracy    <       0.00957084 Ry

     total magnetization       =    72.54 Bohr mag/cell
     absolute magnetization    =    74.82 Bohr mag/cell

     iteration # 28     ecut=    50.00 Ry     beta= 0.20
     Davidson diagonalization with overlap
     c_bands:  5 eigenvalues not converged
     c_bands:  1 eigenvalues not converged
     c_bands:  1 eigenvalues not converged
     c_bands:  1 eigenvalues not converged
     c_bands:  1 eigenvalues not converged
     c_bands:  1 eigenvalues not converged
     c_bands:  2 eigenvalues not converged
     c_bands:  1 eigenvalues not converged
     ethr =  9.00E-07,  avg # of iterations = 10.0

     negative rho (up, down):  1.148E-03 6.642E-03
 
     Adding external electric field

     Computed dipole along edir(3) : 
        Dipole                0.0352 Ry au,          0.0896 Debye
        Dipole field          0.0000 Ry au, 
 
        Potential amp.       -0.0024 Ry
        Total length         54.1761 bohr
 
 
     Adding external electric field

     Computed dipole along edir(3) : 
        Dipole                0.0352 Ry au,          0.0896 Debye
        Dipole field          0.0000 Ry au, 
 
        Potential amp.       -0.0024 Ry
        Total length         54.1761 bohr
 

     total cpu time spent up to now is    64604.7 secs

     total energy              =   -7057.97226121 Ry
     estimated scf accuracy    <       0.00556779 Ry

     total magnetization       =    72.63 Bohr mag/cell
     absolute magnetization    =    74.77 Bohr mag/cell

     iteration # 29     ecut=    50.00 Ry     beta= 0.20
     Davidson diagonalization with overlap
     c_bands:  1 eigenvalues not converged
     ethr =  5.24E-07,  avg # of iterations =  3.6

     negative rho (up, down):  1.024E-03 4.033E-03
 
     Adding external electric field

     Computed dipole along edir(3) : 
        Dipole               -0.0209 Ry au,         -0.0532 Debye
        Dipole field         -0.0000 Ry au, 
 
        Potential amp.        0.0014 Ry
        Total length         54.1761 bohr
 
 
     Adding external electric field

     Computed dipole along edir(3) : 
        Dipole               -0.0209 Ry au,         -0.0532 Debye
        Dipole field         -0.0000 Ry au, 
 
        Potential amp.        0.0014 Ry
        Total length         54.1761 bohr
 

     total cpu time spent up to now is    66228.1 secs

     total energy              =   -7057.97434258 Ry
     estimated scf accuracy    <       0.00256241 Ry

     total magnetization       =    72.64 Bohr mag/cell
     absolute magnetization    =    74.69 Bohr mag/cell

     iteration # 30     ecut=    50.00 Ry     beta= 0.20
     Davidson diagonalization with overlap
     c_bands:  1 eigenvalues not converged
     c_bands:  1 eigenvalues not converged
     c_bands:  3 eigenvalues not converged
     c_bands:  5 eigenvalues not converged
     c_bands:  5 eigenvalues not converged
     ethr =  2.41E-07,  avg # of iterations =  9.2

     negative rho (up, down):  9.101E-04 1.866E-03
 
     Adding external electric field

     Computed dipole along edir(3) : 
        Dipole                0.0213 Ry au,          0.0542 Debye
        Dipole field          0.0000 Ry au, 
 
        Potential amp.       -0.0014 Ry
        Total length         54.1761 bohr
 
 
     Adding external electric field

     Computed dipole along edir(3) : 
        Dipole                0.0213 Ry au,          0.0542 Debye
        Dipole field          0.0000 Ry au, 
 
        Potential amp.       -0.0014 Ry
        Total length         54.1761 bohr
 

     total cpu time spent up to now is    68395.0 secs

     total energy              =   -7057.97517318 Ry
     estimated scf accuracy    <       0.00290507 Ry

     total magnetization       =    72.61 Bohr mag/cell
     absolute magnetization    =    74.52 Bohr mag/cell

     iteration # 31     ecut=    50.00 Ry     beta= 0.20
     Davidson diagonalization with overlap
     ethr =  2.41E-07,  avg # of iterations =  2.0

     negative rho (up, down):  8.698E-04 1.025E-03
 
     Adding external electric field

     Computed dipole along edir(3) : 
        Dipole               -0.0089 Ry au,         -0.0225 Debye
        Dipole field         -0.0000 Ry au, 
 
        Potential amp.        0.0006 Ry
        Total length         54.1761 bohr
 
 
     Adding external electric field

     Computed dipole along edir(3) : 
        Dipole               -0.0089 Ry au,         -0.0225 Debye
        Dipole field         -0.0000 Ry au, 
 
        Potential amp.        0.0006 Ry
        Total length         54.1761 bohr
 

     total cpu time spent up to now is    70004.1 secs

     total energy              =   -7057.97563646 Ry
     estimated scf accuracy    <       0.00119737 Ry

     total magnetization       =    72.67 Bohr mag/cell
     absolute magnetization    =    74.53 Bohr mag/cell

     iteration # 32     ecut=    50.00 Ry     beta= 0.20
     Davidson diagonalization with overlap
     ethr =  1.13E-07,  avg # of iterations =  2.0

     negative rho (up, down):  8.390E-04 6.207E-04
 
     Adding external electric field

     Computed dipole along edir(3) : 
        Dipole               -0.0106 Ry au,         -0.0270 Debye
        Dipole field         -0.0000 Ry au, 
 
        Potential amp.        0.0007 Ry
        Total length         54.1761 bohr
 
 
     Adding external electric field

     Computed dipole along edir(3) : 
        Dipole               -0.0106 Ry au,         -0.0270 Debye
        Dipole field         -0.0000 Ry au, 
 
        Potential amp.        0.0007 Ry
        Total length         54.1761 bohr
 

     total cpu time spent up to now is    71656.6 secs

     total energy              =   -7057.97580196 Ry
     estimated scf accuracy    <       0.00016166 Ry

     total magnetization       =    72.63 Bohr mag/cell
     absolute magnetization    =    74.42 Bohr mag/cell

     iteration # 33     ecut=    50.00 Ry     beta= 0.20
     Davidson diagonalization with overlap
     ethr =  1.52E-08,  avg # of iterations =  5.1

     negative rho (up, down):  8.309E-04 5.328E-04
 
     Adding external electric field

     Computed dipole along edir(3) : 
        Dipole               -0.0130 Ry au,         -0.0330 Debye
        Dipole field         -0.0000 Ry au, 
 
        Potential amp.        0.0009 Ry
        Total length         54.1761 bohr
 
 
     Adding external electric field

     Computed dipole along edir(3) : 
        Dipole               -0.0130 Ry au,         -0.0330 Debye
        Dipole field         -0.0000 Ry au, 
 
        Potential amp.        0.0009 Ry
        Total length         54.1761 bohr
 

     total cpu time spent up to now is    73547.1 secs

     total energy              =   -7057.97587913 Ry
     estimated scf accuracy    <       0.00008167 Ry

     total magnetization       =    72.64 Bohr mag/cell
     absolute magnetization    =    74.42 Bohr mag/cell

     iteration # 34     ecut=    50.00 Ry     beta= 0.20
     Davidson diagonalization with overlap
     c_bands:  5 eigenvalues not converged
     c_bands:  1 eigenvalues not converged
     ethr =  7.68E-09,  avg # of iterations =  5.5

     negative rho (up, down):  8.265E-04 5.078E-04
 
     Adding external electric field

     Computed dipole along edir(3) : 
        Dipole               -0.0123 Ry au,         -0.0311 Debye
        Dipole field         -0.0000 Ry au, 
 
        Potential amp.        0.0008 Ry
        Total length         54.1761 bohr
 
 
     Adding external electric field

     Computed dipole along edir(3) : 
        Dipole               -0.0123 Ry au,         -0.0311 Debye
        Dipole field         -0.0000 Ry au, 
 
        Potential amp.        0.0008 Ry
        Total length         54.1761 bohr
 

     total cpu time spent up to now is    75547.3 secs

     total energy              =   -7057.97591559 Ry
     estimated scf accuracy    <       0.00004167 Ry

     total magnetization       =    72.64 Bohr mag/cell
     absolute magnetization    =    74.39 Bohr mag/cell

     iteration # 35     ecut=    50.00 Ry     beta= 0.20
     Davidson diagonalization with overlap
     c_bands:  1 eigenvalues not converged
     c_bands:  4 eigenvalues not converged
     ethr =  3.92E-09,  avg # of iterations =  4.4

     negative rho (up, down):  8.223E-04 4.735E-04
 
     Adding external electric field

     Computed dipole along edir(3) : 
        Dipole               -0.0143 Ry au,         -0.0362 Debye
        Dipole field         -0.0000 Ry au, 
 
        Potential amp.        0.0010 Ry
        Total length         54.1761 bohr
 
 
     Adding external electric field

     Computed dipole along edir(3) : 
        Dipole               -0.0143 Ry au,         -0.0362 Debye
        Dipole field         -0.0000 Ry au, 
 
        Potential amp.        0.0010 Ry
        Total length         54.1761 bohr
 

     total cpu time spent up to now is    77342.7 secs

     total energy              =   -7057.97594135 Ry
     estimated scf accuracy    <       0.00002528 Ry

     total magnetization       =    72.64 Bohr mag/cell
     absolute magnetization    =    74.38 Bohr mag/cell

     iteration # 36     ecut=    50.00 Ry     beta= 0.20
     Davidson diagonalization with overlap
     c_bands:  4 eigenvalues not converged
     ethr =  2.38E-09,  avg # of iterations =  4.8

     negative rho (up, down):  8.226E-04 4.972E-04
 
     Adding external electric field

     Computed dipole along edir(3) : 
        Dipole               -0.0119 Ry au,         -0.0301 Debye
        Dipole field         -0.0000 Ry au, 
 
        Potential amp.        0.0008 Ry
        Total length         54.1761 bohr
 
 
     Adding external electric field

     Computed dipole along edir(3) : 
        Dipole               -0.0119 Ry au,         -0.0301 Debye
        Dipole field         -0.0000 Ry au, 
 
        Potential amp.        0.0008 Ry
        Total length         54.1761 bohr
 

     total cpu time spent up to now is    79356.5 secs

     total energy              =   -7057.97595918 Ry
     estimated scf accuracy    <       0.00001722 Ry

     total magnetization       =    72.64 Bohr mag/cell
     absolute magnetization    =    74.37 Bohr mag/cell

     iteration # 37     ecut=    50.00 Ry     beta= 0.20
     Davidson diagonalization with overlap
     ethr =  1.62E-09,  avg # of iterations =  2.9

     negative rho (up, down):  8.231E-04 5.067E-04
 
     Adding external electric field

     Computed dipole along edir(3) : 
        Dipole               -0.0129 Ry au,         -0.0327 Debye
        Dipole field         -0.0000 Ry au, 
 
        Potential amp.        0.0009 Ry
        Total length         54.1761 bohr
 
 
     Adding external electric field

     Computed dipole along edir(3) : 
        Dipole               -0.0129 Ry au,         -0.0327 Debye
        Dipole field         -0.0000 Ry au, 
 
        Potential amp.        0.0009 Ry
        Total length         54.1761 bohr
 

     total cpu time spent up to now is    81266.5 secs

     total energy              =   -7057.97596699 Ry
     estimated scf accuracy    <       0.00000837 Ry

     total magnetization       =    72.64 Bohr mag/cell
     absolute magnetization    =    74.36 Bohr mag/cell

     iteration # 38     ecut=    50.00 Ry     beta= 0.20
     Davidson diagonalization with overlap
     c_bands:  2 eigenvalues not converged
     ethr =  7.87E-10,  avg # of iterations =  4.0

     negative rho (up, down):  8.227E-04 5.019E-04
 
     Adding external electric field

     Computed dipole along edir(3) : 
        Dipole               -0.0121 Ry au,         -0.0307 Debye
        Dipole field         -0.0000 Ry au, 
 
        Potential amp.        0.0008 Ry
        Total length         54.1761 bohr
 
 
     Adding external electric field

     Computed dipole along edir(3) : 
        Dipole               -0.0121 Ry au,         -0.0307 Debye
        Dipole field         -0.0000 Ry au, 
 
        Potential amp.        0.0008 Ry
        Total length         54.1761 bohr
 

     total cpu time spent up to now is    83254.0 secs

     total energy              =   -7057.97597039 Ry
     estimated scf accuracy    <       0.00000425 Ry

     total magnetization       =    72.64 Bohr mag/cell
     absolute magnetization    =    74.35 Bohr mag/cell

     iteration # 39     ecut=    50.00 Ry     beta= 0.20
     Davidson diagonalization with overlap
     ethr =  3.99E-10,  avg # of iterations =  3.8

     negative rho (up, down):  8.240E-04 5.179E-04
 
     Adding external electric field

     Computed dipole along edir(3) : 
        Dipole               -0.0119 Ry au,         -0.0302 Debye
        Dipole field         -0.0000 Ry au, 
 
        Potential amp.        0.0008 Ry
        Total length         54.1761 bohr
 
 
     Adding external electric field

     Computed dipole along edir(3) : 
        Dipole               -0.0119 Ry au,         -0.0302 Debye
        Dipole field         -0.0000 Ry au, 
 
        Potential amp.        0.0008 Ry
        Total length         54.1761 bohr
 

     total cpu time spent up to now is    85289.7 secs

     total energy              =   -7057.97597179 Ry
     estimated scf accuracy    <       0.00000365 Ry

     total magnetization       =    72.64 Bohr mag/cell
     absolute magnetization    =    74.34 Bohr mag/cell

     iteration # 40     ecut=    50.00 Ry     beta= 0.20
     Davidson diagonalization with overlap
     ethr =  3.44E-10,  avg # of iterations =  1.9

     negative rho (up, down):  8.253E-04 5.257E-04
 
     Adding external electric field

     Computed dipole along edir(3) : 
        Dipole               -0.0117 Ry au,         -0.0298 Debye
        Dipole field         -0.0000 Ry au, 
 
        Potential amp.        0.0008 Ry
        Total length         54.1761 bohr
 
 
     Adding external electric field

     Computed dipole along edir(3) : 
        Dipole               -0.0117 Ry au,         -0.0298 Debye
        Dipole field         -0.0000 Ry au, 
 
        Potential amp.        0.0008 Ry
        Total length         54.1761 bohr
 
 
     Magnetic moment per site:
     atom:    1    charge:    7.1216    magn:    1.4621    constr:    0.0000
     atom:    2    charge:    7.1112    magn:    1.5493    constr:    0.0000
     atom:    3    charge:    7.1217    magn:    1.4621    constr:    0.0000
     atom:    4    charge:    7.1112    magn:    1.5493    constr:    0.0000
     atom:    5    charge:    7.1307    magn:    1.5059    constr:    0.0000
     atom:    6    charge:    7.1307    magn:    1.5059    constr:    0.0000
     atom:    7    charge:    0.8200    magn:    0.0061    constr:    0.0000
     atom:    8    charge:    0.8228    magn:    0.0030    constr:    0.0000
     atom:    9    charge:    0.8228    magn:    0.0030    constr:    0.0000
     atom:   10    charge:    0.8200    magn:    0.0061    constr:    0.0000
     atom:   11    charge:    1.9784    magn:    0.0782    constr:    0.0000
     atom:   12    charge:    1.9782    magn:    0.0985    constr:    0.0000
     atom:   13    charge:    1.9782    magn:    0.0985    constr:    0.0000
     atom:   14    charge:    1.9784    magn:    0.0782    constr:    0.0000
     atom:   15    charge:    1.9861    magn:    0.0569    constr:    0.0000
     atom:   16    charge:    1.9684    magn:    0.0503    constr:    0.0000
     atom:   17    charge:    1.9684    magn:    0.0503    constr:    0.0000
     atom:   18    charge:    1.9861    magn:    0.0569    constr:    0.0000
     atom:   19    charge:    1.9845    magn:    0.0575    constr:    0.0000
     atom:   20    charge:    1.9793    magn:    0.0545    constr:    0.0000
     atom:   21    charge:    1.9857    magn:    0.0491    constr:    0.0000
     atom:   22    charge:    1.9846    magn:    0.0487    constr:    0.0000
     atom:   23    charge:    1.9846    magn:    0.0487    constr:    0.0000
     atom:   24    charge:    1.9793    magn:    0.0545    constr:    0.0000
     atom:   25    charge:    1.9846    magn:    0.0575    constr:    0.0000
     atom:   26    charge:    1.9857    magn:    0.0491    constr:    0.0000
     atom:   27    charge:    7.1136    magn:    1.5432    constr:    0.0000
     atom:   28    charge:    7.1126    magn:    1.5434    constr:    0.0000
     atom:   29    charge:    7.1136    magn:    1.5434    constr:    0.0000
     atom:   30    charge:    7.1131    magn:    1.5428    constr:    0.0000
     atom:   31    charge:    7.1324    magn:    1.5042    constr:    0.0000
     atom:   32    charge:    7.1323    magn:    1.5040    constr:    0.0000
     atom:   33    charge:    0.8200    magn:    0.0062    constr:    0.0000
     atom:   34    charge:    0.8202    magn:    0.0062    constr:    0.0000
     atom:   35    charge:    0.8202    magn:    0.0062    constr:    0.0000
     atom:   36    charge:    0.8200    magn:    0.0062    constr:    0.0000
     atom:   37    charge:    1.9788    magn:    0.0813    constr:    0.0000
     atom:   38    charge:    1.9788    magn:    0.0812    constr:    0.0000
     atom:   39    charge:    1.9788    magn:    0.0813    constr:    0.0000
     atom:   40    charge:    1.9788    magn:    0.0815    constr:    0.0000
     atom:   41    charge:    1.9855    magn:    0.0574    constr:    0.0000
     atom:   42    charge:    1.9856    magn:    0.0572    constr:    0.0000
     atom:   43    charge:    1.9856    magn:    0.0572    constr:    0.0000
     atom:   44    charge:    1.9858    magn:    0.0568    constr:    0.0000
     atom:   45    charge:    1.9852    magn:    0.0572    constr:    0.0000
     atom:   46    charge:    1.9847    magn:    0.0572    constr:    0.0000
     atom:   47    charge:    1.9859    magn:    0.0491    constr:    0.0000
     atom:   48    charge:    1.9856    magn:    0.0489    constr:    0.0000
     atom:   49    charge:    1.9856    magn:    0.0489    constr:    0.0000
     atom:   50    charge:    1.9847    magn:    0.0572    constr:    0.0000
     atom:   51    charge:    1.9852    magn:    0.0571    constr:    0.0000
     atom:   52    charge:    1.9859    magn:    0.0489    constr:    0.0000
     atom:   53    charge:    7.1085    magn:    1.5524    constr:    0.0000
     atom:   54    charge:    7.0630    magn:    1.6941    constr:    0.0000
     atom:   55    charge:    7.1104    magn:    1.5456    constr:    0.0000
     atom:   56    charge:    7.1225    magn:    1.4645    constr:    0.0000
     atom:   57    charge:    7.1303    magn:    1.4995    constr:    0.0000
     atom:   58    charge:    7.1276    magn:    1.5047    constr:    0.0000
     atom:   59    charge:    0.8177    magn:    0.0042    constr:    0.0000
     atom:   60    charge:    0.8190    magn:    0.0061    constr:    0.0000
     atom:   61    charge:    0.8206    magn:    0.0060    constr:    0.0000
     atom:   62    charge:    0.8174    magn:    0.0043    constr:    0.0000
     atom:   63    charge:    1.9763    magn:    0.1010    constr:    0.0000
     atom:   64    charge:    1.9765    magn:    0.0848    constr:    0.0000
     atom:   65    charge:    1.9796    magn:    0.0762    constr:    0.0000
     atom:   66    charge:    1.9736    magn:    0.1056    constr:    0.0000
     atom:   67    charge:    1.9774    magn:    0.0400    constr:    0.0000
     atom:   68    charge:    1.9845    magn:    0.0579    constr:    0.0000
     atom:   69    charge:    1.9837    magn:    0.0553    constr:    0.0000
     atom:   70    charge:    1.9731    magn:    0.0455    constr:    0.0000
     atom:   71    charge:    1.9791    magn:    0.0542    constr:    0.0000
     atom:   72    charge:    1.9833    magn:    0.0571    constr:    0.0000
     atom:   73    charge:    1.9843    magn:    0.0507    constr:    0.0000
     atom:   74    charge:    1.9856    magn:    0.0483    constr:    0.0000
     atom:   75    charge:    1.9851    magn:    0.0475    constr:    0.0000
     atom:   76    charge:    1.9826    magn:    0.0590    constr:    0.0000
     atom:   77    charge:    1.9797    magn:    0.0538    constr:    0.0000
     atom:   78    charge:    1.9828    magn:    0.0565    constr:    0.0000
     atom:   79    charge:    7.1218    magn:    1.4619    constr:    0.0000
     atom:   80    charge:    7.1111    magn:    1.5494    constr:    0.0000
     atom:   81    charge:    7.1217    magn:    1.4620    constr:    0.0000
     atom:   82    charge:    7.1112    magn:    1.5493    constr:    0.0000
     atom:   83    charge:    7.1307    magn:    1.5059    constr:    0.0000
     atom:   84    charge:    7.1307    magn:    1.5059    constr:    0.0000
     atom:   85    charge:    0.8200    magn:    0.0061    constr:    0.0000
     atom:   86    charge:    0.8228    magn:    0.0030    constr:    0.0000
     atom:   87    charge:    0.8228    magn:    0.0030    constr:    0.0000
     atom:   88    charge:    0.8200    magn:    0.0061    constr:    0.0000
     atom:   89    charge:    1.9784    magn:    0.0782    constr:    0.0000
     atom:   90    charge:    1.9782    magn:    0.0985    constr:    0.0000
     atom:   91    charge:    1.9782    magn:    0.0985    constr:    0.0000
     atom:   92    charge:    1.9784    magn:    0.0782    constr:    0.0000
     atom:   93    charge:    1.9861    magn:    0.0569    constr:    0.0000
     atom:   94    charge:    1.9684    magn:    0.0503    constr:    0.0000
     atom:   95    charge:    1.9684    magn:    0.0503    constr:    0.0000
     atom:   96    charge:    1.9861    magn:    0.0569    constr:    0.0000
     atom:   97    charge:    1.9845    magn:    0.0575    constr:    0.0000
     atom:   98    charge:    1.9793    magn:    0.0545    constr:    0.0000
     atom:   99    charge:    1.9857    magn:    0.0491    constr:    0.0000
     atom:  100    charge:    1.9846    magn:    0.0487    constr:    0.0000
     atom:  101    charge:    1.9846    magn:    0.0487    constr:    0.0000
     atom:  102    charge:    1.9793    magn:    0.0545    constr:    0.0000
     atom:  103    charge:    1.9845    magn:    0.0575    constr:    0.0000
     atom:  104    charge:    1.9857    magn:    0.0491    constr:    0.0000
     atom:  105    charge:    7.1135    magn:    1.5435    constr:    0.0000
     atom:  106    charge:    7.1129    magn:    1.5434    constr:    0.0000
     atom:  107    charge:    7.1135    magn:    1.5434    constr:    0.0000
     atom:  108    charge:    7.1130    magn:    1.5435    constr:    0.0000
     atom:  109    charge:    7.1323    magn:    1.5041    constr:    0.0000
     atom:  110    charge:    7.1323    magn:    1.5044    constr:    0.0000
     atom:  111    charge:    0.8201    magn:    0.0062    constr:    0.0000
     atom:  112    charge:    0.8202    magn:    0.0062    constr:    0.0000
     atom:  113    charge:    0.8202    magn:    0.0062    constr:    0.0000
     atom:  114    charge:    0.8199    magn:    0.0062    constr:    0.0000
     atom:  115    charge:    1.9788    magn:    0.0817    constr:    0.0000
     atom:  116    charge:    1.9788    magn:    0.0813    constr:    0.0000
     atom:  117    charge:    1.9788    magn:    0.0813    constr:    0.0000
     atom:  118    charge:    1.9788    magn:    0.0814    constr:    0.0000
     atom:  119    charge:    1.9858    magn:    0.0568    constr:    0.0000
     atom:  120    charge:    1.9856    magn:    0.0572    constr:    0.0000
     atom:  121    charge:    1.9856    magn:    0.0572    constr:    0.0000
     atom:  122    charge:    1.9856    magn:    0.0567    constr:    0.0000
     atom:  123    charge:    1.9851    magn:    0.0572    constr:    0.0000
     atom:  124    charge:    1.9847    magn:    0.0573    constr:    0.0000
     atom:  125    charge:    1.9859    magn:    0.0490    constr:    0.0000
     atom:  126    charge:    1.9856    magn:    0.0490    constr:    0.0000
     atom:  127    charge:    1.9856    magn:    0.0490    constr:    0.0000
     atom:  128    charge:    1.9847    magn:    0.0572    constr:    0.0000
     atom:  129    charge:    1.9852    magn:    0.0572    constr:    0.0000
     atom:  130    charge:    1.9859    magn:    0.0491    constr:    0.0000
     atom:  131    charge:    7.1119    magn:    1.5419    constr:    0.0000
     atom:  132    charge:    7.1235    magn:    1.4718    constr:    0.0000
     atom:  133    charge:    7.1098    magn:    1.5474    constr:    0.0000
     atom:  134    charge:    7.1221    magn:    1.4607    constr:    0.0000
     atom:  135    charge:    7.1275    magn:    1.4960    constr:    0.0000
     atom:  136    charge:    7.1262    magn:    1.5064    constr:    0.0000
     atom:  137    charge:    0.8181    magn:    0.0051    constr:    0.0000
     atom:  138    charge:    0.8202    magn:    0.0060    constr:    0.0000
     atom:  139    charge:    0.8202    magn:    0.0058    constr:    0.0000
     atom:  140    charge:    0.8174    magn:    0.0040    constr:    0.0000
     atom:  141    charge:    1.9785    magn:    0.0787    constr:    0.0000
     atom:  142    charge:    1.9782    magn:    0.0787    constr:    0.0000
     atom:  143    charge:    1.9786    magn:    0.0775    constr:    0.0000
     atom:  144    charge:    1.9744    magn:    0.1089    constr:    0.0000
     atom:  145    charge:    1.9768    magn:    0.0608    constr:    0.0000
     atom:  146    charge:    1.9845    magn:    0.0546    constr:    0.0000
     atom:  147    charge:    1.9846    magn:    0.0559    constr:    0.0000
     atom:  148    charge:    1.9743    magn:    0.0450    constr:    0.0000
     atom:  149    charge:    1.9799    magn:    0.0659    constr:    0.0000
     atom:  150    charge:    1.9837    magn:    0.0580    constr:    0.0000
     atom:  151    charge:    1.9816    magn:    0.0484    constr:    0.0000
     atom:  152    charge:    1.9837    magn:    0.0485    constr:    0.0000
     atom:  153    charge:    1.9852    magn:    0.0499    constr:    0.0000
     atom:  154    charge:    1.9832    magn:    0.0565    constr:    0.0000
     atom:  155    charge:    1.9807    magn:    0.0556    constr:    0.0000
     atom:  156    charge:    1.9826    magn:    0.0512    constr:    0.0000
     atom:  157    charge:    1.9641    magn:    0.2224    constr:    0.0000
     atom:  158    charge:    0.3963    magn:   -0.0017    constr:    0.0000

     total cpu time spent up to now is    86902.7 secs

     End of self-consistent calculation

 ------ SPIN UP ------------


          k = 0.0000 0.0000 0.0000 (121819 PWs)   bands (ev):

   -21.4435 -21.3070 -21.2471 -21.2169 -21.1824 -21.1796 -21.1741 -21.1294
   -21.1026 -21.1000 -21.0784 -21.0238 -21.0194 -20.9942 -20.9548 -20.9368
   -20.8180 -20.8169 -20.7850 -20.7164 -20.7051 -20.6741 -20.6117 -20.5773
   -19.0298 -19.0284 -18.9801 -18.9727 -18.9382 -18.9203 -18.9082 -18.8990
   -18.8754 -18.8243 -18.8159 -18.8151 -18.7757 -18.7697 -18.7467 -18.7377
   -18.7276 -18.7181 -18.7138 -18.7110 -18.7009 -18.6976 -18.6807 -18.6694
   -18.6660 -18.6548 -18.6433 -18.6275 -18.6167 -18.5966 -18.5735 -18.5728
   -18.5725 -18.5673 -18.5523 -18.5476 -18.5418 -18.5322 -18.5235 -18.5093
   -18.5058 -18.4968 -18.4921 -18.4815 -18.4791 -18.4763 -18.4560 -18.4475
   -18.4432 -18.4371 -18.4360 -18.4193 -18.3895 -18.3882 -18.3699 -18.3619
   -18.3386 -18.3372 -18.3266 -18.3053 -18.3044 -18.2394 -18.1831 -18.1379
   -18.0451 -17.8365 -17.8220 -17.7880 -17.6104 -17.4397 -17.4186 -17.4150
   -17.4005  -8.8973  -8.7104  -8.5735  -8.5172  -8.5135  -8.4806  -8.4394
    -8.4264  -8.4038  -8.4012  -8.3962  -8.3566  -8.3348  -8.3308  -8.3054
    -8.2547  -8.1390  -8.0795  -8.0422  -7.9899  -7.9396  -7.9310  -7.9236
    -7.9012  -7.5349  -7.2971  -7.1498  -7.1406  -7.0261  -6.9497  -6.9063
    -6.8367  -6.7002  -6.6641  -6.6589  -6.6402  -6.6334  -6.6266  -6.5845
    -6.5654  -6.5106  -6.4527  -6.4097  -6.3958  -6.3697  -6.3473  -6.3402
    -6.2865  -6.2810  -6.2786  -6.2733  -6.2644  -6.2413  -6.2143  -6.1950
    -6.1799  -6.1153  -6.0997  -6.0908  -6.0785  -6.0502  -6.0373  -6.0335
    -6.0315  -5.9729  -5.9661  -5.9489  -5.9461  -5.9316  -5.9219  -5.8639
    -5.8573  -5.8422  -5.7938  -5.7784  -5.7324  -5.7055  -5.7048  -5.6625
    -5.6297  -5.6115  -5.5951  -5.5565  -5.5140  -5.5050  -5.4712  -5.4656
    -5.4558  -5.3996  -5.3841  -5.3792  -5.3422  -5.3343  -5.3260  -5.2979
    -5.2777  -5.2635  -5.2560  -5.2292  -5.1774  -5.1597  -5.1581  -5.0936
    -5.0264  -5.0016  -4.9608  -4.9598  -4.9343  -4.9172  -4.9008  -4.8916
    -4.8856  -4.8567  -4.7812  -4.7717  -4.7643  -4.7063  -4.6810  -4.6536
    -4.6102  -4.5709  -4.5406  -4.4944  -4.4807  -4.4703  -4.4342  -4.4159
    -4.3973  -4.3875  -4.3707  -4.3384  -4.3251  -4.3215  -4.2850  -4.2841
    -4.2430  -4.2137  -4.2014  -4.1891  -4.1809  -4.1445  -4.1299  -4.1173
    -4.0958  -4.0894  -4.0660  -4.0417  -4.0302  -3.9739  -3.9724  -3.9646
    -3.9423  -3.9281  -3.9185  -3.9025  -3.8721  -3.8523  -3.7836  -3.7776
    -3.7700  -3.7565  -3.7373  -3.7326  -3.7263  -3.7120  -3.6851  -3.6755
    -3.6562  -3.6453  -3.6385  -3.6265  -3.6027  -3.5847  -3.5823  -3.5303
    -3.5284  -3.5214  -3.5173  -3.5016  -3.4905  -3.4776  -3.4624  -3.4494
    -3.4421  -3.4170  -3.3891  -3.3712  -3.3532  -3.3290  -3.3088  -3.3049
    -3.2981  -3.2766  -3.2646  -3.2521  -3.2455  -3.2289  -3.2056  -3.1994
    -3.1284  -3.1101  -3.0923  -3.0785  -3.0565  -3.0512  -3.0242  -3.0167
    -3.0047  -2.9497  -2.9188  -2.9006  -2.8601  -2.8327  -2.8174  -2.8118
    -2.7982  -2.7929  -2.7392  -2.7258  -2.7166  -2.6953  -2.6788  -2.6764
    -2.6658  -2.6021  -2.5927  -2.5653  -2.5502  -2.5443  -2.5333  -2.5239
    -2.5061  -2.4945  -2.4768  -2.4527  -2.4324  -2.4265  -2.3829  -2.3764
    -2.3508  -2.3383  -2.3284  -2.3172  -2.2847  -2.2426  -2.2291  -2.2176
    -2.1976  -2.1896  -2.1782  -2.1596  -2.1514  -2.1410  -2.1386  -2.1377
    -2.0986  -2.0849  -2.0762  -2.0305  -2.0166  -2.0097  -2.0050  -1.9876
    -1.9658  -1.9599  -1.9451  -1.9199  -1.9093  -1.8969  -1.8891  -1.8451
    -1.8346  -1.8203  -1.8163  -1.8096  -1.7870  -1.7849  -1.7728  -1.7333
    -1.6741  -1.6371  -1.5701  -1.5331  -1.4558  -1.3710  -1.2920  -1.2786
    -1.2450  -1.1642  -1.1561  -1.1370  -1.1029  -1.0934  -1.0831  -1.0707
    -1.0512  -1.0499  -1.0449  -1.0394  -1.0245  -0.9981  -0.9887  -0.9863
    -0.9846  -0.9749  -0.9640  -0.9567  -0.9540  -0.9473  -0.9400  -0.9371
    -0.9317  -0.9237  -0.9136  -0.9079  -0.9057  -0.8991  -0.8977  -0.8926
    -0.8879  -0.8731  -0.8667  -0.8645  -0.8565  -0.8530  -0.8495  -0.8444
    -0.8371  -0.8291  -0.8171  -0.8091  -0.8064  -0.7959  -0.7954  -0.7800
    -0.7774  -0.7694  -0.7633  -0.7577  -0.7525  -0.7498  -0.7382  -0.7294
    -0.7272  -0.7190  -0.7106  -0.7013  -0.6869  -0.6801  -0.6712  -0.6664
    -0.6601  -0.6475  -0.6404  -0.6376  -0.6324  -0.6283  -0.6179  -0.6137
    -0.6077  -0.6031  -0.5957  -0.5848  -0.5805  -0.5769  -0.5737  -0.5694
    -0.5655  -0.5607  -0.5508  -0.5456  -0.5430  -0.5360  -0.5290  -0.5188
    -0.5119  -0.4921  -0.4833  -0.4754  -0.4532  -0.4332  -0.4260  -0.4205
[...]
    -6.1337  -6.1075  -6.1037  -6.0977  -6.0854  -6.0396  -6.0340  -6.0309
    -6.0295  -6.0070  -6.0003  -5.9916  -5.9894  -5.9147  -5.9077  -5.9027
    -5.8960  -5.8725  -5.8720  -5.8528  -5.8429  -5.7649  -5.7643  -5.7583
    -5.7537  -5.6735  -5.6666  -5.6643  -5.6510  -5.5599  -5.5280  -5.4992
    -5.4939  -5.4580  -5.4484  -5.4177  -5.4126  -5.4048  -5.4027  -5.3842
    -5.3534  -5.1314  -4.9816  -4.9790  -4.9751  -4.9697  -4.9382  -4.9273
    -4.9070  -4.8001  -4.7379  -4.7366  -4.7335  -4.7138  -4.6419  -4.6391
    -4.6315  -4.6273  -4.5980  -4.5811  -4.5718  -4.5300  -4.3902  -4.3892
    -4.3884  -4.3759  -4.3284  -4.3107  -4.3089  -4.2862  -4.2433  -4.2345
    -4.2257  -4.2048  -4.1669  -4.1561  -4.1487  -4.1055  -3.9865  -3.9771
    -3.9735  -3.9539  -3.9062  -3.9010  -3.8846  -3.8446  -3.7770  -3.7737
    -3.7706  -3.7552  -3.7209  -3.7142  -3.7117  -3.7053  -3.6927  -3.6845
    -3.6834  -3.6711  -3.6191  -3.6147  -3.6129  -3.6066  -3.5545  -3.5362
    -3.5229  -3.5141  -3.4422  -3.4342  -3.4298  -3.4156  -3.4003  -3.3878
    -3.3790  -3.3679  -3.2971  -3.2927  -3.2879  -3.2779  -3.2669  -3.2572
    -3.2530  -3.2491  -3.1810  -3.1786  -3.1733  -3.1710  -3.0285  -3.0131
    -3.0032  -2.9977  -2.9623  -2.9543  -2.9384  -2.9311  -2.9026  -2.8985
    -2.8845  -2.8718  -2.7903  -2.7804  -2.7757  -2.7701  -2.7602  -2.7365
    -2.7310  -2.7091  -2.6830  -2.6635  -2.6610  -2.6442  -2.6369  -2.6190
    -2.6151  -2.5937  -2.5883  -2.5847  -2.5782  -2.5641  -2.5206  -2.5185
    -2.5061  -2.4970  -2.4877  -2.4822  -2.4777  -2.4728  -2.4625  -2.4611
    -2.4452  -2.4103  -2.3536  -2.3523  -2.3474  -2.3224  -2.2851  -2.2790
    -2.2700  -2.2573  -2.2529  -2.2415  -2.2290  -2.2231  -2.1891  -2.1795
    -2.1750  -2.1730  -2.0674  -2.0538  -2.0477  -2.0409  -1.9963  -1.9712
    -1.9585  -1.9505  -1.9438  -1.9426  -1.9395  -1.9305  -1.9122  -1.9045
    -1.9016  -1.8794  -1.7987  -1.7832  -1.7818  -1.7782  -1.7714  -1.7572
    -1.7567  -1.7339  -1.6965  -1.6114  -1.6110  -1.6081  -1.5962  -1.5562
    -1.5343  -1.5220  -1.4957  -1.4877  -1.4646  -1.4528  -1.4445  -1.4101
    -1.3927  -1.3864  -1.2979  -1.2591  -1.2502  -1.2472  -1.2172  -1.2077
    -1.2064  -1.2060  -1.1913  -1.0316  -0.9765  -0.9237  -0.8600  -0.6785
    -0.6784  -0.6784  -0.6783  -0.6492   0.1338   0.1402   0.1414   0.1424
     0.1607   0.1758   0.1784   0.1824   0.1932   0.2047   0.2095   0.2141
     0.2227   0.2276   0.2288   0.2347   0.2385   0.2479   0.2553   0.2608
     0.2683   0.2754   0.2816   0.2913   0.2948   0.2977   0.2995   0.3007
     0.3080   0.3190   0.3211   0.3264   0.3372   0.3644   0.3662   0.3669
     0.3706   0.3723   0.3782   0.3866   0.3894   0.3928   0.3944   0.4003
     0.4018   0.4123   0.4160   0.4328   0.4442   0.4500   0.4527   0.4565
     0.4625   0.4700   0.4754   0.4819   0.4859   0.4912   0.4927   0.5009
     0.5035   0.5087   0.5131   0.5147   0.5268   0.5289   0.5294   0.5419
     0.5427   0.5454   0.5596   0.5779   0.5869   0.5943   0.5994   0.6068
     0.6223   0.6308   0.6335   0.6424   0.6482   0.6585   0.6648   0.6858
     0.6888   0.6921   0.6972   0.7140   0.7170   0.7246   0.7304   0.7495
     0.7597   0.7653   0.7678   0.7843   0.7887   0.7919   0.7965   0.7999
     0.8158   0.8227   0.8298   0.8302   0.8318   0.8329   0.8528   1.2947
     1.4221   1.4222   1.4223   1.4224   1.5089   1.5649   1.5750   1.6767
     1.8264   1.8340   1.8413   1.8430   1.8669   1.8689   1.8761   1.8834
     1.9655   1.9731   1.9762   1.9865   2.0264   2.0337   2.0346   2.0497
     2.0574   2.0636   2.0691   2.0717   2.0825   2.0875   2.0882   2.0904
     2.0964   2.1154   2.1241   2.1261   2.1902   2.2098   2.2157   2.2270
     2.2339   2.2456   2.2542   2.2881   2.3003   2.3031   2.3048   2.3284
     2.3440   2.3486   2.3593   2.3912   2.4197   2.4720   2.4763   2.4954
     2.5081   2.5254   2.5336   2.5439   2.5773   2.6120   2.6164   2.6204
     2.6330   2.6441   2.6459   2.6503   2.6547   2.6816   2.7031   2.7139
     5.7246   5.7249   5.7259   5.7288   5.9080   5.9176   5.9501   6.0943
     6.2881   6.2918   6.3101   6.4915   6.7890   6.8004   6.8114   6.9348
     7.1106   7.1252   7.1281   7.2687   7.3293   7.3371   7.3482   7.4297
     7.6326   7.6408   7.6423   7.7158   7.8457   7.8518   7.8574   7.8694
     7.9201   7.9236   7.9364   7.9776   8.0634   8.0760   8.0931   8.1522
     8.1675   8.1773   8.1949   8.2441   8.2878   8.2931   8.3063   8.3143
     8.3210   8.3313   8.3383   8.3433   8.3479   8.3691   8.3808   8.4011
     8.4438   8.4507   8.4795   8.4938   8.5237   8.5300   8.5522   8.6681
     8.6845   8.6877   8.6890   8.7096   8.7338   8.7570

     the Fermi energy is     1.1897 ev

!    total energy              =   -7057.97597214 Ry
     estimated scf accuracy    <       0.00000090 Ry
     smearing contrib. (-TS)   =      -0.00482735 Ry
     internal energy E=F+TS    =   -7057.97114479 Ry

     The total energy is F=E-TS. E is the sum of the following terms:
     one-electron contribution =  -89074.85760571 Ry
     hartree contribution      =   45215.17603384 Ry
     xc contribution           =   -2299.50220732 Ry
     ewald contribution        =   39103.05117268 Ry
     Dispersion Correction     =      -1.83853837 Ry
     electric field correction =       0.00000008 Ry

     total magnetization       =    72.64 Bohr mag/cell
     absolute magnetization    =    74.34 Bohr mag/cell

     convergence has been achieved in  40 iterations

     negative rho (up, down):  8.253E-04 5.257E-04

     Forces acting on atoms (cartesian axes, Ry/au):

     atom    1 type  1   force =     0.02943179   -0.01706516    0.01847583
     atom    2 type  1   force =    -0.00360543    0.00059833   -0.00193324
     atom    3 type  1   force =    -0.02943119   -0.01705525    0.01845750
     atom    4 type  1   force =     0.00356493    0.00060848   -0.00196293
     atom    5 type  1   force =    -0.00315839    0.00469734   -0.00132854
     atom    6 type  1   force =     0.00317039    0.00471987   -0.00133625
     atom    7 type  2   force =     0.00168050    0.00072048   -0.00101817
     atom    8 type  2   force =    -0.03164458    0.04267047   -0.07502903
     atom    9 type  2   force =     0.03164468    0.04267029   -0.07502908
     atom   10 type  2   force =    -0.00169108    0.00074021   -0.00102000
     atom   11 type  3   force =    -0.00187762   -0.00003486   -0.00186210
     atom   12 type  3   force =    -0.00558308   -0.00014137    0.02469347
     atom   13 type  3   force =     0.00557225   -0.00013963    0.02469963
     atom   14 type  3   force =     0.00188134   -0.00003729   -0.00186800
     atom   15 type  3   force =    -0.00055770   -0.00117478   -0.00000156
     atom   16 type  3   force =     0.00738167   -0.00045540    0.02941437
     atom   17 type  3   force =    -0.00739394   -0.00045347    0.02940542
     atom   18 type  3   force =     0.00056473   -0.00118700    0.00001215
     atom   19 type  3   force =    -0.00031413   -0.00015342    0.00064706
     atom   20 type  3   force =    -0.01364703   -0.03035320   -0.00097920
     atom   21 type  3   force =     0.00022042   -0.00068766    0.00144976
     atom   22 type  3   force =    -0.01833595    0.00082333    0.00219462
     atom   23 type  3   force =     0.01833053    0.00082029    0.00219751
     atom   24 type  3   force =     0.01362908   -0.03035569   -0.00097994
     atom   25 type  3   force =     0.00030849   -0.00014334    0.00065080
     atom   26 type  3   force =    -0.00022794   -0.00068894    0.00144946
     atom   27 type  1   force =     0.00003017   -0.00012392   -0.00044165
     atom   28 type  1   force =    -0.00128521   -0.00106199    0.00505992
     atom   29 type  1   force =    -0.00005882   -0.00011112   -0.00041928
     atom   30 type  1   force =     0.00071519   -0.00026598    0.00220628
     atom   31 type  1   force =    -0.00008435   -0.00009638    0.00017584
     atom   32 type  1   force =     0.00001615   -0.00008021    0.00022541
     atom   33 type  2   force =     0.00009794   -0.00075136    0.00146203
     atom   34 type  2   force =    -0.00002633    0.00012608    0.00004582
     atom   35 type  2   force =     0.00008925    0.00012326   -0.00004750
     atom   36 type  2   force =    -0.00017578   -0.00031563    0.00154325
     atom   37 type  3   force =    -0.00034904   -0.00014655   -0.00030890
     atom   38 type  3   force =    -0.00031898    0.00023787    0.00004299
     atom   39 type  3   force =     0.00023974    0.00023668    0.00002063
     atom   40 type  3   force =     0.00039213   -0.00034066   -0.00029704
     atom   41 type  3   force =     0.00167295   -0.00095789    0.00281538
     atom   42 type  3   force =    -0.00010942    0.00040805    0.00015674
     atom   43 type  3   force =     0.00008557    0.00039440    0.00015903
     atom   44 type  3   force =    -0.00092642    0.00027039    0.00108175
     atom   45 type  3   force =    -0.00001339    0.00062026    0.00008186
     atom   46 type  3   force =    -0.00021190   -0.00008173    0.00023298
     atom   47 type  3   force =    -0.00080350   -0.00005171    0.00009327
     atom   48 type  3   force =    -0.00024230    0.00019994    0.00003099
     atom   49 type  3   force =     0.00027687    0.00020683    0.00001575
     atom   50 type  3   force =     0.00018083   -0.00008603    0.00021658
     atom   51 type  3   force =     0.00052775    0.00074021    0.00024625
     atom   52 type  3   force =     0.00048095   -0.00009002   -0.00020361
     atom   53 type  1   force =     0.00002636   -0.00008650   -0.00009838
     atom   54 type  1   force =    -0.00044972   -0.00051877    0.00042106
     atom   55 type  1   force =     0.00044509    0.00034902   -0.00006517
     atom   56 type  1   force =     0.00018151   -0.00032445    0.00065085
     atom   57 type  1   force =     0.00013644    0.00017215   -0.00032611
     atom   58 type  1   force =    -0.00012772    0.00010385   -0.00010143
     atom   59 type  2   force =     0.00055356   -0.00141389    0.00095405
     atom   60 type  2   force =     0.00044821    0.00008980    0.00019054
     atom   61 type  2   force =    -0.00053101   -0.00004742   -0.00004454
     atom   62 type  2   force =    -0.00049553   -0.00036855    0.00021153
     atom   63 type  3   force =    -0.00002891    0.00005289   -0.00010399
     atom   64 type  3   force =     0.00033196   -0.00013079    0.00004306
     atom   65 type  3   force =     0.00018300    0.00024297   -0.00030230
     atom   66 type  3   force =     0.00014483    0.00016773    0.00026581
     atom   67 type  3   force =     0.00037096    0.00040572   -0.00083013
     atom   68 type  3   force =    -0.00010676    0.00006034   -0.00003353
     atom   69 type  3   force =    -0.00022818    0.00012307    0.00010593
     atom   70 type  3   force =    -0.00003350    0.00037653   -0.00005804
     atom   71 type  3   force =     0.00048522    0.00001001    0.00031454
     atom   72 type  3   force =     0.00022707   -0.00000580   -0.00027478
     atom   73 type  3   force =     0.00020935    0.00013070    0.00011456
     atom   74 type  3   force =    -0.00013449   -0.00008493   -0.00012406
     atom   75 type  3   force =     0.00010179   -0.00009465   -0.00026791
     atom   76 type  3   force =    -0.00063169   -0.00011685   -0.00044751
     atom   77 type  3   force =     0.00011543    0.00078506    0.00003952
     atom   78 type  3   force =    -0.00003861   -0.00027353    0.00009026
     atom   79 type  1   force =     0.02946861   -0.01707924    0.01848703
     atom   80 type  1   force =    -0.00355376    0.00060311   -0.00193756
     atom   81 type  1   force =    -0.02946317   -0.01705824    0.01846426
     atom   82 type  1   force =     0.00358719    0.00061623   -0.00194975
     atom   83 type  1   force =    -0.00322851    0.00469723   -0.00131866
     atom   84 type  1   force =     0.00320616    0.00468718   -0.00131008
     atom   85 type  2   force =     0.00168707    0.00072310   -0.00101869
     atom   86 type  2   force =    -0.03164684    0.04266866   -0.07502620
     atom   87 type  2   force =     0.03164060    0.04266942   -0.07502856
     atom   88 type  2   force =    -0.00168926    0.00073796   -0.00102242
     atom   89 type  3   force =    -0.00190126   -0.00003924   -0.00186095
     atom   90 type  3   force =    -0.00556264   -0.00015159    0.02471337
     atom   91 type  3   force =     0.00558493   -0.00013108    0.02469330
     atom   92 type  3   force =     0.00188963   -0.00003845   -0.00186687
     atom   93 type  3   force =    -0.00056427   -0.00118034    0.00000415
     atom   94 type  3   force =     0.00739679   -0.00045538    0.02938884
     atom   95 type  3   force =    -0.00738415   -0.00044947    0.02941178
     atom   96 type  3   force =     0.00055880   -0.00118885    0.00001906
     atom   97 type  3   force =    -0.00031277   -0.00014805    0.00064954
     atom   98 type  3   force =    -0.01361927   -0.03035074   -0.00098281
     atom   99 type  3   force =     0.00022434   -0.00068753    0.00144607
     atom  100 type  3   force =    -0.01834880    0.00081942    0.00219378
     atom  101 type  3   force =     0.01834519    0.00080354    0.00219762
     atom  102 type  3   force =     0.01364338   -0.03036300   -0.00097867
     atom  103 type  3   force =     0.00030406   -0.00013831    0.00065501
     atom  104 type  3   force =    -0.00021870   -0.00068903    0.00145398
     atom  105 type  1   force =    -0.00000059   -0.00012055   -0.00035418
     atom  106 type  1   force =    -0.00017215   -0.00062648    0.00200767
     atom  107 type  1   force =    -0.00000877   -0.00006722   -0.00037975
     atom  108 type  1   force =     0.00044731    0.00023341    0.00171052
     atom  109 type  1   force =     0.00005298   -0.00011545    0.00020303
     atom  110 type  1   force =    -0.00013871   -0.00003274    0.00035989
     atom  111 type  2   force =    -0.00052698   -0.00105850    0.00181065
     atom  112 type  2   force =    -0.00014460    0.00011648    0.00004446
     atom  113 type  2   force =     0.00011002    0.00012557    0.00003317
     atom  114 type  2   force =     0.00037608    0.00035917    0.00306417
     atom  115 type  3   force =    -0.00041729   -0.00023111   -0.00070875
     atom  116 type  3   force =    -0.00020499    0.00028636   -0.00006926
     atom  117 type  3   force =     0.00026784    0.00021669   -0.00008801
     atom  118 type  3   force =     0.00037606   -0.00041617   -0.00051252
     atom  119 type  3   force =     0.00161020    0.00066570   -0.00084100
     atom  120 type  3   force =    -0.00008565    0.00041404    0.00012722
     atom  121 type  3   force =     0.00009841    0.00041190    0.00013691
     atom  122 type  3   force =    -0.00217329    0.00014531    0.00167640
     atom  123 type  3   force =    -0.00088669    0.00089728   -0.00003117
     atom  124 type  3   force =    -0.00021058   -0.00007197    0.00020192
     atom  125 type  3   force =    -0.00030592   -0.00001526   -0.00033158
     atom  126 type  3   force =    -0.00027193    0.00019165    0.00001754
     atom  127 type  3   force =     0.00022758    0.00021435   -0.00002995
     atom  128 type  3   force =     0.00025371   -0.00008154    0.00018770
     atom  129 type  3   force =     0.00054571    0.00085856   -0.00008482
     atom  130 type  3   force =     0.00058303    0.00000263   -0.00053579
     atom  131 type  1   force =    -0.00031581   -0.00022980   -0.00031174
     atom  132 type  1   force =    -0.00007066   -0.00015264    0.00040918
     atom  133 type  1   force =     0.00022530    0.00002043   -0.00016385
     atom  134 type  1   force =     0.00036120   -0.00034713   -0.00010891
     atom  135 type  1   force =     0.00006566   -0.00008581   -0.00031480
     atom  136 type  1   force =    -0.00013570    0.00053719   -0.00007671
     atom  137 type  2   force =     0.00014730   -0.00051366    0.00030154
     atom  138 type  2   force =     0.00032504    0.00029859   -0.00017203
     atom  139 type  2   force =    -0.00053860   -0.00049101    0.00006485
     atom  140 type  2   force =    -0.00023082    0.00014121   -0.00017937
     atom  141 type  3   force =    -0.00034077    0.00000821    0.00008813
     atom  142 type  3   force =    -0.00034406    0.00005300   -0.00018385
     atom  143 type  3   force =     0.00001957    0.00016385   -0.00021427
     atom  144 type  3   force =    -0.00005781    0.00027146    0.00002975
     atom  145 type  3   force =     0.00036033    0.00026888   -0.00052649
     atom  146 type  3   force =    -0.00006397    0.00027174    0.00034545
     atom  147 type  3   force =    -0.00001201    0.00021574   -0.00014966
     atom  148 type  3   force =     0.00013386    0.00016820   -0.00005369
     atom  149 type  3   force =    -0.00036804    0.00018739    0.00015828
     atom  150 type  3   force =     0.00032963    0.00012390   -0.00032374
     atom  151 type  3   force =    -0.00019358   -0.00000444   -0.00005105
     atom  152 type  3   force =     0.00001822   -0.00021015   -0.00019046
     atom  153 type  3   force =    -0.00007222   -0.00013424    0.00003249
     atom  154 type  3   force =    -0.00043072    0.00006012   -0.00031793
     atom  155 type  3   force =    -0.00056526    0.00025296    0.00008863
     atom  156 type  3   force =     0.00031574   -0.00016687    0.00017546
     atom  157 type  3   force =     0.00712219   -0.00490075   -0.00115189
     atom  158 type  4   force =    -0.00639552    0.00546500    0.00178758

     Total force =     0.228862     Total SCF correction =     0.001872
 
     init_run     :    678.22s CPU    687.02s WALL (       1 calls)
     electrons    :  85264.09s CPU  86215.26s WALL (       1 calls)
     forces       :    343.39s CPU    348.46s WALL (       1 calls)

     Called by init_run:
     wfcinit      :    647.72s CPU    654.35s WALL (       1 calls)
     potinit      :      8.71s CPU      8.85s WALL (       1 calls)
     hinit0       :     12.21s CPU     12.35s WALL (       1 calls)

     Called by electrons:
     c_bands      :  76236.68s CPU  76951.59s WALL (      40 calls)
     sum_band     :   8601.55s CPU   8751.29s WALL (      40 calls)
     v_of_rho     :     92.94s CPU     96.13s WALL (      41 calls)
     newd         :    304.68s CPU    389.73s WALL (      41 calls)
     mix_rho      :     25.90s CPU     25.96s WALL (      40 calls)

     Called by c_bands:
     init_us_2    :    363.67s CPU    366.41s WALL (    1640 calls)
     cegterg      :  74806.83s CPU  75516.86s WALL (     817 calls)

     Called by *egterg:
     cdiaghg      :  10276.97s CPU  10310.21s WALL (    4645 calls)
     h_psi        :  37251.21s CPU  37591.56s WALL (    4665 calls)
     s_psi        :   7598.50s CPU   7611.89s WALL (    4665 calls)
     g_psi        :     53.53s CPU     53.70s WALL (    3828 calls)

     Called by h_psi:
     h_psi:calbec :   7460.06s CPU   7481.89s WALL (    4665 calls)
     vloc_psi     :  22124.51s CPU  22334.43s WALL (    4665 calls)
     add_vuspsi   :   7570.78s CPU   7603.35s WALL (    4665 calls)

     General routines
     calbec       :  10427.74s CPU  10462.03s WALL (    5545 calls)
     fft          :     94.30s CPU     95.10s WALL (    1038 calls)
     ffts         :      3.29s CPU      3.36s WALL (     162 calls)
     fftw         :  21825.31s CPU  22034.49s WALL ( 3241382 calls)
     interpolate  :      8.44s CPU      8.52s WALL (      82 calls)
 
     Parallel routines
     fft_scatt_xy :   4061.35s CPU   4103.87s WALL ( 3242582 calls)
     fft_scatt_yz :   5217.22s CPU   5267.10s WALL ( 3242582 calls)
 
     PWSCF        :     23h58m CPU   1d 0h14m WALL

 
   This run was terminated on:  11:21:30  25Oct2023            

=------------------------------------------------------------------------------=
   JOB DONE.
=------------------------------------------------------------------------------=
