
     Program PWSCF v.6.7MaX starts on 25Oct2023 at 11:21:31 

     This program is part of the open-source Quantum ESPRESSO suite
     for quantum simulation of materials; please cite
         "P. Giannozzi et al., J. Phys.:Condens. Matter 21 395502 (2009);
         "P. Giannozzi et al., J. Phys.:Condens. Matter 29 465901 (2017);
          URL http://www.quantum-espresso.org", 
     in publications or presentations arising from this work. More details at
     http://www.quantum-espresso.org/quote

     Parallel version (MPI), running on    20 processors

     MPI processes distributed on     1 nodes
     R & G space division:  proc/nbgrp/npool/nimage =      20
     Waiting for input...
     Reading input from standard input

     Current dimensions of program PWSCF are:
     Max number of different atomic species (ntypx) = 10
     Max number of k-points (npk) =  40000
     Max angular momentum in pseudopotentials (lmaxx) =  3
     Presently no symmetry can be used with electric field

     file Ni.pbe-n-rrkjus_psl.1.0.0.UPF: wavefunction(s)  3D renormalized
     file O.pbe-rrkjus.UPF: wavefunction(s)  2S renormalized
     file H.pbe-rrkjus.UPF: wavefunction(s)  1S renormalized

     -------------------------------------------------
     Parameters for Dispersion (Grimme-D2) Correction:
     -------------------------------------------------
       atom      VdW radius       C_6     

        Ni         2.952        374.666
        P          3.222        271.980
        O          2.536         24.284
        H          1.892          4.857

     Subspace diagonalization in iterative solution of the eigenvalue problem:
     a serial algorithm will be used

 
     Parallelization info
     --------------------
     sticks:   dense  smooth     PW     G-vecs:    dense   smooth      PW
     Min         673     269     72               192489    48693    6732
     Max         674     270     73               192498    48700    6738
     Sum       13471    5389   1449              3849851   973915  134709
 


     bravais-lattice index     =            0
     lattice parameter (alat)  =      17.7231  a.u.
     unit-cell volume          =   20392.3702 (a.u.)^3
     number of atoms/cell      =          158
     number of atomic types    =            4
     number of electrons       =      1063.00
     number of Kohn-Sham states=          638
     kinetic-energy cutoff     =      50.0000  Ry
     charge density cutoff     =     500.0000  Ry
     scf convergence threshold =      1.0E-06
     mixing beta               =       0.2000
     number of iterations used =            8  plain     mixing
     Exchange-correlation=  SLA  PW   PBE  PBE
                           (   1   4   3   4   0   0   0)

     celldm(1)=  17.723132  celldm(2)=   0.000000  celldm(3)=   0.000000
     celldm(4)=   0.000000  celldm(5)=   0.000000  celldm(6)=   0.000000

     crystal axes: (cart. coord. in units of alat)
               a(1) = (   1.000000   0.000000   0.000000 )  
               a(2) = (   0.000000   1.078504   0.000000 )  
               a(3) = (   0.000000   0.000000   3.396445 )  

     reciprocal axes: (cart. coord. in units 2 pi/alat)
               b(1) = (  1.000000  0.000000  0.000000 )  
               b(2) = (  0.000000  0.927210  0.000000 )  
               b(3) = (  0.000000  0.000000  0.294425 )  


     PseudoPot. # 1 for Ni read from file:
     /home/praktikum/PSEUDO/Ni.pbe-n-rrkjus_psl.1.0.0.UPF
     MD5 check sum: 0fbcd075604c6694e0d643a0634a3f21
     Pseudo is Ultrasoft + core correction, Zval = 10.0
     Generated using "atomic" code by A. Dal Corso  v.5.1.2
     Using radial grid of 1195 points,  6 beta functions with: 
                l(1) =   0
                l(2) =   0
                l(3) =   1
                l(4) =   1
                l(5) =   2
                l(6) =   2
     Q(r) pseudized with 0 coefficients 


     PseudoPot. # 2 for P  read from file:
     /home/praktikum/PSEUDO/P.pbe-n-rrkjus_psl.1.0.0.UPF
     MD5 check sum: 4687844b46ff2552cf7009614ac2afe1
     Pseudo is Ultrasoft + core correction, Zval =  5.0
     Generated using "atomic" code by A. Dal Corso  v.5.1.2
     Using radial grid of 1147 points,  6 beta functions with: 
                l(1) =   0
                l(2) =   0
                l(3) =   1
                l(4) =   1
                l(5) =   2
                l(6) =   2
     Q(r) pseudized with 0 coefficients 


     PseudoPot. # 3 for O  read from file:
     /home/praktikum/PSEUDO/O.pbe-rrkjus.UPF
     MD5 check sum: 390ba29e75625707450f3bd3f0eb6be9
     Pseudo is Ultrasoft, Zval =  6.0
     Generated by new atomic code, or converted to UPF format
     Using radial grid of 1269 points,  4 beta functions with: 
                l(1) =   0
                l(2) =   0
                l(3) =   1
                l(4) =   1
     Q(r) pseudized with 0 coefficients 


     PseudoPot. # 4 for H  read from file:
     /home/praktikum/PSEUDO/H.pbe-rrkjus.UPF
     MD5 check sum: 7cc9d459525c9a0585f487a71c3c9563
     Pseudo is Ultrasoft, Zval =  1.0
     Generated by new atomic code, or converted to UPF format
     Using radial grid of 1061 points,  2 beta functions with: 
                l(1) =   0
                l(2) =   0
     Q(r) pseudized with 0 coefficients 


     atomic species   valence    mass     pseudopotential
        Ni            10.00    58.69340     Ni( 1.00)
        P              5.00    30.97376     P ( 1.00)
        O              6.00    15.99940     O ( 1.00)
        H              1.00     1.00794     H ( 1.00)

     Starting magnetic structure 
     atomic species   magnetization
        Ni           1.000
        P            1.000
        O            1.000
        H            0.000

     No symmetry found



   Cartesian axes

     site n.     atom                  positions (alat units)
         1           Ni  tau(   1) = (   0.2425939   0.8289547   0.1232563  )
         2           Ni  tau(   2) = (   0.4925939   0.7682479   0.4397296  )
         3           Ni  tau(   3) = (   0.0074061   0.2897028   0.1232563  )
         4           Ni  tau(   4) = (   0.2574061   0.2289960   0.4397296  )
         5           Ni  tau(   5) = (   0.0000000   1.0682273   0.2814930  )
         6           Ni  tau(   6) = (   0.2500000   0.5289753   0.2814930  )
         7           P   tau(   7) = (   0.2099015   0.9623143   0.4372472  )
         8           P   tau(   8) = (   0.4599015   0.6348883   0.1257387  )
         9           P   tau(   9) = (   0.2900985   0.0956364   0.1257387  )
        10           P   tau(  10) = (   0.0400985   0.4230624   0.4372472  )
        11           O   tau(  11) = (   0.1313289   0.8921807   0.3011581  )
        12           O   tau(  12) = (   0.3813289   0.7050219   0.2618278  )
        13           O   tau(  13) = (   0.3686711   0.1657700   0.2618278  )
        14           O   tau(  14) = (   0.1186711   0.3529288   0.3011581  )
        15           O   tau(  15) = (   0.1470808   0.8739426   0.5619197  )
        16           O   tau(  16) = (   0.3970808   0.7232600   0.0010662  )
        17           O   tau(  17) = (   0.3529192   0.1840081   0.0010662  )
        18           O   tau(  18) = (   0.1029192   0.3346907   0.5619197  )
        19           O   tau(  19) = (   0.0983097   0.5786104   0.4338456  )
        20           O   tau(  20) = (   0.3483097   1.0185922   0.1291403  )
        21           O   tau(  21) = (   0.3763566   0.4168410   0.4274499  )
        22           O   tau(  22) = (   0.1263566   0.1018578   0.1355360  )
        23           O   tau(  23) = (   0.1236434   0.6411097   0.1355360  )
        24           O   tau(  24) = (   0.4016903   0.4793403   0.1291403  )
        25           O   tau(  25) = (   0.1516903   0.0393585   0.4338456  )
        26           O   tau(  26) = (   0.3736434   0.9560929   0.4274499  )
        27           Ni  tau(  27) = (   0.2425939   0.8084016   0.7413658  )
        28           Ni  tau(  28) = (   0.4925939   0.7476948   1.0578391  )
        29           Ni  tau(  29) = (   0.0074061   0.2691497   0.7413658  )
        30           Ni  tau(  30) = (   0.2574061   0.2084429   1.0578391  )
        31           Ni  tau(  31) = (   0.0000000   1.0476741   0.8996025  )
        32           Ni  tau(  32) = (   0.2500000   0.5084222   0.8996025  )
        33           P   tau(  33) = (   0.2099015   0.9417612   1.0553567  )
        34           P   tau(  34) = (   0.4599015   0.6143352   0.7438483  )
        35           P   tau(  35) = (   0.2900985   0.0750833   0.7438483  )
        36           P   tau(  36) = (   0.0400985   0.4025093   1.0553567  )
        37           O   tau(  37) = (   0.1313289   0.8716276   0.9192676  )
        38           O   tau(  38) = (   0.3813289   0.6844688   0.8799374  )
        39           O   tau(  39) = (   0.3686711   0.1452169   0.8799374  )
        40           O   tau(  40) = (   0.1186711   0.3323757   0.9192676  )
        41           O   tau(  41) = (   0.1470808   0.8533895   1.1800292  )
        42           O   tau(  42) = (   0.3970808   0.7027069   0.6191758  )
        43           O   tau(  43) = (   0.3529192   0.1634550   0.6191758  )
        44           O   tau(  44) = (   0.1029192   0.3141376   1.1800292  )
        45           O   tau(  45) = (   0.0983097   0.5580573   1.0519551  )
        46           O   tau(  46) = (   0.3483097   0.9980391   0.7472498  )
        47           O   tau(  47) = (   0.3763566   0.3962879   1.0455594  )
        48           O   tau(  48) = (   0.1263566   0.0813047   0.7536455  )
        49           O   tau(  49) = (   0.1236434   0.6205566   0.7536455  )
        50           O   tau(  50) = (   0.4016903   0.4587872   0.7472498  )
        51           O   tau(  51) = (   0.1516903   0.0188054   1.0519551  )
        52           O   tau(  52) = (   0.3736434   0.9355398   1.0455594  )
        53           Ni  tau(  53) = (   0.2424041   0.7897793   1.3618974  )
        54           Ni  tau(  54) = (   0.4879612   0.7218564   1.6914308  )
        55           Ni  tau(  55) = (   0.0079170   0.2505787   1.3612627  )
        56           Ni  tau(  56) = (   0.2468086   0.1935142   1.6639243  )
        57           Ni  tau(  57) = (   0.0017035   1.0290340   1.5213760  )
        58           Ni  tau(  58) = (   0.2474179   0.4910684   1.5250240  )
        59           P   tau(  59) = (   0.2112199   0.9236045   1.6823438  )
        60           P   tau(  60) = (   0.4591813   0.5957823   1.3658078  )
        61           P   tau(  61) = (   0.2917127   0.0548729   1.3629876  )
        62           P   tau(  62) = (   0.0343831   0.3802729   1.6827085  )
        63           O   tau(  63) = (   0.1344982   0.8581762   1.5384087  )
        64           O   tau(  64) = (   0.3821749   0.6677915   1.5018960  )
        65           O   tau(  65) = (   0.3696684   0.1247784   1.4995401  )
        66           O   tau(  66) = (   0.1141586   0.3197959   1.5372841  )
        67           O   tau(  67) = (   0.1477250   0.8282157   1.7986512  )
        68           O   tau(  68) = (   0.3971844   0.6837803   1.2400827  )
        69           O   tau(  69) = (   0.3536769   0.1435761   1.2380891  )
        70           O   tau(  70) = (   0.0972401   0.2831089   1.7964957  )
        71           O   tau(  71) = (   0.0885696   0.5385964   1.6812115  )
        72           O   tau(  72) = (   0.3499269   0.9780557   1.3669542  )
        73           O   tau(  73) = (   0.3712541   0.3723768   1.6655885  )
        74           O   tau(  74) = (   0.1279370   0.0627700   1.3746559  )
        75           O   tau(  75) = (   0.1221086   0.6022924   1.3766974  )
        76           O   tau(  76) = (   0.4000629   0.4406261   1.3697735  )
        77           O   tau(  77) = (   0.1539963   1.0802196   1.6787776  )
        78           O   tau(  78) = (   0.3757257   0.9187392   1.6710614  )
        79           Ni  tau(  79) = (   0.7425939   0.8289547   0.1232563  )
        80           Ni  tau(  80) = (   0.9925939   0.7682479   0.4397296  )
        81           Ni  tau(  81) = (   0.5074061   0.2897028   0.1232563  )
        82           Ni  tau(  82) = (   0.7574061   0.2289960   0.4397296  )
        83           Ni  tau(  83) = (   0.5000000   1.0682273   0.2814930  )
        84           Ni  tau(  84) = (   0.7500000   0.5289753   0.2814930  )
        85           P   tau(  85) = (   0.7099015   0.9623143   0.4372472  )
        86           P   tau(  86) = (   0.9599015   0.6348883   0.1257387  )
        87           P   tau(  87) = (   0.7900985   0.0956364   0.1257387  )
        88           P   tau(  88) = (   0.5400985   0.4230624   0.4372472  )
        89           O   tau(  89) = (   0.6313289   0.8921807   0.3011581  )
        90           O   tau(  90) = (   0.8813289   0.7050219   0.2618278  )
        91           O   tau(  91) = (   0.8686711   0.1657700   0.2618278  )
        92           O   tau(  92) = (   0.6186711   0.3529288   0.3011581  )
        93           O   tau(  93) = (   0.6470808   0.8739426   0.5619197  )
        94           O   tau(  94) = (   0.8970808   0.7232600   0.0010662  )
        95           O   tau(  95) = (   0.8529192   0.1840081   0.0010662  )
        96           O   tau(  96) = (   0.6029192   0.3346907   0.5619197  )
        97           O   tau(  97) = (   0.5983097   0.5786104   0.4338456  )
        98           O   tau(  98) = (   0.8483097   1.0185922   0.1291403  )
        99           O   tau(  99) = (   0.8763566   0.4168410   0.4274499  )
       100           O   tau( 100) = (   0.6263566   0.1018578   0.1355360  )
       101           O   tau( 101) = (   0.6236434   0.6411097   0.1355360  )
       102           O   tau( 102) = (   0.9016903   0.4793403   0.1291403  )
       103           O   tau( 103) = (   0.6516903   0.0393585   0.4338456  )
       104           O   tau( 104) = (   0.8736434   0.9560929   0.4274499  )
       105           Ni  tau( 105) = (   0.7425939   0.8084016   0.7413658  )
       106           Ni  tau( 106) = (   0.9925939   0.7476948   1.0578391  )
       107           Ni  tau( 107) = (   0.5074061   0.2691497   0.7413658  )
       108           Ni  tau( 108) = (   0.7574061   0.2084429   1.0578391  )
       109           Ni  tau( 109) = (   0.5000000   1.0476741   0.8996025  )
       110           Ni  tau( 110) = (   0.7500000   0.5084222   0.8996025  )
       111           P   tau( 111) = (   0.7099015   0.9417612   1.0553567  )
       112           P   tau( 112) = (   0.9599015   0.6143352   0.7438483  )
       113           P   tau( 113) = (   0.7900985   0.0750833   0.7438483  )
       114           P   tau( 114) = (   0.5400985   0.4025093   1.0553567  )
       115           O   tau( 115) = (   0.6313289   0.8716276   0.9192676  )
       116           O   tau( 116) = (   0.8813289   0.6844688   0.8799374  )
       117           O   tau( 117) = (   0.8686711   0.1452169   0.8799374  )
       118           O   tau( 118) = (   0.6186711   0.3323757   0.9192676  )
       119           O   tau( 119) = (   0.6470808   0.8533895   1.1800292  )
       120           O   tau( 120) = (   0.8970808   0.7027069   0.6191758  )
       121           O   tau( 121) = (   0.8529192   0.1634550   0.6191758  )
       122           O   tau( 122) = (   0.6029192   0.3141376   1.1800292  )
       123           O   tau( 123) = (   0.5983097   0.5580573   1.0519551  )
       124           O   tau( 124) = (   0.8483097   0.9980391   0.7472498  )
       125           O   tau( 125) = (   0.8763566   0.3962879   1.0455594  )
       126           O   tau( 126) = (   0.6263566   0.0813047   0.7536455  )
       127           O   tau( 127) = (   0.6236434   0.6205566   0.7536455  )
       128           O   tau( 128) = (   0.9016903   0.4587872   0.7472498  )
       129           O   tau( 129) = (   0.6516903   0.0188054   1.0519551  )
       130           O   tau( 130) = (   0.8736434   0.9355398   1.0455594  )
       131           Ni  tau( 131) = (   0.7426462   0.7898639   1.3604014  )
       132           Ni  tau( 132) = (  -0.0002066   0.7318828   1.6641114  )
       133           Ni  tau( 133) = (   0.5077061   0.2501780   1.3613832  )
       134           Ni  tau( 134) = (   0.7465307   0.1894565   1.6642078  )
       135           Ni  tau( 135) = (   0.5021934   1.0264055   1.5228946  )
       136           Ni  tau( 136) = (   0.7455086   0.4886102   1.5220246  )
       137           P   tau( 137) = (   0.7116866   0.9161767   1.6766996  )
       138           P   tau( 138) = (   0.9583802   0.5938581   1.3632324  )
       139           P   tau( 139) = (   0.7914519   0.0546979   1.3621112  )
       140           P   tau( 140) = (   0.5357885   0.3763012   1.6821380  )
       141           O   tau( 141) = (   0.6346394   0.8568156   1.5335737  )
       142           O   tau( 142) = (   0.8794257   0.6646640   1.4988356  )
       143           O   tau( 143) = (   0.8695763   0.1251491   1.4988234  )
       144           O   tau( 144) = (   0.6152561   0.3146265   1.5364006  )
       145           O   tau( 145) = (   0.6515338   0.8192773   1.7930363  )
       146           O   tau( 146) = (   0.8970925   0.6818609   1.2376106  )
       147           O   tau( 147) = (   0.8535847   0.1440758   1.2378023  )
       148           O   tau( 148) = (   0.5952313   0.2763491   1.7954797  )
       149           O   tau( 149) = (   0.5957950   0.5319332   1.6778728  )
       150           O   tau( 150) = (   0.8513096   0.9784304   1.3652427  )
       151           O   tau( 151) = (   0.8698230   0.3735298   1.6681144  )
       152           O   tau( 152) = (   0.6278063   0.0613643   1.3739427  )
       153           O   tau( 153) = (   0.6230504   0.6013695   1.3747416  )
       154           O   tau( 154) = (   0.8997892   0.4387455   1.3673113  )
       155           O   tau( 155) = (   0.6572909   1.0746654   1.6784301  )
       156           O   tau( 156) = (   0.8772072   0.9129255   1.6662148  )
       157           O   tau( 157) = (   0.3752302   0.6425654   1.8273188  )
       158           H   tau( 158) = (   0.2897206   0.7019697   1.8491950  )

     number of k points=    10  Gaussian smearing, width (Ry)=  0.0100
                       cart. coord. in units 2pi/alat
        k(    1) = (   0.0000000   0.0000000   0.0000000), wk =   0.0625000
        k(    2) = (   0.0000000   0.2318026   0.0000000), wk =   0.1250000
        k(    3) = (   0.0000000  -0.4636052   0.0000000), wk =   0.0625000
        k(    4) = (   0.2500000   0.0000000   0.0000000), wk =   0.1250000
        k(    5) = (   0.2500000   0.2318026   0.0000000), wk =   0.1250000
        k(    6) = (   0.2500000  -0.4636052   0.0000000), wk =   0.1250000
        k(    7) = (   0.2500000  -0.2318026   0.0000000), wk =   0.1250000
        k(    8) = (  -0.5000000   0.0000000   0.0000000), wk =   0.0625000
        k(    9) = (  -0.5000000   0.2318026   0.0000000), wk =   0.1250000
        k(   10) = (  -0.5000000  -0.4636052   0.0000000), wk =   0.0625000

     Dense  grid:  3849851 G-vectors     FFT dimensions: ( 128, 144, 432)

     Smooth grid:   973915 G-vectors     FFT dimensions: (  80,  90, 288)

     Estimated max dynamical RAM per process >       2.95 GB

     Estimated total dynamical RAM >      59.02 GB
     Generating pointlists ...
     new r_m :   0.0798 (alat units)  1.4150 (a.u.) for type    1
     new r_m :   0.0669 (alat units)  1.1865 (a.u.) for type    2
     new r_m :   0.0439 (alat units)  0.7778 (a.u.) for type    3
     new r_m :   0.0439 (alat units)  0.7778 (a.u.) for type    4

     Initial potential from superposition of free atoms

     starting charge 1062.89078, renormalised to 1063.00000

     negative rho (up, down):  1.106E-03 4.583E-04
 
     Adding external electric field

     Computed dipole along edir(3) : 
        Dipole                1.6063 Ry au,          4.0828 Debye
        Dipole field          0.0010 Ry au, 
 
        Potential amp.       -0.1073 Ry
        Total length         54.1761 bohr
 
 
     Adding external electric field

     Computed dipole along edir(3) : 
        Dipole                1.6063 Ry au,          4.0828 Debye
        Dipole field          0.0010 Ry au, 
 
        Potential amp.       -0.1073 Ry
        Total length         54.1761 bohr
 
     Starting wfcs are  809 randomized atomic wfcs

     total cpu time spent up to now is      725.0 secs

     Self-consistent Calculation

     iteration #  1     ecut=    50.00 Ry     beta= 0.20
     Davidson diagonalization with overlap
     ethr =  1.00E-02,  avg # of iterations =  6.0

     negative rho (up, down):  4.089E-04 0.000E+00
 
     Adding external electric field

     Computed dipole along edir(3) : 
        Dipole             -127.8402 Ry au,       -324.9373 Debye
        Dipole field         -0.0788 Ry au, 
 
        Potential amp.        8.5359 Ry
        Total length         54.1761 bohr
 
 
     Adding external electric field

     Computed dipole along edir(3) : 
        Dipole             -127.8402 Ry au,       -324.9373 Debye
        Dipole field         -0.0788 Ry au, 
 
        Potential amp.        8.5359 Ry
        Total length         54.1761 bohr
 

     total cpu time spent up to now is     3732.5 secs

     total energy              =   -6643.88852376 Ry
     estimated scf accuracy    <     755.53560081 Ry

     total magnetization       =   213.00 Bohr mag/cell
     absolute magnetization    =   290.47 Bohr mag/cell

     iteration #  2     ecut=    50.00 Ry     beta= 0.20
     Davidson diagonalization with overlap
     c_bands:  2 eigenvalues not converged
     c_bands:  1 eigenvalues not converged
     c_bands:  1 eigenvalues not converged
     ethr =  1.00E-02,  avg # of iterations = 15.3

     negative rho (up, down):  2.139E-04 0.000E+00
 
     Adding external electric field

     Computed dipole along edir(3) : 
        Dipole              -24.8070 Ry au,        -63.0531 Debye
        Dipole field         -0.0153 Ry au, 
 
        Potential amp.        1.6564 Ry
        Total length         54.1761 bohr
 
 
     Adding external electric field

     Computed dipole along edir(3) : 
        Dipole              -24.8070 Ry au,        -63.0531 Debye
        Dipole field         -0.0153 Ry au, 
 
        Potential amp.        1.6564 Ry
        Total length         54.1761 bohr
 

     total cpu time spent up to now is    11052.9 secs

     total energy              =   -6047.07764341 Ry
     estimated scf accuracy    <  181328.55028982 Ry

     total magnetization       =   126.12 Bohr mag/cell
     absolute magnetization    =   127.73 Bohr mag/cell

     iteration #  3     ecut=    50.00 Ry     beta= 0.20
     Davidson diagonalization with overlap
     ethr =  1.00E-02,  avg # of iterations = 12.9

     negative rho (up, down):  1.280E-04 0.000E+00
 
     Adding external electric field

     Computed dipole along edir(3) : 
        Dipole              -14.9877 Ry au,        -38.0949 Debye
        Dipole field         -0.0092 Ry au, 
 
        Potential amp.        1.0007 Ry
        Total length         54.1761 bohr
 
 
     Adding external electric field

     Computed dipole along edir(3) : 
        Dipole              -14.9877 Ry au,        -38.0949 Debye
        Dipole field         -0.0092 Ry au, 
 
        Potential amp.        1.0007 Ry
        Total length         54.1761 bohr
 

     total cpu time spent up to now is    18241.2 secs

     total energy              =   -6672.64353397 Ry
     estimated scf accuracy    <   17814.07445325 Ry

     total magnetization       =   155.35 Bohr mag/cell
     absolute magnetization    =   162.66 Bohr mag/cell

     iteration #  4     ecut=    50.00 Ry     beta= 0.20
     Davidson diagonalization with overlap
     ethr =  1.00E-02,  avg # of iterations = 12.6

     negative rho (up, down):  4.449E-05 0.000E+00
 
     Adding external electric field

     Computed dipole along edir(3) : 
        Dipole               -8.9879 Ry au,        -22.8449 Debye
        Dipole field         -0.0055 Ry au, 
 
        Potential amp.        0.6001 Ry
        Total length         54.1761 bohr
 
 
     Adding external electric field

     Computed dipole along edir(3) : 
        Dipole               -8.9879 Ry au,        -22.8449 Debye
        Dipole field         -0.0055 Ry au, 
 
        Potential amp.        0.6001 Ry
        Total length         54.1761 bohr
 

     total cpu time spent up to now is    23057.4 secs

     total energy              =   -6935.12023842 Ry
     estimated scf accuracy    <     558.97411672 Ry

     total magnetization       =   201.64 Bohr mag/cell
     absolute magnetization    =   219.56 Bohr mag/cell

     iteration #  5     ecut=    50.00 Ry     beta= 0.20
     Davidson diagonalization with overlap
     ethr =  1.00E-02,  avg # of iterations =  6.3

     negative rho (up, down):  4.418E-05 0.000E+00
 
     Adding external electric field

     Computed dipole along edir(3) : 
        Dipole              -12.0903 Ry au,        -30.7305 Debye
        Dipole field         -0.0075 Ry au, 
 
        Potential amp.        0.8073 Ry
        Total length         54.1761 bohr
 
 
     Adding external electric field

     Computed dipole along edir(3) : 
        Dipole              -12.0903 Ry au,        -30.7305 Debye
        Dipole field         -0.0075 Ry au, 
 
        Potential amp.        0.8073 Ry
        Total length         54.1761 bohr
 

     total cpu time spent up to now is    25117.7 secs

     total energy              =   -6962.74184078 Ry
     estimated scf accuracy    <     770.68775032 Ry

     total magnetization       =   140.57 Bohr mag/cell
     absolute magnetization    =   174.08 Bohr mag/cell

     iteration #  6     ecut=    50.00 Ry     beta= 0.20
     Davidson diagonalization with overlap
     ethr =  1.00E-02,  avg # of iterations =  1.9

     negative rho (up, down):  4.894E-05 0.000E+00
 
     Adding external electric field

     Computed dipole along edir(3) : 
        Dipole              -10.9433 Ry au,        -27.8150 Debye
        Dipole field         -0.0067 Ry au, 
 
        Potential amp.        0.7307 Ry
        Total length         54.1761 bohr
 
 
     Adding external electric field

     Computed dipole along edir(3) : 
        Dipole              -10.9433 Ry au,        -27.8150 Debye
        Dipole field         -0.0067 Ry au, 
 
        Potential amp.        0.7307 Ry
        Total length         54.1761 bohr
 

     total cpu time spent up to now is    26706.8 secs

     total energy              =   -6975.04121173 Ry
     estimated scf accuracy    <     218.30451413 Ry

     total magnetization       =   121.58 Bohr mag/cell
     absolute magnetization    =   157.51 Bohr mag/cell

     iteration #  7     ecut=    50.00 Ry     beta= 0.20
     Davidson diagonalization with overlap
     ethr =  1.00E-02,  avg # of iterations =  1.6

     negative rho (up, down):  6.162E-05 0.000E+00
 
     Adding external electric field

     Computed dipole along edir(3) : 
        Dipole               -9.9643 Ry au,        -25.3268 Debye
        Dipole field         -0.0061 Ry au, 
 
        Potential amp.        0.6653 Ry
        Total length         54.1761 bohr
 
 
     Adding external electric field

     Computed dipole along edir(3) : 
        Dipole               -9.9643 Ry au,        -25.3268 Debye
        Dipole field         -0.0061 Ry au, 
 
        Potential amp.        0.6653 Ry
        Total length         54.1761 bohr
 

     total cpu time spent up to now is    28287.4 secs

     total energy              =   -6986.21666469 Ry
     estimated scf accuracy    <     107.63877726 Ry

     total magnetization       =   100.13 Bohr mag/cell
     absolute magnetization    =   143.31 Bohr mag/cell

     iteration #  8     ecut=    50.00 Ry     beta= 0.20
     Davidson diagonalization with overlap
     ethr =  1.00E-02,  avg # of iterations =  1.5

     negative rho (up, down):  9.002E-05 0.000E+00
 
     Adding external electric field

     Computed dipole along edir(3) : 
        Dipole               -8.3378 Ry au,        -21.1926 Debye
        Dipole field         -0.0051 Ry au, 
 
        Potential amp.        0.5567 Ry
        Total length         54.1761 bohr
 
 
     Adding external electric field

     Computed dipole along edir(3) : 
        Dipole               -8.3378 Ry au,        -21.1926 Debye
        Dipole field         -0.0051 Ry au, 
 
        Potential amp.        0.5567 Ry
        Total length         54.1761 bohr
 

     total cpu time spent up to now is    29856.1 secs

     total energy              =   -7000.20060344 Ry
     estimated scf accuracy    <     114.65216262 Ry

     total magnetization       =    92.12 Bohr mag/cell
     absolute magnetization    =   136.67 Bohr mag/cell

     iteration #  9     ecut=    50.00 Ry     beta= 0.20
     Davidson diagonalization with overlap
     ethr =  1.00E-02,  avg # of iterations =  1.5

     negative rho (up, down):  1.431E-04 0.000E+00
 
     Adding external electric field

     Computed dipole along edir(3) : 
        Dipole               -5.0368 Ry au,        -12.8022 Debye
        Dipole field         -0.0031 Ry au, 
 
        Potential amp.        0.3363 Ry
        Total length         54.1761 bohr
 
 
     Adding external electric field

     Computed dipole along edir(3) : 
        Dipole               -5.0368 Ry au,        -12.8022 Debye
        Dipole field         -0.0031 Ry au, 
 
        Potential amp.        0.3363 Ry
        Total length         54.1761 bohr
 

     total cpu time spent up to now is    31419.6 secs

     total energy              =   -7022.27681454 Ry
     estimated scf accuracy    <      79.05067531 Ry

     total magnetization       =    84.69 Bohr mag/cell
     absolute magnetization    =   128.29 Bohr mag/cell

     iteration # 10     ecut=    50.00 Ry     beta= 0.20
     Davidson diagonalization with overlap
     ethr =  7.44E-03,  avg # of iterations =  1.2

     negative rho (up, down):  2.828E-04 0.000E+00
 
     Adding external electric field

     Computed dipole along edir(3) : 
        Dipole               -1.8360 Ry au,         -4.6667 Debye
        Dipole field         -0.0011 Ry au, 
 
        Potential amp.        0.1226 Ry
        Total length         54.1761 bohr
 
 
     Adding external electric field

     Computed dipole along edir(3) : 
        Dipole               -1.8360 Ry au,         -4.6667 Debye
        Dipole field         -0.0011 Ry au, 
 
        Potential amp.        0.1226 Ry
        Total length         54.1761 bohr
 

     total cpu time spent up to now is    32933.2 secs

     total energy              =   -7043.43266510 Ry
     estimated scf accuracy    <     186.02274138 Ry

     total magnetization       =    79.06 Bohr mag/cell
     absolute magnetization    =   117.41 Bohr mag/cell

     iteration # 11     ecut=    50.00 Ry     beta= 0.20
     Davidson diagonalization with overlap
     ethr =  7.44E-03,  avg # of iterations =  1.0

     negative rho (up, down):  3.064E-04 0.000E+00
 
     Adding external electric field

     Computed dipole along edir(3) : 
        Dipole               -4.3513 Ry au,        -11.0598 Debye
        Dipole field         -0.0027 Ry au, 
 
        Potential amp.        0.2905 Ry
        Total length         54.1761 bohr
 
 
     Adding external electric field

     Computed dipole along edir(3) : 
        Dipole               -4.3513 Ry au,        -11.0598 Debye
        Dipole field         -0.0027 Ry au, 
 
        Potential amp.        0.2905 Ry
        Total length         54.1761 bohr
 

     total cpu time spent up to now is    34410.3 secs

     total energy              =   -7047.69353569 Ry
     estimated scf accuracy    <     203.25954828 Ry

     total magnetization       =    63.46 Bohr mag/cell
     absolute magnetization    =    93.20 Bohr mag/cell

     iteration # 12     ecut=    50.00 Ry     beta= 0.20
     Davidson diagonalization with overlap
     ethr =  7.44E-03,  avg # of iterations =  1.0

     negative rho (up, down):  3.736E-04 0.000E+00
 
     Adding external electric field

     Computed dipole along edir(3) : 
        Dipole               -1.7102 Ry au,         -4.3469 Debye
        Dipole field         -0.0011 Ry au, 
 
        Potential amp.        0.1142 Ry
        Total length         54.1761 bohr
 
 
     Adding external electric field

     Computed dipole along edir(3) : 
        Dipole               -1.7102 Ry au,         -4.3469 Debye
        Dipole field         -0.0011 Ry au, 
 
        Potential amp.        0.1142 Ry
        Total length         54.1761 bohr
 

     total cpu time spent up to now is    35902.3 secs

     total energy              =   -7049.62883486 Ry
     estimated scf accuracy    <     180.57271291 Ry

     total magnetization       =    73.41 Bohr mag/cell
     absolute magnetization    =    98.05 Bohr mag/cell

     iteration # 13     ecut=    50.00 Ry     beta= 0.20
     Davidson diagonalization with overlap
     ethr =  7.44E-03,  avg # of iterations =  1.0

     negative rho (up, down):  4.294E-04 0.000E+00
 
     Adding external electric field

     Computed dipole along edir(3) : 
        Dipole               -2.1180 Ry au,         -5.3833 Debye
        Dipole field         -0.0013 Ry au, 
 
        Potential amp.        0.1414 Ry
        Total length         54.1761 bohr
 
 
     Adding external electric field

     Computed dipole along edir(3) : 
        Dipole               -2.1180 Ry au,         -5.3833 Debye
        Dipole field         -0.0013 Ry au, 
 
        Potential amp.        0.1414 Ry
        Total length         54.1761 bohr
 

     total cpu time spent up to now is    37403.2 secs

     total energy              =   -7052.65683944 Ry
     estimated scf accuracy    <     260.51657733 Ry

     total magnetization       =    73.03 Bohr mag/cell
     absolute magnetization    =    96.01 Bohr mag/cell

     iteration # 14     ecut=    50.00 Ry     beta= 0.20
     Davidson diagonalization with overlap
     ethr =  7.44E-03,  avg # of iterations =  1.0

     negative rho (up, down):  4.628E-04 0.000E+00
 
     Adding external electric field

     Computed dipole along edir(3) : 
        Dipole               -0.3846 Ry au,         -0.9776 Debye
        Dipole field         -0.0002 Ry au, 
 
        Potential amp.        0.0257 Ry
        Total length         54.1761 bohr
 
 
     Adding external electric field

     Computed dipole along edir(3) : 
        Dipole               -0.3846 Ry au,         -0.9776 Debye
        Dipole field         -0.0002 Ry au, 
 
        Potential amp.        0.0257 Ry
        Total length         54.1761 bohr
 

     total cpu time spent up to now is    38926.2 secs

     total energy              =   -7055.25658629 Ry
     estimated scf accuracy    <      45.48184421 Ry

     total magnetization       =    72.99 Bohr mag/cell
     absolute magnetization    =    90.67 Bohr mag/cell

     iteration # 15     ecut=    50.00 Ry     beta= 0.20
     Davidson diagonalization with overlap
     ethr =  4.28E-03,  avg # of iterations =  1.0

     negative rho (up, down):  4.652E-04 0.000E+00
 
     Adding external electric field

     Computed dipole along edir(3) : 
        Dipole               -1.9912 Ry au,         -5.0610 Debye
        Dipole field         -0.0012 Ry au, 
 
        Potential amp.        0.1329 Ry
        Total length         54.1761 bohr
 
 
     Adding external electric field

     Computed dipole along edir(3) : 
        Dipole               -1.9912 Ry au,         -5.0610 Debye
        Dipole field         -0.0012 Ry au, 
 
        Potential amp.        0.1329 Ry
        Total length         54.1761 bohr
 

     total cpu time spent up to now is    40432.0 secs

     total energy              =   -7055.27700752 Ry
     estimated scf accuracy    <      36.03455222 Ry

     total magnetization       =    72.97 Bohr mag/cell
     absolute magnetization    =    88.45 Bohr mag/cell

     iteration # 16     ecut=    50.00 Ry     beta= 0.20
     Davidson diagonalization with overlap
     ethr =  3.39E-03,  avg # of iterations =  1.0

     negative rho (up, down):  4.924E-04 0.000E+00
 
     Adding external electric field

     Computed dipole along edir(3) : 
        Dipole                0.7315 Ry au,          1.8593 Debye
        Dipole field          0.0005 Ry au, 
 
        Potential amp.       -0.0488 Ry
        Total length         54.1761 bohr
 
 
     Adding external electric field

     Computed dipole along edir(3) : 
        Dipole                0.7315 Ry au,          1.8593 Debye
        Dipole field          0.0005 Ry au, 
 
        Potential amp.       -0.0488 Ry
        Total length         54.1761 bohr
 

     total cpu time spent up to now is    41944.1 secs

     total energy              =   -7053.59997313 Ry
     estimated scf accuracy    <     157.08207669 Ry

     total magnetization       =    67.58 Bohr mag/cell
     absolute magnetization    =    83.27 Bohr mag/cell

     iteration # 17     ecut=    50.00 Ry     beta= 0.20
     Davidson diagonalization with overlap
     ethr =  3.39E-03,  avg # of iterations =  1.3

     negative rho (up, down):  5.335E-04 0.000E+00
 
     Adding external electric field

     Computed dipole along edir(3) : 
        Dipole               -0.1992 Ry au,         -0.5064 Debye
        Dipole field         -0.0001 Ry au, 
 
        Potential amp.        0.0133 Ry
        Total length         54.1761 bohr
 
 
     Adding external electric field

     Computed dipole along edir(3) : 
        Dipole               -0.1992 Ry au,         -0.5064 Debye
        Dipole field         -0.0001 Ry au, 
 
        Potential amp.        0.0133 Ry
        Total length         54.1761 bohr
 

     total cpu time spent up to now is    43509.7 secs

     total energy              =   -7054.56663044 Ry
     estimated scf accuracy    <      73.61961281 Ry

     total magnetization       =    69.10 Bohr mag/cell
     absolute magnetization    =    83.20 Bohr mag/cell

     iteration # 18     ecut=    50.00 Ry     beta= 0.20
     Davidson diagonalization with overlap
     ethr =  3.39E-03,  avg # of iterations =  1.1

     negative rho (up, down):  5.859E-04 0.000E+00
 
     Adding external electric field

     Computed dipole along edir(3) : 
        Dipole                0.3391 Ry au,          0.8620 Debye
        Dipole field          0.0002 Ry au, 
 
        Potential amp.       -0.0226 Ry
        Total length         54.1761 bohr
 
 
     Adding external electric field

     Computed dipole along edir(3) : 
        Dipole                0.3391 Ry au,          0.8620 Debye
        Dipole field          0.0002 Ry au, 
 
        Potential amp.       -0.0226 Ry
        Total length         54.1761 bohr
 

     total cpu time spent up to now is    45008.0 secs

     total energy              =   -7055.82227478 Ry
     estimated scf accuracy    <      63.54438601 Ry

     total magnetization       =    67.90 Bohr mag/cell
     absolute magnetization    =    80.32 Bohr mag/cell

     iteration # 19     ecut=    50.00 Ry     beta= 0.20
     Davidson diagonalization with overlap
     ethr =  3.39E-03,  avg # of iterations =  1.0

     negative rho (up, down):  5.503E-04 0.000E+00
 
     Adding external electric field

     Computed dipole along edir(3) : 
        Dipole                0.2760 Ry au,          0.7015 Debye
        Dipole field          0.0002 Ry au, 
 
        Potential amp.       -0.0184 Ry
        Total length         54.1761 bohr
 
 
     Adding external electric field

     Computed dipole along edir(3) : 
        Dipole                0.2760 Ry au,          0.7015 Debye
        Dipole field          0.0002 Ry au, 
 
        Potential amp.       -0.0184 Ry
        Total length         54.1761 bohr
 

     total cpu time spent up to now is    46514.8 secs

     total energy              =   -7057.10557215 Ry
     estimated scf accuracy    <       8.06165439 Ry

     total magnetization       =    72.92 Bohr mag/cell
     absolute magnetization    =    82.55 Bohr mag/cell

     iteration # 20     ecut=    50.00 Ry     beta= 0.20
     Davidson diagonalization with overlap
     ethr =  7.58E-04,  avg # of iterations =  1.4

     negative rho (up, down):  5.503E-04 0.000E+00
 
     Adding external electric field

     Computed dipole along edir(3) : 
        Dipole               -0.3519 Ry au,         -0.8945 Debye
        Dipole field         -0.0002 Ry au, 
 
        Potential amp.        0.0235 Ry
        Total length         54.1761 bohr
 
 
     Adding external electric field

     Computed dipole along edir(3) : 
        Dipole               -0.3519 Ry au,         -0.8945 Debye
        Dipole field         -0.0002 Ry au, 
 
        Potential amp.        0.0235 Ry
        Total length         54.1761 bohr
 

     total cpu time spent up to now is    48077.4 secs

     total energy              =   -7057.31455547 Ry
     estimated scf accuracy    <       4.90869942 Ry

     total magnetization       =    73.00 Bohr mag/cell
     absolute magnetization    =    82.30 Bohr mag/cell

     iteration # 21     ecut=    50.00 Ry     beta= 0.20
     Davidson diagonalization with overlap
     ethr =  4.62E-04,  avg # of iterations =  2.0

     negative rho (up, down):  5.782E-04 0.000E+00
 
     Adding external electric field

     Computed dipole along edir(3) : 
        Dipole                0.1428 Ry au,          0.3630 Debye
        Dipole field          0.0001 Ry au, 
 
        Potential amp.       -0.0095 Ry
        Total length         54.1761 bohr
 
 
     Adding external electric field

     Computed dipole along edir(3) : 
        Dipole                0.1428 Ry au,          0.3630 Debye
        Dipole field          0.0001 Ry au, 
 
        Potential amp.       -0.0095 Ry
        Total length         54.1761 bohr
 

     total cpu time spent up to now is    49706.6 secs

     total energy              =   -7057.41799436 Ry
     estimated scf accuracy    <       6.58792500 Ry

     total magnetization       =    72.96 Bohr mag/cell
     absolute magnetization    =    81.51 Bohr mag/cell

     iteration # 22     ecut=    50.00 Ry     beta= 0.20
     Davidson diagonalization with overlap
     ethr =  4.62E-04,  avg # of iterations =  1.3

     negative rho (up, down):  5.761E-04 0.000E+00
 
     Adding external electric field

     Computed dipole along edir(3) : 
        Dipole               -0.5143 Ry au,         -1.3072 Debye
        Dipole field         -0.0003 Ry au, 
 
        Potential amp.        0.0343 Ry
        Total length         54.1761 bohr
 
 
     Adding external electric field

     Computed dipole along edir(3) : 
        Dipole               -0.5143 Ry au,         -1.3072 Debye
        Dipole field         -0.0003 Ry au, 
 
        Potential amp.        0.0343 Ry
        Total length         54.1761 bohr
 

     total cpu time spent up to now is    51239.7 secs

     total energy              =   -7057.60574051 Ry
     estimated scf accuracy    <       1.85372176 Ry

     total magnetization       =    72.42 Bohr mag/cell
     absolute magnetization    =    79.95 Bohr mag/cell

     iteration # 23     ecut=    50.00 Ry     beta= 0.20
     Davidson diagonalization with overlap
     ethr =  1.74E-04,  avg # of iterations =  2.4

     negative rho (up, down):  5.779E-04 0.000E+00
 
     Adding external electric field

     Computed dipole along edir(3) : 
        Dipole                0.1984 Ry au,          0.5043 Debye
        Dipole field          0.0001 Ry au, 
 
        Potential amp.       -0.0132 Ry
        Total length         54.1761 bohr
 
 
     Adding external electric field

     Computed dipole along edir(3) : 
        Dipole                0.1984 Ry au,          0.5043 Debye
        Dipole field          0.0001 Ry au, 
 
        Potential amp.       -0.0132 Ry
        Total length         54.1761 bohr
 

     total cpu time spent up to now is    52839.5 secs

     total energy              =   -7057.58509667 Ry
     estimated scf accuracy    <       3.71495885 Ry

     total magnetization       =    72.28 Bohr mag/cell
     absolute magnetization    =    79.38 Bohr mag/cell

     iteration # 24     ecut=    50.00 Ry     beta= 0.20
     Davidson diagonalization with overlap
     ethr =  1.74E-04,  avg # of iterations =  3.1

     negative rho (up, down):  5.716E-04 0.000E+00
 
     Adding external electric field

     Computed dipole along edir(3) : 
        Dipole               -0.1788 Ry au,         -0.4544 Debye
        Dipole field         -0.0001 Ry au, 
 
        Potential amp.        0.0119 Ry
        Total length         54.1761 bohr
 
 
     Adding external electric field

     Computed dipole along edir(3) : 
        Dipole               -0.1788 Ry au,         -0.4544 Debye
        Dipole field         -0.0001 Ry au, 
 
        Potential amp.        0.0119 Ry
        Total length         54.1761 bohr
 

     total cpu time spent up to now is    54388.6 secs

     total energy              =   -7057.67976998 Ry
     estimated scf accuracy    <       1.48127453 Ry

     total magnetization       =    72.99 Bohr mag/cell
     absolute magnetization    =    79.81 Bohr mag/cell

     iteration # 25     ecut=    50.00 Ry     beta= 0.20
     Davidson diagonalization with overlap
     ethr =  1.39E-04,  avg # of iterations =  2.7

     negative rho (up, down):  5.808E-04 0.000E+00
 
     Adding external electric field

     Computed dipole along edir(3) : 
        Dipole                0.1074 Ry au,          0.2731 Debye
        Dipole field          0.0001 Ry au, 
 
        Potential amp.       -0.0072 Ry
        Total length         54.1761 bohr
 
 
     Adding external electric field

     Computed dipole along edir(3) : 
        Dipole                0.1074 Ry au,          0.2731 Debye
        Dipole field          0.0001 Ry au, 
 
        Potential amp.       -0.0072 Ry
        Total length         54.1761 bohr
 

     total cpu time spent up to now is    55989.5 secs

     total energy              =   -7057.79324059 Ry
     estimated scf accuracy    <       0.38508710 Ry

     total magnetization       =    72.98 Bohr mag/cell
     absolute magnetization    =    79.58 Bohr mag/cell

     iteration # 26     ecut=    50.00 Ry     beta= 0.20
     Davidson diagonalization with overlap
     ethr =  3.62E-05,  avg # of iterations = 16.2

     negative rho (up, down):  6.159E-04 0.000E+00
 
     Adding external electric field

     Computed dipole along edir(3) : 
        Dipole                0.2304 Ry au,          0.5857 Debye
        Dipole field          0.0001 Ry au, 
 
        Potential amp.       -0.0154 Ry
        Total length         54.1761 bohr
 
 
     Adding external electric field

     Computed dipole along edir(3) : 
        Dipole                0.2304 Ry au,          0.5857 Debye
        Dipole field          0.0001 Ry au, 
 
        Potential amp.       -0.0154 Ry
        Total length         54.1761 bohr
 

     total cpu time spent up to now is    58678.7 secs

     total energy              =   -7057.89399325 Ry
     estimated scf accuracy    <       0.21288433 Ry

     total magnetization       =    72.96 Bohr mag/cell
     absolute magnetization    =    78.81 Bohr mag/cell

     iteration # 27     ecut=    50.00 Ry     beta= 0.20
     Davidson diagonalization with overlap
     ethr =  2.00E-05,  avg # of iterations =  1.8

     negative rho (up, down):  6.639E-04 5.041E-07
 
     Adding external electric field

     Computed dipole along edir(3) : 
        Dipole                0.0432 Ry au,          0.1099 Debye
        Dipole field          0.0000 Ry au, 
 
        Potential amp.       -0.0029 Ry
        Total length         54.1761 bohr
 
 
     Adding external electric field

     Computed dipole along edir(3) : 
        Dipole                0.0432 Ry au,          0.1099 Debye
        Dipole field          0.0000 Ry au, 
 
        Potential amp.       -0.0029 Ry
        Total length         54.1761 bohr
 

     total cpu time spent up to now is    60263.4 secs

     total energy              =   -7057.92618769 Ry
     estimated scf accuracy    <       0.25149024 Ry

     total magnetization       =    72.66 Bohr mag/cell
     absolute magnetization    =    77.05 Bohr mag/cell

     iteration # 28     ecut=    50.00 Ry     beta= 0.20
     Davidson diagonalization with overlap
     c_bands:  3 eigenvalues not converged
     c_bands:  1 eigenvalues not converged
     ethr =  2.00E-05,  avg # of iterations =  5.5

     negative rho (up, down):  8.545E-04 9.602E-04
 
     Adding external electric field

     Computed dipole along edir(3) : 
        Dipole               -0.0307 Ry au,         -0.0779 Debye
        Dipole field         -0.0000 Ry au, 
 
        Potential amp.        0.0020 Ry
        Total length         54.1761 bohr
 
 
     Adding external electric field

     Computed dipole along edir(3) : 
        Dipole               -0.0307 Ry au,         -0.0779 Debye
        Dipole field         -0.0000 Ry au, 
 
        Potential amp.        0.0020 Ry
        Total length         54.1761 bohr
 

     total cpu time spent up to now is    61854.4 secs

     total energy              =   -7057.95273676 Ry
     estimated scf accuracy    <       0.08202107 Ry

     total magnetization       =    72.83 Bohr mag/cell
     absolute magnetization    =    76.44 Bohr mag/cell

     iteration # 29     ecut=    50.00 Ry     beta= 0.20
     Davidson diagonalization with overlap
     c_bands:  5 eigenvalues not converged
     c_bands:  3 eigenvalues not converged
     c_bands:  3 eigenvalues not converged
     c_bands:  2 eigenvalues not converged
     c_bands:  4 eigenvalues not converged
     ethr =  7.72E-06,  avg # of iterations = 10.8

     negative rho (up, down):  1.117E-03 4.843E-03
 
     Adding external electric field

     Computed dipole along edir(3) : 
        Dipole                0.0762 Ry au,          0.1937 Debye
        Dipole field          0.0000 Ry au, 
 
        Potential amp.       -0.0051 Ry
        Total length         54.1761 bohr
 
 
     Adding external electric field

     Computed dipole along edir(3) : 
        Dipole                0.0762 Ry au,          0.1937 Debye
        Dipole field          0.0000 Ry au, 
 
        Potential amp.       -0.0051 Ry
        Total length         54.1761 bohr
 

     total cpu time spent up to now is    64069.3 secs

     total energy              =   -7057.96545289 Ry
     estimated scf accuracy    <       0.03402404 Ry

     total magnetization       =    72.60 Bohr mag/cell
     absolute magnetization    =    75.52 Bohr mag/cell

     iteration # 30     ecut=    50.00 Ry     beta= 0.20
     Davidson diagonalization with overlap
     c_bands:  2 eigenvalues not converged
     c_bands:  1 eigenvalues not converged
     c_bands:  1 eigenvalues not converged
     ethr =  3.20E-06,  avg # of iterations =  7.1

     negative rho (up, down):  1.200E-03 5.949E-03
 
     Adding external electric field

     Computed dipole along edir(3) : 
        Dipole                0.0213 Ry au,          0.0541 Debye
        Dipole field          0.0000 Ry au, 
 
        Potential amp.       -0.0014 Ry
        Total length         54.1761 bohr
 
 
     Adding external electric field

     Computed dipole along edir(3) : 
        Dipole                0.0213 Ry au,          0.0541 Debye
        Dipole field          0.0000 Ry au, 
 
        Potential amp.       -0.0014 Ry
        Total length         54.1761 bohr
 

     total cpu time spent up to now is    65873.8 secs

     total energy              =   -7057.97082518 Ry
     estimated scf accuracy    <       0.01535307 Ry

     total magnetization       =    72.73 Bohr mag/cell
     absolute magnetization    =    75.17 Bohr mag/cell

     iteration # 31     ecut=    50.00 Ry     beta= 0.20
     Davidson diagonalization with overlap
     c_bands:  1 eigenvalues not converged
     c_bands:  3 eigenvalues not converged
     c_bands:  2 eigenvalues not converged
     c_bands:  1 eigenvalues not converged
     ethr =  1.44E-06,  avg # of iterations = 15.1

     negative rho (up, down):  1.090E-03 4.390E-03
 
     Adding external electric field

     Computed dipole along edir(3) : 
        Dipole                0.0239 Ry au,          0.0607 Debye
        Dipole field          0.0000 Ry au, 
 
        Potential amp.       -0.0016 Ry
        Total length         54.1761 bohr
 
 
     Adding external electric field

     Computed dipole along edir(3) : 
        Dipole                0.0239 Ry au,          0.0607 Debye
        Dipole field          0.0000 Ry au, 
 
        Potential amp.       -0.0016 Ry
        Total length         54.1761 bohr
 

     total cpu time spent up to now is    68443.0 secs

     total energy              =   -7057.97323544 Ry
     estimated scf accuracy    <       0.00563838 Ry

     total magnetization       =    72.58 Bohr mag/cell
     absolute magnetization    =    74.78 Bohr mag/cell

     iteration # 32     ecut=    50.00 Ry     beta= 0.20
     Davidson diagonalization with overlap
     c_bands:  2 eigenvalues not converged
     c_bands:  1 eigenvalues not converged
     c_bands:  5 eigenvalues not converged
     ethr =  5.30E-07,  avg # of iterations =  5.7

     negative rho (up, down):  1.074E-03 4.140E-03
 
     Adding external electric field

     Computed dipole along edir(3) : 
        Dipole                0.0011 Ry au,          0.0028 Debye
        Dipole field          0.0000 Ry au, 
 
        Potential amp.       -0.0001 Ry
        Total length         54.1761 bohr
 
 
     Adding external electric field

     Computed dipole along edir(3) : 
        Dipole                0.0011 Ry au,          0.0028 Debye
        Dipole field          0.0000 Ry au, 
 
        Potential amp.       -0.0001 Ry
        Total length         54.1761 bohr
 

     total cpu time spent up to now is    70334.8 secs

     total energy              =   -7057.97447650 Ry
     estimated scf accuracy    <       0.00236874 Ry

     total magnetization       =    72.69 Bohr mag/cell
     absolute magnetization    =    74.74 Bohr mag/cell

     iteration # 33     ecut=    50.00 Ry     beta= 0.20
     Davidson diagonalization with overlap
     c_bands:  2 eigenvalues not converged
     c_bands:  1 eigenvalues not converged
     c_bands:  3 eigenvalues not converged
     ethr =  2.23E-07,  avg # of iterations =  4.8

     negative rho (up, down):  9.873E-04 2.856E-03
 
     Adding external electric field

     Computed dipole along edir(3) : 
        Dipole                0.0178 Ry au,          0.0451 Debye
        Dipole field          0.0000 Ry au, 
 
        Potential amp.       -0.0012 Ry
        Total length         54.1761 bohr
 
 
     Adding external electric field

     Computed dipole along edir(3) : 
        Dipole                0.0178 Ry au,          0.0451 Debye
        Dipole field          0.0000 Ry au, 
 
        Potential amp.       -0.0012 Ry
        Total length         54.1761 bohr
 

     total cpu time spent up to now is    72160.5 secs

     total energy              =   -7057.97502855 Ry
     estimated scf accuracy    <       0.00122520 Ry

     total magnetization       =    72.57 Bohr mag/cell
     absolute magnetization    =    74.48 Bohr mag/cell

     iteration # 34     ecut=    50.00 Ry     beta= 0.20
     Davidson diagonalization with overlap
     ethr =  1.15E-07,  avg # of iterations =  2.4

     negative rho (up, down):  9.059E-04 1.589E-03
 
     Adding external electric field

     Computed dipole along edir(3) : 
        Dipole               -0.0089 Ry au,         -0.0226 Debye
        Dipole field         -0.0000 Ry au, 
 
        Potential amp.        0.0006 Ry
        Total length         54.1761 bohr
 
 
     Adding external electric field

     Computed dipole along edir(3) : 
        Dipole               -0.0089 Ry au,         -0.0226 Debye
        Dipole field         -0.0000 Ry au, 
 
        Potential amp.        0.0006 Ry
        Total length         54.1761 bohr
 

     total cpu time spent up to now is    73803.4 secs

     total energy              =   -7057.97559478 Ry
     estimated scf accuracy    <       0.00076136 Ry

     total magnetization       =    72.64 Bohr mag/cell
     absolute magnetization    =    74.53 Bohr mag/cell

     iteration # 35     ecut=    50.00 Ry     beta= 0.20
     Davidson diagonalization with overlap
     c_bands:  4 eigenvalues not converged
     ethr =  7.16E-08,  avg # of iterations =  2.9

     negative rho (up, down):  8.569E-04 8.938E-04
 
     Adding external electric field

     Computed dipole along edir(3) : 
        Dipole                0.0061 Ry au,          0.0155 Debye
        Dipole field          0.0000 Ry au, 
 
        Potential amp.       -0.0004 Ry
        Total length         54.1761 bohr
 
 
     Adding external electric field

     Computed dipole along edir(3) : 
        Dipole                0.0061 Ry au,          0.0155 Debye
        Dipole field          0.0000 Ry au, 
 
        Potential amp.       -0.0004 Ry
        Total length         54.1761 bohr
 

     total cpu time spent up to now is    75596.6 secs

     total energy              =   -7057.97581726 Ry
     estimated scf accuracy    <       0.00074649 Ry

     total magnetization       =    72.65 Bohr mag/cell
     absolute magnetization    =    74.46 Bohr mag/cell

     iteration # 36     ecut=    50.00 Ry     beta= 0.20
     Davidson diagonalization with overlap
     ethr =  7.02E-08,  avg # of iterations =  1.6

     negative rho (up, down):  8.327E-04 6.052E-04
 
     Adding external electric field

     Computed dipole along edir(3) : 
        Dipole               -0.0045 Ry au,         -0.0114 Debye
        Dipole field         -0.0000 Ry au, 
 
        Potential amp.        0.0003 Ry
        Total length         54.1761 bohr
 
 
     Adding external electric field

     Computed dipole along edir(3) : 
        Dipole               -0.0045 Ry au,         -0.0114 Debye
        Dipole field         -0.0000 Ry au, 
 
        Potential amp.        0.0003 Ry
        Total length         54.1761 bohr
 

     total cpu time spent up to now is    77178.1 secs

     total energy              =   -7057.97592970 Ry
     estimated scf accuracy    <       0.00019910 Ry

     total magnetization       =    72.64 Bohr mag/cell
     absolute magnetization    =    74.42 Bohr mag/cell

     iteration # 37     ecut=    50.00 Ry     beta= 0.20
     Davidson diagonalization with overlap
     ethr =  1.87E-08,  avg # of iterations =  3.5

     negative rho (up, down):  8.282E-04 5.563E-04
 
     Adding external electric field

     Computed dipole along edir(3) : 
        Dipole               -0.0021 Ry au,         -0.0054 Debye
        Dipole field         -0.0000 Ry au, 
 
        Potential amp.        0.0001 Ry
        Total length         54.1761 bohr
 
 
     Adding external electric field

     Computed dipole along edir(3) : 
        Dipole               -0.0021 Ry au,         -0.0054 Debye
        Dipole field         -0.0000 Ry au, 
 
        Potential amp.        0.0001 Ry
        Total length         54.1761 bohr
 

     total cpu time spent up to now is    78886.0 secs

     total energy              =   -7057.97596705 Ry
     estimated scf accuracy    <       0.00004480 Ry

     total magnetization       =    72.65 Bohr mag/cell
     absolute magnetization    =    74.39 Bohr mag/cell

     iteration # 38     ecut=    50.00 Ry     beta= 0.20
     Davidson diagonalization with overlap
     c_bands:  3 eigenvalues not converged
     c_bands:  2 eigenvalues not converged
     c_bands:  3 eigenvalues not converged
     ethr =  4.21E-09,  avg # of iterations = 10.4

     negative rho (up, down):  8.230E-04 5.041E-04
 
     Adding external electric field

     Computed dipole along edir(3) : 
        Dipole               -0.0044 Ry au,         -0.0111 Debye
        Dipole field         -0.0000 Ry au, 
 
        Potential amp.        0.0003 Ry
        Total length         54.1761 bohr
 
 
     Adding external electric field

     Computed dipole along edir(3) : 
        Dipole               -0.0044 Ry au,         -0.0111 Debye
        Dipole field         -0.0000 Ry au, 
 
        Potential amp.        0.0003 Ry
        Total length         54.1761 bohr
 

     total cpu time spent up to now is    81276.1 secs

     total energy              =   -7057.97599262 Ry
     estimated scf accuracy    <       0.00002885 Ry

     total magnetization       =    72.64 Bohr mag/cell
     absolute magnetization    =    74.38 Bohr mag/cell

     iteration # 39     ecut=    50.00 Ry     beta= 0.20
     Davidson diagonalization with overlap
     ethr =  2.71E-09,  avg # of iterations =  2.1

     negative rho (up, down):  8.208E-04 4.832E-04
 
     Adding external electric field

     Computed dipole along edir(3) : 
        Dipole               -0.0060 Ry au,         -0.0152 Debye
        Dipole field         -0.0000 Ry au, 
 
        Potential amp.        0.0004 Ry
        Total length         54.1761 bohr
 
 
     Adding external electric field

     Computed dipole along edir(3) : 
        Dipole               -0.0060 Ry au,         -0.0152 Debye
        Dipole field         -0.0000 Ry au, 
 
        Potential amp.        0.0004 Ry
        Total length         54.1761 bohr
 

     total cpu time spent up to now is    82936.2 secs

     total energy              =   -7057.97600237 Ry
     estimated scf accuracy    <       0.00001359 Ry

     total magnetization       =    72.65 Bohr mag/cell
     absolute magnetization    =    74.37 Bohr mag/cell

     iteration # 40     ecut=    50.00 Ry     beta= 0.20
     Davidson diagonalization with overlap
     ethr =  1.28E-09,  avg # of iterations =  2.1

     negative rho (up, down):  8.205E-04 4.798E-04
 
     Adding external electric field

     Computed dipole along edir(3) : 
        Dipole               -0.0046 Ry au,         -0.0117 Debye
        Dipole field         -0.0000 Ry au, 
 
        Potential amp.        0.0003 Ry
        Total length         54.1761 bohr
 
 
     Adding external electric field

     Computed dipole along edir(3) : 
        Dipole               -0.0046 Ry au,         -0.0117 Debye
        Dipole field         -0.0000 Ry au, 
 
        Potential amp.        0.0003 Ry
        Total length         54.1761 bohr
 

     total cpu time spent up to now is    84696.5 secs

     total energy              =   -7057.97600831 Ry
     estimated scf accuracy    <       0.00000809 Ry

     total magnetization       =    72.64 Bohr mag/cell
     absolute magnetization    =    74.36 Bohr mag/cell

     iteration # 41     ecut=    50.00 Ry     beta= 0.20
     Davidson diagonalization with overlap
     ethr =  7.61E-10,  avg # of iterations =  2.3

     negative rho (up, down):  8.215E-04 4.894E-04
 
     Adding external electric field

     Computed dipole along edir(3) : 
        Dipole               -0.0055 Ry au,         -0.0140 Debye
        Dipole field         -0.0000 Ry au, 
 
        Potential amp.        0.0004 Ry
        Total length         54.1761 bohr
 
 
     Adding external electric field

     Computed dipole along edir(3) : 
        Dipole               -0.0055 Ry au,         -0.0140 Debye
        Dipole field         -0.0000 Ry au, 
 
        Potential amp.        0.0004 Ry
        Total length         54.1761 bohr
 

     total cpu time spent up to now is    86482.4 secs

     total energy              =   -7057.97601149 Ry
     estimated scf accuracy    <       0.00000419 Ry

     total magnetization       =    72.65 Bohr mag/cell
     absolute magnetization    =    74.35 Bohr mag/cell

     iteration # 42     ecut=    50.00 Ry     beta= 0.20
     Davidson diagonalization with overlap
     ethr =  3.94E-10,  avg # of iterations =  2.1

     negative rho (up, down):  8.233E-04 5.070E-04
 
     Adding external electric field

     Computed dipole along edir(3) : 
        Dipole               -0.0047 Ry au,         -0.0119 Debye
        Dipole field         -0.0000 Ry au, 
 
        Potential amp.        0.0003 Ry
        Total length         54.1761 bohr
 
 
     Adding external electric field

     Computed dipole along edir(3) : 
        Dipole               -0.0047 Ry au,         -0.0119 Debye
        Dipole field         -0.0000 Ry au, 
 
        Potential amp.        0.0003 Ry
        Total length         54.1761 bohr
 

     total cpu time spent up to now is    88185.2 secs

     total energy              =   -7057.97601312 Ry
     estimated scf accuracy    <       0.00000161 Ry

     total magnetization       =    72.64 Bohr mag/cell
     absolute magnetization    =    74.35 Bohr mag/cell

     iteration # 43     ecut=    50.00 Ry     beta= 0.20
     Davidson diagonalization with overlap
     ethr =  1.52E-10,  avg # of iterations =  4.5

     negative rho (up, down):  8.252E-04 5.257E-04
 
     Adding external electric field

     Computed dipole along edir(3) : 
        Dipole               -0.0146 Ry au,         -0.0372 Debye
        Dipole field         -0.0000 Ry au, 
 
        Potential amp.        0.0010 Ry
        Total length         54.1761 bohr
 
 
     Adding external electric field

     Computed dipole along edir(3) : 
        Dipole               -0.0146 Ry au,         -0.0372 Debye
        Dipole field         -0.0000 Ry au, 
 
        Potential amp.        0.0010 Ry
        Total length         54.1761 bohr
 
 
     Magnetic moment per site:
     atom:    1    charge:    7.1216    magn:    1.4621    constr:    0.0000
     atom:    2    charge:    7.1112    magn:    1.5493    constr:    0.0000
     atom:    3    charge:    7.1215    magn:    1.4622    constr:    0.0000
     atom:    4    charge:    7.1112    magn:    1.5493    constr:    0.0000
     atom:    5    charge:    7.1307    magn:    1.5059    constr:    0.0000
     atom:    6    charge:    7.1307    magn:    1.5059    constr:    0.0000
     atom:    7    charge:    0.8200    magn:    0.0061    constr:    0.0000
     atom:    8    charge:    0.8228    magn:    0.0030    constr:    0.0000
     atom:    9    charge:    0.8228    magn:    0.0030    constr:    0.0000
     atom:   10    charge:    0.8200    magn:    0.0061    constr:    0.0000
     atom:   11    charge:    2.0127    magn:    0.0794    constr:    0.0000
     atom:   12    charge:    2.0126    magn:    0.1001    constr:    0.0000
     atom:   13    charge:    2.0126    magn:    0.1001    constr:    0.0000
     atom:   14    charge:    2.0127    magn:    0.0794    constr:    0.0000
     atom:   15    charge:    2.0207    magn:    0.0578    constr:    0.0000
     atom:   16    charge:    2.0029    magn:    0.0511    constr:    0.0000
     atom:   17    charge:    2.0029    magn:    0.0511    constr:    0.0000
     atom:   18    charge:    2.0207    magn:    0.0578    constr:    0.0000
     atom:   19    charge:    2.0188    magn:    0.0584    constr:    0.0000
     atom:   20    charge:    2.0139    magn:    0.0553    constr:    0.0000
     atom:   21    charge:    2.0205    magn:    0.0498    constr:    0.0000
     atom:   22    charge:    2.0191    magn:    0.0494    constr:    0.0000
     atom:   23    charge:    2.0191    magn:    0.0494    constr:    0.0000
     atom:   24    charge:    2.0139    magn:    0.0553    constr:    0.0000
     atom:   25    charge:    2.0188    magn:    0.0584    constr:    0.0000
     atom:   26    charge:    2.0205    magn:    0.0498    constr:    0.0000
     atom:   27    charge:    7.1136    magn:    1.5432    constr:    0.0000
     atom:   28    charge:    7.1127    magn:    1.5433    constr:    0.0000
     atom:   29    charge:    7.1135    magn:    1.5434    constr:    0.0000
     atom:   30    charge:    7.1130    magn:    1.5428    constr:    0.0000
     atom:   31    charge:    7.1324    magn:    1.5042    constr:    0.0000
     atom:   32    charge:    7.1323    magn:    1.5040    constr:    0.0000
     atom:   33    charge:    0.8200    magn:    0.0062    constr:    0.0000
     atom:   34    charge:    0.8202    magn:    0.0062    constr:    0.0000
     atom:   35    charge:    0.8202    magn:    0.0062    constr:    0.0000
     atom:   36    charge:    0.8200    magn:    0.0062    constr:    0.0000
     atom:   37    charge:    2.0132    magn:    0.0826    constr:    0.0000
     atom:   38    charge:    2.0132    magn:    0.0824    constr:    0.0000
     atom:   39    charge:    2.0132    magn:    0.0825    constr:    0.0000
     atom:   40    charge:    2.0132    magn:    0.0827    constr:    0.0000
     atom:   41    charge:    2.0205    magn:    0.0583    constr:    0.0000
     atom:   42    charge:    2.0205    magn:    0.0581    constr:    0.0000
     atom:   43    charge:    2.0205    magn:    0.0581    constr:    0.0000
     atom:   44    charge:    2.0208    magn:    0.0577    constr:    0.0000
     atom:   45    charge:    2.0200    magn:    0.0581    constr:    0.0000
     atom:   46    charge:    2.0193    magn:    0.0581    constr:    0.0000
     atom:   47    charge:    2.0208    magn:    0.0499    constr:    0.0000
     atom:   48    charge:    2.0207    magn:    0.0497    constr:    0.0000
     atom:   49    charge:    2.0207    magn:    0.0497    constr:    0.0000
     atom:   50    charge:    2.0193    magn:    0.0581    constr:    0.0000
     atom:   51    charge:    2.0200    magn:    0.0580    constr:    0.0000
     atom:   52    charge:    2.0208    magn:    0.0497    constr:    0.0000
     atom:   53    charge:    7.1084    magn:    1.5525    constr:    0.0000
     atom:   54    charge:    7.0634    magn:    1.6937    constr:    0.0000
     atom:   55    charge:    7.1106    magn:    1.5457    constr:    0.0000
     atom:   56    charge:    7.1224    magn:    1.4647    constr:    0.0000
     atom:   57    charge:    7.1303    magn:    1.4996    constr:    0.0000
     atom:   58    charge:    7.1275    magn:    1.5048    constr:    0.0000
     atom:   59    charge:    0.8177    magn:    0.0042    constr:    0.0000
     atom:   60    charge:    0.8190    magn:    0.0061    constr:    0.0000
     atom:   61    charge:    0.8206    magn:    0.0060    constr:    0.0000
     atom:   62    charge:    0.8174    magn:    0.0043    constr:    0.0000
     atom:   63    charge:    2.0106    magn:    0.1026    constr:    0.0000
     atom:   64    charge:    2.0112    magn:    0.0861    constr:    0.0000
     atom:   65    charge:    2.0140    magn:    0.0774    constr:    0.0000
     atom:   66    charge:    2.0097    magn:    0.1073    constr:    0.0000
     atom:   67    charge:    2.0117    magn:    0.0405    constr:    0.0000
     atom:   68    charge:    2.0192    magn:    0.0589    constr:    0.0000
     atom:   69    charge:    2.0186    magn:    0.0562    constr:    0.0000
     atom:   70    charge:    2.0085    magn:    0.0462    constr:    0.0000
     atom:   71    charge:    2.0134    magn:    0.0551    constr:    0.0000
     atom:   72    charge:    2.0179    magn:    0.0580    constr:    0.0000
     atom:   73    charge:    2.0186    magn:    0.0515    constr:    0.0000
     atom:   74    charge:    2.0202    magn:    0.0490    constr:    0.0000
     atom:   75    charge:    2.0199    magn:    0.0483    constr:    0.0000
     atom:   76    charge:    2.0176    magn:    0.0600    constr:    0.0000
     atom:   77    charge:    2.0148    magn:    0.0546    constr:    0.0000
     atom:   78    charge:    2.0172    magn:    0.0574    constr:    0.0000
     atom:   79    charge:    7.1219    magn:    1.4619    constr:    0.0000
     atom:   80    charge:    7.1112    magn:    1.5494    constr:    0.0000
     atom:   81    charge:    7.1216    magn:    1.4621    constr:    0.0000
     atom:   82    charge:    7.1112    magn:    1.5493    constr:    0.0000
     atom:   83    charge:    7.1307    magn:    1.5059    constr:    0.0000
     atom:   84    charge:    7.1307    magn:    1.5059    constr:    0.0000
     atom:   85    charge:    0.8200    magn:    0.0061    constr:    0.0000
     atom:   86    charge:    0.8228    magn:    0.0030    constr:    0.0000
     atom:   87    charge:    0.8228    magn:    0.0030    constr:    0.0000
     atom:   88    charge:    0.8200    magn:    0.0061    constr:    0.0000
     atom:   89    charge:    2.0127    magn:    0.0794    constr:    0.0000
     atom:   90    charge:    2.0126    magn:    0.1001    constr:    0.0000
     atom:   91    charge:    2.0126    magn:    0.1001    constr:    0.0000
     atom:   92    charge:    2.0127    magn:    0.0794    constr:    0.0000
     atom:   93    charge:    2.0207    magn:    0.0578    constr:    0.0000
     atom:   94    charge:    2.0029    magn:    0.0511    constr:    0.0000
     atom:   95    charge:    2.0029    magn:    0.0511    constr:    0.0000
     atom:   96    charge:    2.0207    magn:    0.0578    constr:    0.0000
     atom:   97    charge:    2.0188    magn:    0.0584    constr:    0.0000
     atom:   98    charge:    2.0139    magn:    0.0553    constr:    0.0000
     atom:   99    charge:    2.0205    magn:    0.0498    constr:    0.0000
     atom:  100    charge:    2.0191    magn:    0.0494    constr:    0.0000
     atom:  101    charge:    2.0191    magn:    0.0494    constr:    0.0000
     atom:  102    charge:    2.0139    magn:    0.0553    constr:    0.0000
     atom:  103    charge:    2.0188    magn:    0.0584    constr:    0.0000
     atom:  104    charge:    2.0205    magn:    0.0498    constr:    0.0000
     atom:  105    charge:    7.1135    magn:    1.5435    constr:    0.0000
     atom:  106    charge:    7.1130    magn:    1.5434    constr:    0.0000
     atom:  107    charge:    7.1135    magn:    1.5434    constr:    0.0000
     atom:  108    charge:    7.1130    magn:    1.5435    constr:    0.0000
     atom:  109    charge:    7.1323    magn:    1.5041    constr:    0.0000
     atom:  110    charge:    7.1323    magn:    1.5044    constr:    0.0000
     atom:  111    charge:    0.8201    magn:    0.0062    constr:    0.0000
     atom:  112    charge:    0.8202    magn:    0.0062    constr:    0.0000
     atom:  113    charge:    0.8202    magn:    0.0062    constr:    0.0000
     atom:  114    charge:    0.8199    magn:    0.0062    constr:    0.0000
     atom:  115    charge:    2.0132    magn:    0.0829    constr:    0.0000
     atom:  116    charge:    2.0132    magn:    0.0826    constr:    0.0000
     atom:  117    charge:    2.0132    magn:    0.0826    constr:    0.0000
     atom:  118    charge:    2.0133    magn:    0.0827    constr:    0.0000
     atom:  119    charge:    2.0209    magn:    0.0577    constr:    0.0000
     atom:  120    charge:    2.0206    magn:    0.0581    constr:    0.0000
     atom:  121    charge:    2.0205    magn:    0.0581    constr:    0.0000
     atom:  122    charge:    2.0206    magn:    0.0576    constr:    0.0000
     atom:  123    charge:    2.0200    magn:    0.0581    constr:    0.0000
     atom:  124    charge:    2.0193    magn:    0.0582    constr:    0.0000
     atom:  125    charge:    2.0209    magn:    0.0498    constr:    0.0000
     atom:  126    charge:    2.0207    magn:    0.0497    constr:    0.0000
     atom:  127    charge:    2.0207    magn:    0.0497    constr:    0.0000
     atom:  128    charge:    2.0193    magn:    0.0581    constr:    0.0000
     atom:  129    charge:    2.0201    magn:    0.0581    constr:    0.0000
     atom:  130    charge:    2.0209    magn:    0.0498    constr:    0.0000
     atom:  131    charge:    7.1119    magn:    1.5420    constr:    0.0000
     atom:  132    charge:    7.1235    magn:    1.4720    constr:    0.0000
     atom:  133    charge:    7.1099    magn:    1.5474    constr:    0.0000
     atom:  134    charge:    7.1221    magn:    1.4610    constr:    0.0000
     atom:  135    charge:    7.1274    magn:    1.4962    constr:    0.0000
     atom:  136    charge:    7.1263    magn:    1.5066    constr:    0.0000
     atom:  137    charge:    0.8181    magn:    0.0051    constr:    0.0000
     atom:  138    charge:    0.8202    magn:    0.0060    constr:    0.0000
     atom:  139    charge:    0.8202    magn:    0.0058    constr:    0.0000
     atom:  140    charge:    0.8175    magn:    0.0040    constr:    0.0000
     atom:  141    charge:    2.0131    magn:    0.0800    constr:    0.0000
     atom:  142    charge:    2.0138    magn:    0.0800    constr:    0.0000
     atom:  143    charge:    2.0135    magn:    0.0787    constr:    0.0000
     atom:  144    charge:    2.0079    magn:    0.1106    constr:    0.0000
     atom:  145    charge:    2.0115    magn:    0.0618    constr:    0.0000
     atom:  146    charge:    2.0187    magn:    0.0554    constr:    0.0000
     atom:  147    charge:    2.0194    magn:    0.0568    constr:    0.0000
     atom:  148    charge:    2.0085    magn:    0.0457    constr:    0.0000
     atom:  149    charge:    2.0136    magn:    0.0670    constr:    0.0000
     atom:  150    charge:    2.0183    magn:    0.0589    constr:    0.0000
     atom:  151    charge:    2.0161    magn:    0.0491    constr:    0.0000
     atom:  152    charge:    2.0183    magn:    0.0493    constr:    0.0000
     atom:  153    charge:    2.0202    magn:    0.0507    constr:    0.0000
     atom:  154    charge:    2.0178    magn:    0.0574    constr:    0.0000
     atom:  155    charge:    2.0155    magn:    0.0565    constr:    0.0000
     atom:  156    charge:    2.0173    magn:    0.0520    constr:    0.0000
     atom:  157    charge:    1.9965    magn:    0.2269    constr:    0.0000
     atom:  158    charge:    0.3967    magn:   -0.0018    constr:    0.0000

     total cpu time spent up to now is    90241.3 secs

     End of self-consistent calculation

 ------ SPIN UP ------------


          k = 0.0000 0.0000 0.0000 (121819 PWs)   bands (ev):

   -21.4418 -21.3054 -21.2454 -21.2155 -21.1806 -21.1779 -21.1723 -21.1278
   -21.1009 -21.0984 -21.0767 -21.0222 -21.0177 -20.9926 -20.9531 -20.9353
   -20.8193 -20.8149 -20.7830 -20.7151 -20.7031 -20.6721 -20.6113 -20.5764
   -19.0281 -19.0267 -18.9782 -18.9708 -18.9369 -18.9188 -18.9066 -18.8975
   -18.8736 -18.8227 -18.8139 -18.8132 -18.7740 -18.7684 -18.7461 -18.7358
   -18.7264 -18.7164 -18.7122 -18.7093 -18.6992 -18.6959 -18.6792 -18.6679
   -18.6645 -18.6533 -18.6417 -18.6256 -18.6150 -18.5949 -18.5716 -18.5710
   -18.5708 -18.5655 -18.5508 -18.5460 -18.5401 -18.5306 -18.5218 -18.5075
   -18.5041 -18.4950 -18.4905 -18.4800 -18.4776 -18.4748 -18.4546 -18.4460
   -18.4420 -18.4358 -18.4345 -18.4179 -18.3878 -18.3866 -18.3686 -18.3604
   -18.3368 -18.3366 -18.3247 -18.3034 -18.3024 -18.2376 -18.1822 -18.1371
   -18.0457 -17.8365 -17.8210 -17.7870 -17.5794 -17.4377 -17.4166 -17.4130
   -17.3985  -8.8956  -8.7088  -8.5720  -8.5155  -8.5118  -8.4790  -8.4377
    -8.4248  -8.4020  -8.3995  -8.3944  -8.3552  -8.3333  -8.3292  -8.3040
    -8.2531  -8.1387  -8.0776  -8.0426  -7.9887  -7.9377  -7.9293  -7.9228
    -7.8993  -7.5333  -7.2956  -7.1482  -7.1390  -7.0245  -6.9481  -6.9047
    -6.8351  -6.6990  -6.6635  -6.6573  -6.6385  -6.6317  -6.6247  -6.5828
    -6.5639  -6.5089  -6.4512  -6.4081  -6.3940  -6.3684  -6.3456  -6.3387
    -6.2849  -6.2793  -6.2770  -6.2717  -6.2627  -6.2402  -6.2130  -6.1935
    -6.1784  -6.1134  -6.0985  -6.0893  -6.0768  -6.0491  -6.0356  -6.0318
    -6.0299  -5.9711  -5.9646  -5.9471  -5.9449  -5.9300  -5.9207  -5.8623
    -5.8556  -5.8406  -5.7923  -5.7768  -5.7308  -5.7039  -5.7029  -5.6613
    -5.6282  -5.6098  -5.5935  -5.5551  -5.5126  -5.5035  -5.4695  -5.4637
    -5.4541  -5.3964  -5.3825  -5.3775  -5.3404  -5.3326  -5.3244  -5.2967
    -5.2750  -5.2618  -5.2538  -5.2270  -5.1758  -5.1577  -5.1562  -5.0902
    -5.0246  -5.0005  -4.9591  -4.9583  -4.9322  -4.9159  -4.9000  -4.8908
    -4.8838  -4.8549  -4.7797  -4.7701  -4.7627  -4.7046  -4.6793  -4.6520
[...]
    -6.1320  -6.1059  -6.1026  -6.0962  -6.0840  -6.0380  -6.0323  -6.0292
    -6.0279  -6.0054  -5.9989  -5.9900  -5.9879  -5.9131  -5.9062  -5.9011
    -5.8942  -5.8711  -5.8703  -5.8514  -5.8414  -5.7632  -5.7626  -5.7566
    -5.7519  -5.6720  -5.6650  -5.6627  -5.6494  -5.5590  -5.5263  -5.4976
    -5.4922  -5.4564  -5.4467  -5.4161  -5.4107  -5.4031  -5.4009  -5.3831
    -5.3527  -5.1309  -4.9798  -4.9771  -4.9733  -4.9677  -4.9367  -4.9259
    -4.9064  -4.7947  -4.7363  -4.7349  -4.7319  -4.7104  -4.6403  -4.6377
    -4.6297  -4.6254  -4.5968  -4.5796  -4.5705  -4.5269  -4.3885  -4.3875
    -4.3867  -4.3740  -4.3271  -4.3091  -4.3073  -4.2844  -4.2416  -4.2328
    -4.2239  -4.2032  -4.1654  -4.1546  -4.1473  -4.1035  -3.9852  -3.9755
    -3.9719  -3.9521  -3.9049  -3.8997  -3.8831  -3.8428  -3.7754  -3.7721
    -3.7689  -3.7535  -3.7195  -3.7127  -3.7101  -3.7038  -3.6911  -3.6828
    -3.6817  -3.6695  -3.6175  -3.6131  -3.6111  -3.6048  -3.5532  -3.5345
    -3.5215  -3.5122  -3.4407  -3.4325  -3.4284  -3.4139  -3.3988  -3.3866
    -3.3771  -3.3663  -3.2957  -3.2913  -3.2864  -3.2764  -3.2653  -3.2555
    -3.2515  -3.2475  -3.1794  -3.1770  -3.1717  -3.1693  -3.0273  -3.0115
    -3.0017  -2.9961  -2.9608  -2.9527  -2.9368  -2.9294  -2.9010  -2.8969
    -2.8830  -2.8705  -2.7892  -2.7787  -2.7740  -2.7683  -2.7588  -2.7350
    -2.7295  -2.7075  -2.6814  -2.6621  -2.6594  -2.6425  -2.6352  -2.6176
    -2.6136  -2.5922  -2.5866  -2.5830  -2.5765  -2.5624  -2.5192  -2.5170
    -2.5044  -2.4952  -2.4860  -2.4805  -2.4761  -2.4712  -2.4609  -2.4595
    -2.4436  -2.4086  -2.3521  -2.3511  -2.3459  -2.3210  -2.2838  -2.2774
    -2.2684  -2.2557  -2.2514  -2.2398  -2.2274  -2.2216  -2.1875  -2.1780
    -2.1734  -2.1715  -2.0667  -2.0523  -2.0463  -2.0393  -1.9961  -1.9702
    -1.9571  -1.9488  -1.9420  -1.9408  -1.9378  -1.9288  -1.9107  -1.9030
    -1.9000  -1.8781  -1.7976  -1.7816  -1.7800  -1.7764  -1.7697  -1.7562
    -1.7552  -1.7326  -1.6991  -1.6100  -1.6095  -1.6066  -1.5947  -1.5562
    -1.5330  -1.5205  -1.4942  -1.4868  -1.4632  -1.4513  -1.4434  -1.4088
    -1.3913  -1.3850  -1.2965  -1.2575  -1.2485  -1.2456  -1.2153  -1.2057
    -1.2045  -1.2041  -1.1896  -1.0333  -0.9770  -0.9226  -0.8588  -0.6765
    -0.6764  -0.6764  -0.6764  -0.6464   0.1352   0.1419   0.1431   0.1442
     0.1621   0.1774   0.1801   0.1841   0.1947   0.2062   0.2108   0.2151
     0.2241   0.2292   0.2305   0.2361   0.2401   0.2494   0.2568   0.2623
     0.2696   0.2769   0.2831   0.2928   0.2965   0.2993   0.3011   0.3024
     0.3095   0.3201   0.3225   0.3277   0.3380   0.3657   0.3678   0.3686
     0.3723   0.3737   0.3796   0.3882   0.3908   0.3946   0.3961   0.4019
     0.4034   0.4138   0.4176   0.4340   0.4458   0.4515   0.4542   0.4581
     0.4640   0.4715   0.4770   0.4834   0.4874   0.4928   0.4942   0.5025
     0.5050   0.5103   0.5148   0.5163   0.5283   0.5304   0.5310   0.5435
     0.5443   0.5471   0.5610   0.5793   0.5884   0.5959   0.6011   0.6085
     0.6237   0.6322   0.6350   0.6440   0.6496   0.6600   0.6665   0.6874
     0.6905   0.6937   0.6987   0.7156   0.7186   0.7262   0.7321   0.7511
     0.7613   0.7669   0.7693   0.7858   0.7902   0.7935   0.7981   0.8011
     0.8172   0.8242   0.8316   0.8322   0.8337   0.8346   0.8542   1.2973
     1.4239   1.4243   1.4243   1.4244   1.5092   1.5665   1.5765   1.6773
     1.8281   1.8357   1.8431   1.8448   1.8687   1.8707   1.8779   1.8852
     1.9672   1.9748   1.9779   1.9882   2.0281   2.0355   2.0364   2.0515
     2.0588   2.0653   2.0708   2.0734   2.0842   2.0893   2.0899   2.0921
     2.0979   2.1170   2.1257   2.1275   2.1917   2.2115   2.2175   2.2289
     2.2357   2.2474   2.2557   2.2897   2.3020   2.3047   2.3065   2.3300
     2.3456   2.3502   2.3608   2.3926   2.4213   2.4736   2.4781   2.4972
     2.5098   2.5270   2.5352   2.5456   2.5789   2.6137   2.6182   2.6221
     2.6348   2.6459   2.6478   2.6521   2.6564   2.6828   2.7046   2.7155
     5.7265   5.7268   5.7279   5.7308   5.9090   5.9179   5.9510   6.0955
     6.2893   6.2931   6.3114   6.4919   6.7902   6.8018   6.8129   6.9358
     7.1120   7.1268   7.1297   7.2695   7.3307   7.3387   7.3498   7.4305
     7.6340   7.6423   7.6437   7.7163   7.8469   7.8531   7.8590   7.8711
     7.9214   7.9248   7.9368   7.9779   8.0646   8.0772   8.0940   8.1528
     8.1664   8.1772   8.1951   8.2432   8.2885   8.2925   8.3069   8.3147
     8.3220   8.3324   8.3387   8.3440   8.3485   8.3703   8.3817   8.4024
     8.4448   8.4515   8.4804   8.4943   8.5245   8.5307   8.5527   8.6675
     8.6854   8.6877   8.6898   8.7088   8.7330   8.7570

     the Fermi energy is     1.1916 ev

!    total energy              =   -7057.97601373 Ry
     estimated scf accuracy    <       0.00000068 Ry
     smearing contrib. (-TS)   =      -0.00479185 Ry
     internal energy E=F+TS    =   -7057.97122188 Ry

     The total energy is F=E-TS. E is the sum of the following terms:
     one-electron contribution =  -89074.30303016 Ry
     hartree contribution      =   45214.95899539 Ry
     xc contribution           =   -2299.49762232 Ry
     ewald contribution        =   39102.70895422 Ry
     Dispersion Correction     =      -1.83851914 Ry
     electric field correction =       0.00000013 Ry

     total magnetization       =    72.64 Bohr mag/cell
     absolute magnetization    =    74.35 Bohr mag/cell

     convergence has been achieved in  43 iterations

     negative rho (up, down):  8.252E-04 5.257E-04

     Forces acting on atoms (cartesian axes, Ry/au):

     atom    1 type  1   force =     0.02939094   -0.01705641    0.01839151
     atom    2 type  1   force =    -0.00360844    0.00060838   -0.00201801
     atom    3 type  1   force =    -0.02938592   -0.01705212    0.01840176
     atom    4 type  1   force =     0.00355073    0.00062512   -0.00206087
     atom    5 type  1   force =    -0.00316626    0.00476449   -0.00140709
     atom    6 type  1   force =     0.00317424    0.00470967   -0.00142632
     atom    7 type  2   force =     0.00167756    0.00072168   -0.00098577
     atom    8 type  2   force =    -0.03164791    0.04267204   -0.07499804
     atom    9 type  2   force =     0.03164136    0.04266677   -0.07499854
     atom   10 type  2   force =    -0.00169298    0.00073959   -0.00098220
     atom   11 type  3   force =    -0.00183700    0.00001721   -0.00178700
     atom   12 type  3   force =    -0.00555317   -0.00018066    0.02463873
     atom   13 type  3   force =     0.00553131   -0.00018871    0.02463872
     atom   14 type  3   force =     0.00182256    0.00001349   -0.00178741
     atom   15 type  3   force =    -0.00053717   -0.00114574   -0.00002807
     atom   16 type  3   force =     0.00741368   -0.00052413    0.02959330
     atom   17 type  3   force =    -0.00743647   -0.00052439    0.02960926
     atom   18 type  3   force =     0.00053311   -0.00115876   -0.00001903
     atom   19 type  3   force =    -0.00034959   -0.00022833    0.00064815
     atom   20 type  3   force =    -0.01371151   -0.03024639   -0.00093697
     atom   21 type  3   force =     0.00030401   -0.00069186    0.00145395
     atom   22 type  3   force =    -0.01820867    0.00084290    0.00223064
     atom   23 type  3   force =     0.01820490    0.00082862    0.00222695
     atom   24 type  3   force =     0.01369820   -0.03024593   -0.00093805
     atom   25 type  3   force =     0.00033740   -0.00021602    0.00064941
     atom   26 type  3   force =    -0.00030987   -0.00068853    0.00145445
     atom   27 type  1   force =     0.00002644   -0.00013919   -0.00052963
     atom   28 type  1   force =    -0.00130555   -0.00103149    0.00495061
     atom   29 type  1   force =    -0.00004795   -0.00012096   -0.00052542
     atom   30 type  1   force =     0.00069895   -0.00024625    0.00206364
     atom   31 type  1   force =    -0.00008668   -0.00007699    0.00006535
     atom   32 type  1   force =     0.00000580   -0.00009897    0.00010408
     atom   33 type  2   force =     0.00009339   -0.00074456    0.00148926
     atom   34 type  2   force =    -0.00002667    0.00012427    0.00007763
     atom   35 type  2   force =     0.00008393    0.00012507   -0.00001542
     atom   36 type  2   force =    -0.00017855   -0.00031343    0.00157587
     atom   37 type  3   force =    -0.00034925   -0.00013805   -0.00029255
     atom   38 type  3   force =    -0.00033082    0.00023293    0.00004545
     atom   39 type  3   force =     0.00022921    0.00023441    0.00001582
     atom   40 type  3   force =     0.00038882   -0.00033231   -0.00028586
     atom   41 type  3   force =     0.00166163   -0.00097010    0.00286101
     atom   42 type  3   force =    -0.00008304    0.00038229    0.00021470
     atom   43 type  3   force =     0.00005659    0.00037396    0.00022004
     atom   44 type  3   force =    -0.00090159    0.00025370    0.00111156
     atom   45 type  3   force =    -0.00000077    0.00064412    0.00009184
     atom   46 type  3   force =    -0.00023110   -0.00005087    0.00025011
     atom   47 type  3   force =    -0.00082521   -0.00005757    0.00009814
     atom   48 type  3   force =    -0.00021491    0.00020877    0.00004884
     atom   49 type  3   force =     0.00024744    0.00020981    0.00003173
     atom   50 type  3   force =     0.00019302   -0.00006138    0.00023644
     atom   51 type  3   force =     0.00052428    0.00074974    0.00025395
     atom   52 type  3   force =     0.00049066   -0.00008846   -0.00018990
     atom   53 type  1   force =    -0.00000448   -0.00008958   -0.00024605
     atom   54 type  1   force =    -0.00041659   -0.00048678    0.00031803
     atom   55 type  1   force =     0.00044983    0.00032044   -0.00013171
     atom   56 type  1   force =     0.00020206   -0.00030500    0.00058530
     atom   57 type  1   force =     0.00011786    0.00019869   -0.00045046
     atom   58 type  1   force =    -0.00022219    0.00006741   -0.00020416
     atom   59 type  2   force =     0.00069210   -0.00116106    0.00052637
     atom   60 type  2   force =     0.00045258    0.00008009    0.00021626
     atom   61 type  2   force =    -0.00051806   -0.00003169   -0.00002310
     atom   62 type  2   force =    -0.00047294   -0.00031486    0.00022182
     atom   63 type  3   force =    -0.00002901    0.00005729    0.00000219
     atom   64 type  3   force =     0.00026231   -0.00006098    0.00009808
     atom   65 type  3   force =     0.00019725    0.00025478   -0.00024186
     atom   66 type  3   force =     0.00017433    0.00014170    0.00023865
     atom   67 type  3   force =     0.00044437    0.00023841   -0.00020609
     atom   68 type  3   force =    -0.00015398    0.00009006   -0.00006148
     atom   69 type  3   force =    -0.00021249    0.00013233    0.00007513
     atom   70 type  3   force =    -0.00001702    0.00029167    0.00010003
     atom   71 type  3   force =     0.00047182    0.00008318    0.00033610
     atom   72 type  3   force =     0.00023966   -0.00006287   -0.00026905
     atom   73 type  3   force =     0.00014421    0.00012971    0.00014921
     atom   74 type  3   force =    -0.00020036   -0.00010821   -0.00010625
     atom   75 type  3   force =     0.00016969   -0.00008024   -0.00025633
     atom   76 type  3   force =    -0.00067805   -0.00018074   -0.00045219
     atom   77 type  3   force =     0.00007368    0.00073084    0.00014205
     atom   78 type  3   force =    -0.00001503   -0.00025243    0.00021419
     atom   79 type  1   force =     0.02943674   -0.01707365    0.01841276
     atom   80 type  1   force =    -0.00355877    0.00060692   -0.00201870
     atom   81 type  1   force =    -0.02943886   -0.01705277    0.01840505
     atom   82 type  1   force =     0.00358895    0.00064362   -0.00206414
     atom   83 type  1   force =    -0.00323228    0.00474985   -0.00139643
     atom   84 type  1   force =     0.00321713    0.00465184   -0.00137598
     atom   85 type  2   force =     0.00168385    0.00072253   -0.00098454
     atom   86 type  2   force =    -0.03164944    0.04267126   -0.07499569
     atom   87 type  2   force =     0.03163393    0.04266531   -0.07499801
     atom   88 type  2   force =    -0.00168959    0.00073758   -0.00098656
     atom   89 type  3   force =    -0.00186421    0.00001046   -0.00178498
     atom   90 type  3   force =    -0.00553438   -0.00019717    0.02466186
     atom   91 type  3   force =     0.00554761   -0.00017455    0.02462351
     atom   92 type  3   force =     0.00183817    0.00001138   -0.00178628
     atom   93 type  3   force =    -0.00054230   -0.00115355   -0.00002109
     atom   94 type  3   force =     0.00743585   -0.00052557    0.02956384
     atom   95 type  3   force =    -0.00742066   -0.00052126    0.02961568
     atom   96 type  3   force =     0.00053145   -0.00116239   -0.00001439
     atom   97 type  3   force =    -0.00034712   -0.00022607    0.00064806
     atom   98 type  3   force =    -0.01367851   -0.03023910   -0.00093803
     atom   99 type  3   force =     0.00031122   -0.00069532    0.00144457
     atom  100 type  3   force =    -0.01822261    0.00083841    0.00223106
     atom  101 type  3   force =     0.01822372    0.00080707    0.00222961
     atom  102 type  3   force =     0.01371309   -0.03025136   -0.00092817
     atom  103 type  3   force =     0.00033705   -0.00020633    0.00065353
     atom  104 type  3   force =    -0.00030019   -0.00068546    0.00145861
     atom  105 type  1   force =     0.00000690   -0.00012210   -0.00046449
     atom  106 type  1   force =    -0.00015032   -0.00060451    0.00190788
     atom  107 type  1   force =    -0.00002420   -0.00008377   -0.00047535
     atom  108 type  1   force =     0.00045382    0.00021084    0.00158594
     atom  109 type  1   force =     0.00004826   -0.00009797    0.00008683
     atom  110 type  1   force =    -0.00013210   -0.00004525    0.00023219
     atom  111 type  2   force =    -0.00052606   -0.00105249    0.00183984
     atom  112 type  2   force =    -0.00014525    0.00011641    0.00007628
     atom  113 type  2   force =     0.00010785    0.00012453    0.00006659
     atom  114 type  2   force =     0.00037033    0.00035928    0.00309810
     atom  115 type  3   force =    -0.00041384   -0.00022420   -0.00070361
     atom  116 type  3   force =    -0.00020516    0.00028792   -0.00006694
     atom  117 type  3   force =     0.00026726    0.00021076   -0.00008609
     atom  118 type  3   force =     0.00036766   -0.00041755   -0.00050377
     atom  119 type  3   force =     0.00159238    0.00065278   -0.00078955
     atom  120 type  3   force =    -0.00006441    0.00039006    0.00018830
     atom  121 type  3   force =     0.00006751    0.00038882    0.00019773
     atom  122 type  3   force =    -0.00214880    0.00012269    0.00171870
     atom  123 type  3   force =    -0.00087600    0.00092236   -0.00002009
     atom  124 type  3   force =    -0.00022241   -0.00004688    0.00022047
     atom  125 type  3   force =    -0.00033493   -0.00002072   -0.00032404
     atom  126 type  3   force =    -0.00024386    0.00020244    0.00002935
     atom  127 type  3   force =     0.00019801    0.00022151   -0.00001817
     atom  128 type  3   force =     0.00027446   -0.00005331    0.00020287
     atom  129 type  3   force =     0.00053939    0.00088119   -0.00007180
     atom  130 type  3   force =     0.00060444    0.00000547   -0.00052584
     atom  131 type  1   force =    -0.00025397   -0.00021302   -0.00041438
     atom  132 type  1   force =    -0.00011209   -0.00026120    0.00022934
     atom  133 type  1   force =     0.00020395   -0.00003258   -0.00025368
     atom  134 type  1   force =     0.00040249   -0.00035023   -0.00013542
     atom  135 type  1   force =     0.00007401    0.00000853   -0.00047113
     atom  136 type  1   force =    -0.00006210    0.00051333   -0.00017992
     atom  137 type  2   force =     0.00010104   -0.00046890    0.00022207
     atom  138 type  2   force =     0.00032528    0.00028392   -0.00015673
     atom  139 type  2   force =    -0.00052970   -0.00047746    0.00008546
     atom  140 type  2   force =    -0.00025738    0.00007404   -0.00020845
     atom  141 type  3   force =    -0.00035093   -0.00001452    0.00005172
     atom  142 type  3   force =    -0.00035632    0.00010672   -0.00010765
     atom  143 type  3   force =     0.00004603    0.00017770   -0.00015069
     atom  144 type  3   force =    -0.00004033    0.00025291    0.00001017
     atom  145 type  3   force =     0.00034511    0.00014150   -0.00025775
     atom  146 type  3   force =    -0.00008838    0.00029578    0.00032909
     atom  147 type  3   force =     0.00000917    0.00022822   -0.00018998
     atom  148 type  3   force =     0.00015134    0.00010579    0.00011320
     atom  149 type  3   force =    -0.00033378    0.00031565    0.00024471
     atom  150 type  3   force =     0.00036766    0.00006090   -0.00031590
     atom  151 type  3   force =    -0.00030021   -0.00000834   -0.00001342
     atom  152 type  3   force =    -0.00006426   -0.00022599   -0.00017381
     atom  153 type  3   force =     0.00002222   -0.00013760    0.00002983
     atom  154 type  3   force =    -0.00046980    0.00000332   -0.00031791
     atom  155 type  3   force =    -0.00058947    0.00030632    0.00016212
     atom  156 type  3   force =     0.00042114   -0.00016542    0.00023298
     atom  157 type  3   force =    -0.00262429    0.00188563    0.00180870
     atom  158 type  4   force =     0.00342810   -0.00149758   -0.00133452

     Total force =     0.228503     Total SCF correction =     0.002536
 
     init_run     :    714.30s CPU    724.45s WALL (       1 calls)
     electrons    :  88482.69s CPU  89516.39s WALL (       1 calls)
     forces       :    345.74s CPU    351.15s WALL (       1 calls)

     Called by init_run:
     wfcinit      :    677.94s CPU    685.19s WALL (       1 calls)
     potinit      :      9.04s CPU      9.21s WALL (       1 calls)
     hinit0       :     14.35s CPU     14.47s WALL (       1 calls)

     Called by electrons:
     c_bands      :  78837.44s CPU  79614.09s WALL (      43 calls)
     sum_band     :   9196.55s CPU   9360.38s WALL (      43 calls)
     v_of_rho     :     99.59s CPU    103.14s WALL (      44 calls)
     newd         :    321.29s CPU    413.24s WALL (      44 calls)
     mix_rho      :     26.47s CPU     26.51s WALL (      43 calls)

     Called by c_bands:
     init_us_2    :    388.93s CPU    393.40s WALL (    1760 calls)
     cegterg      :  77297.98s CPU  78068.72s WALL (     870 calls)

     Called by *egterg:
     cdiaghg      :  10378.06s CPU  10413.90s WALL (    4549 calls)
     h_psi        :  38716.67s CPU  39095.52s WALL (    4569 calls)
     s_psi        :   7923.08s CPU   7937.79s WALL (    4569 calls)
     g_psi        :     55.71s CPU     55.86s WALL (    3679 calls)

     Called by h_psi:
     h_psi:calbec :   7717.83s CPU   7746.75s WALL (    4569 calls)
     vloc_psi     :  23058.69s CPU  23288.80s WALL (    4569 calls)
     add_vuspsi   :   7842.94s CPU   7881.97s WALL (    4569 calls)

     General routines
     calbec       :  10895.96s CPU  10940.27s WALL (    5509 calls)
     fft          :    113.48s CPU    114.61s WALL (    1113 calls)
     ffts         :      3.45s CPU      3.54s WALL (     174 calls)
     fftw         :  22833.24s CPU  23062.67s WALL ( 3401442 calls)
     interpolate  :      9.20s CPU      9.44s WALL (      88 calls)
 
     Parallel routines
     fft_scatt_xy :   4242.22s CPU   4288.37s WALL ( 3402729 calls)
     fft_scatt_yz :   5476.10s CPU   5530.71s WALL ( 3402729 calls)
 
     PWSCF        :   1d 0h52m CPU   1d 1h 9m WALL

 
   This run was terminated on:  12:31:24  26Oct2023            

=------------------------------------------------------------------------------=
   JOB DONE.
=------------------------------------------------------------------------------=
