
     Program PWSCF v.6.7MaX starts on 23Oct2023 at  9: 1:32 

     This program is part of the open-source Quantum ESPRESSO suite
     for quantum simulation of materials; please cite
         "P. Giannozzi et al., J. Phys.:Condens. Matter 21 395502 (2009);
         "P. Giannozzi et al., J. Phys.:Condens. Matter 29 465901 (2017);
          URL http://www.quantum-espresso.org", 
     in publications or presentations arising from this work. More details at
     http://www.quantum-espresso.org/quote

     Parallel version (MPI), running on    20 processors

     MPI processes distributed on     1 nodes
     R & G space division:  proc/nbgrp/npool/nimage =      20
     Waiting for input...
     Reading input from standard input

     Current dimensions of program PWSCF are:
     Max number of different atomic species (ntypx) = 10
     Max number of k-points (npk) =  40000
     Max angular momentum in pseudopotentials (lmaxx) =  3
     Presently no symmetry can be used with electric field

     file Ni.pbe-n-rrkjus_psl.1.0.0.UPF: wavefunction(s)  3D renormalized
     file O.pbe-rrkjus.UPF: wavefunction(s)  2S renormalized
     file H.pbe-rrkjus.UPF: wavefunction(s)  1S renormalized

     -------------------------------------------------
     Parameters for Dispersion (Grimme-D2) Correction:
     -------------------------------------------------
       atom      VdW radius       C_6     

        Ni         2.952        374.666
        P          3.222        271.980
        O          2.536         24.284
        H          1.892          4.857

     Subspace diagonalization in iterative solution of the eigenvalue problem:
     a serial algorithm will be used

 
     Parallelization info
     --------------------
     sticks:   dense  smooth     PW     G-vecs:    dense   smooth      PW
     Min         673     269     72               192489    48693    6732
     Max         674     270     73               192498    48700    6738
     Sum       13471    5389   1449              3849851   973915  134709
 


     bravais-lattice index     =            0
     lattice parameter (alat)  =      17.7231  a.u.
     unit-cell volume          =   20392.3702 (a.u.)^3
     number of atoms/cell      =          158
     number of atomic types    =            4
     number of electrons       =      1063.00
     number of Kohn-Sham states=          638
     kinetic-energy cutoff     =      50.0000  Ry
     charge density cutoff     =     500.0000  Ry
     scf convergence threshold =      1.0E-06
     mixing beta               =       0.2000
     number of iterations used =            8  plain     mixing
     Exchange-correlation=  SLA  PW   PBE  PBE
                           (   1   4   3   4   0   0   0)

     celldm(1)=  17.723132  celldm(2)=   0.000000  celldm(3)=   0.000000
     celldm(4)=   0.000000  celldm(5)=   0.000000  celldm(6)=   0.000000

     crystal axes: (cart. coord. in units of alat)
               a(1) = (   1.000000   0.000000   0.000000 )  
               a(2) = (   0.000000   1.078504   0.000000 )  
               a(3) = (   0.000000   0.000000   3.396445 )  

     reciprocal axes: (cart. coord. in units 2 pi/alat)
               b(1) = (  1.000000  0.000000  0.000000 )  
               b(2) = (  0.000000  0.927210  0.000000 )  
               b(3) = (  0.000000  0.000000  0.294425 )  


     PseudoPot. # 1 for Ni read from file:
     /home/praktikum/PSEUDO/Ni.pbe-n-rrkjus_psl.1.0.0.UPF
     MD5 check sum: 0fbcd075604c6694e0d643a0634a3f21
     Pseudo is Ultrasoft + core correction, Zval = 10.0
     Generated using "atomic" code by A. Dal Corso  v.5.1.2
     Using radial grid of 1195 points,  6 beta functions with: 
                l(1) =   0
                l(2) =   0
                l(3) =   1
                l(4) =   1
                l(5) =   2
                l(6) =   2
     Q(r) pseudized with 0 coefficients 


     PseudoPot. # 2 for P  read from file:
     /home/praktikum/PSEUDO/P.pbe-n-rrkjus_psl.1.0.0.UPF
     MD5 check sum: 4687844b46ff2552cf7009614ac2afe1
     Pseudo is Ultrasoft + core correction, Zval =  5.0
     Generated using "atomic" code by A. Dal Corso  v.5.1.2
     Using radial grid of 1147 points,  6 beta functions with: 
                l(1) =   0
                l(2) =   0
                l(3) =   1
                l(4) =   1
                l(5) =   2
                l(6) =   2
     Q(r) pseudized with 0 coefficients 


     PseudoPot. # 3 for O  read from file:
     /home/praktikum/PSEUDO/O.pbe-rrkjus.UPF
     MD5 check sum: 390ba29e75625707450f3bd3f0eb6be9
     Pseudo is Ultrasoft, Zval =  6.0
     Generated by new atomic code, or converted to UPF format
     Using radial grid of 1269 points,  4 beta functions with: 
                l(1) =   0
                l(2) =   0
                l(3) =   1
                l(4) =   1
     Q(r) pseudized with 0 coefficients 


     PseudoPot. # 4 for H  read from file:
     /home/praktikum/PSEUDO/H.pbe-rrkjus.UPF
     MD5 check sum: 7cc9d459525c9a0585f487a71c3c9563
     Pseudo is Ultrasoft, Zval =  1.0
     Generated by new atomic code, or converted to UPF format
     Using radial grid of 1061 points,  2 beta functions with: 
                l(1) =   0
                l(2) =   0
     Q(r) pseudized with 0 coefficients 


     atomic species   valence    mass     pseudopotential
        Ni            10.00    58.69340     Ni( 1.00)
        P              5.00    30.97376     P ( 1.00)
        O              6.00    15.99940     O ( 1.00)
        H              1.00     1.00794     H ( 1.00)

     Starting magnetic structure 
     atomic species   magnetization
        Ni           1.000
        P            1.000
        O            1.000
        H            0.000

     No symmetry found



   Cartesian axes

     site n.     atom                  positions (alat units)
         1           Ni  tau(   1) = (   0.2425939   0.8289547   0.1232563  )
         2           Ni  tau(   2) = (   0.4925939   0.7682479   0.4397296  )
         3           Ni  tau(   3) = (   0.0074061   0.2897028   0.1232563  )
         4           Ni  tau(   4) = (   0.2574061   0.2289960   0.4397296  )
         5           Ni  tau(   5) = (   0.0000000   1.0682273   0.2814930  )
         6           Ni  tau(   6) = (   0.2500000   0.5289753   0.2814930  )
         7           P   tau(   7) = (   0.2099015   0.9623143   0.4372472  )
         8           P   tau(   8) = (   0.4599015   0.6348883   0.1257387  )
         9           P   tau(   9) = (   0.2900985   0.0956364   0.1257387  )
        10           P   tau(  10) = (   0.0400985   0.4230624   0.4372472  )
        11           O   tau(  11) = (   0.1313289   0.8921807   0.3011581  )
        12           O   tau(  12) = (   0.3813289   0.7050219   0.2618278  )
        13           O   tau(  13) = (   0.3686711   0.1657700   0.2618278  )
        14           O   tau(  14) = (   0.1186711   0.3529288   0.3011581  )
        15           O   tau(  15) = (   0.1470808   0.8739426   0.5619197  )
        16           O   tau(  16) = (   0.3970808   0.7232600   0.0010662  )
        17           O   tau(  17) = (   0.3529192   0.1840081   0.0010662  )
        18           O   tau(  18) = (   0.1029192   0.3346907   0.5619197  )
        19           O   tau(  19) = (   0.0983097   0.5786104   0.4338456  )
        20           O   tau(  20) = (   0.3483097   1.0185922   0.1291403  )
        21           O   tau(  21) = (   0.3763566   0.4168410   0.4274499  )
        22           O   tau(  22) = (   0.1263566   0.1018578   0.1355360  )
        23           O   tau(  23) = (   0.1236434   0.6411097   0.1355360  )
        24           O   tau(  24) = (   0.4016903   0.4793403   0.1291403  )
        25           O   tau(  25) = (   0.1516903   0.0393585   0.4338456  )
        26           O   tau(  26) = (   0.3736434   0.9560929   0.4274499  )
        27           Ni  tau(  27) = (   0.2425939   0.8084016   0.7413658  )
        28           Ni  tau(  28) = (   0.4925939   0.7476948   1.0578391  )
        29           Ni  tau(  29) = (   0.0074061   0.2691497   0.7413658  )
        30           Ni  tau(  30) = (   0.2574061   0.2084429   1.0578391  )
        31           Ni  tau(  31) = (   0.0000000   1.0476741   0.8996025  )
        32           Ni  tau(  32) = (   0.2500000   0.5084222   0.8996025  )
        33           P   tau(  33) = (   0.2099015   0.9417612   1.0553567  )
        34           P   tau(  34) = (   0.4599015   0.6143352   0.7438483  )
        35           P   tau(  35) = (   0.2900985   0.0750833   0.7438483  )
        36           P   tau(  36) = (   0.0400985   0.4025093   1.0553567  )
        37           O   tau(  37) = (   0.1313289   0.8716276   0.9192676  )
        38           O   tau(  38) = (   0.3813289   0.6844688   0.8799374  )
        39           O   tau(  39) = (   0.3686711   0.1452169   0.8799374  )
        40           O   tau(  40) = (   0.1186711   0.3323757   0.9192676  )
        41           O   tau(  41) = (   0.1470808   0.8533895   1.1800292  )
        42           O   tau(  42) = (   0.3970808   0.7027069   0.6191758  )
        43           O   tau(  43) = (   0.3529192   0.1634550   0.6191758  )
        44           O   tau(  44) = (   0.1029192   0.3141376   1.1800292  )
        45           O   tau(  45) = (   0.0983097   0.5580573   1.0519551  )
        46           O   tau(  46) = (   0.3483097   0.9980391   0.7472498  )
        47           O   tau(  47) = (   0.3763566   0.3962879   1.0455594  )
        48           O   tau(  48) = (   0.1263566   0.0813047   0.7536455  )
        49           O   tau(  49) = (   0.1236434   0.6205566   0.7536455  )
        50           O   tau(  50) = (   0.4016903   0.4587872   0.7472498  )
        51           O   tau(  51) = (   0.1516903   0.0188054   1.0519551  )
        52           O   tau(  52) = (   0.3736434   0.9355398   1.0455594  )
        53           Ni  tau(  53) = (   0.2424041   0.7897793   1.3618974  )
        54           Ni  tau(  54) = (   0.4879612   0.7218564   1.6914308  )
        55           Ni  tau(  55) = (   0.0079170   0.2505787   1.3612627  )
        56           Ni  tau(  56) = (   0.2468086   0.1935142   1.6639243  )
        57           Ni  tau(  57) = (   0.0017035   1.0290340   1.5213760  )
        58           Ni  tau(  58) = (   0.2474179   0.4910684   1.5250240  )
        59           P   tau(  59) = (   0.2112199   0.9236045   1.6823438  )
        60           P   tau(  60) = (   0.4591813   0.5957823   1.3658078  )
        61           P   tau(  61) = (   0.2917127   0.0548729   1.3629876  )
        62           P   tau(  62) = (   0.0343831   0.3802729   1.6827085  )
        63           O   tau(  63) = (   0.1344982   0.8581762   1.5384087  )
        64           O   tau(  64) = (   0.3821749   0.6677915   1.5018960  )
        65           O   tau(  65) = (   0.3696684   0.1247784   1.4995401  )
        66           O   tau(  66) = (   0.1141586   0.3197959   1.5372841  )
        67           O   tau(  67) = (   0.1477250   0.8282157   1.7986512  )
        68           O   tau(  68) = (   0.3971844   0.6837803   1.2400827  )
        69           O   tau(  69) = (   0.3536769   0.1435761   1.2380891  )
        70           O   tau(  70) = (   0.0972401   0.2831089   1.7964957  )
        71           O   tau(  71) = (   0.0885696   0.5385964   1.6812115  )
        72           O   tau(  72) = (   0.3499269   0.9780557   1.3669542  )
        73           O   tau(  73) = (   0.3712541   0.3723768   1.6655885  )
        74           O   tau(  74) = (   0.1279370   0.0627700   1.3746559  )
        75           O   tau(  75) = (   0.1221086   0.6022924   1.3766974  )
        76           O   tau(  76) = (   0.4000629   0.4406261   1.3697735  )
        77           O   tau(  77) = (   0.1539963   1.0802196   1.6787776  )
        78           O   tau(  78) = (   0.3757257   0.9187392   1.6710614  )
        79           Ni  tau(  79) = (   0.7425939   0.8289547   0.1232563  )
        80           Ni  tau(  80) = (   0.9925939   0.7682479   0.4397296  )
        81           Ni  tau(  81) = (   0.5074061   0.2897028   0.1232563  )
        82           Ni  tau(  82) = (   0.7574061   0.2289960   0.4397296  )
        83           Ni  tau(  83) = (   0.5000000   1.0682273   0.2814930  )
        84           Ni  tau(  84) = (   0.7500000   0.5289753   0.2814930  )
        85           P   tau(  85) = (   0.7099015   0.9623143   0.4372472  )
        86           P   tau(  86) = (   0.9599015   0.6348883   0.1257387  )
        87           P   tau(  87) = (   0.7900985   0.0956364   0.1257387  )
        88           P   tau(  88) = (   0.5400985   0.4230624   0.4372472  )
        89           O   tau(  89) = (   0.6313289   0.8921807   0.3011581  )
        90           O   tau(  90) = (   0.8813289   0.7050219   0.2618278  )
        91           O   tau(  91) = (   0.8686711   0.1657700   0.2618278  )
        92           O   tau(  92) = (   0.6186711   0.3529288   0.3011581  )
        93           O   tau(  93) = (   0.6470808   0.8739426   0.5619197  )
        94           O   tau(  94) = (   0.8970808   0.7232600   0.0010662  )
        95           O   tau(  95) = (   0.8529192   0.1840081   0.0010662  )
        96           O   tau(  96) = (   0.6029192   0.3346907   0.5619197  )
        97           O   tau(  97) = (   0.5983097   0.5786104   0.4338456  )
        98           O   tau(  98) = (   0.8483097   1.0185922   0.1291403  )
        99           O   tau(  99) = (   0.8763566   0.4168410   0.4274499  )
       100           O   tau( 100) = (   0.6263566   0.1018578   0.1355360  )
       101           O   tau( 101) = (   0.6236434   0.6411097   0.1355360  )
       102           O   tau( 102) = (   0.9016903   0.4793403   0.1291403  )
       103           O   tau( 103) = (   0.6516903   0.0393585   0.4338456  )
       104           O   tau( 104) = (   0.8736434   0.9560929   0.4274499  )
       105           Ni  tau( 105) = (   0.7425939   0.8084016   0.7413658  )
       106           Ni  tau( 106) = (   0.9925939   0.7476948   1.0578391  )
       107           Ni  tau( 107) = (   0.5074061   0.2691497   0.7413658  )
       108           Ni  tau( 108) = (   0.7574061   0.2084429   1.0578391  )
       109           Ni  tau( 109) = (   0.5000000   1.0476741   0.8996025  )
       110           Ni  tau( 110) = (   0.7500000   0.5084222   0.8996025  )
       111           P   tau( 111) = (   0.7099015   0.9417612   1.0553567  )
       112           P   tau( 112) = (   0.9599015   0.6143352   0.7438483  )
       113           P   tau( 113) = (   0.7900985   0.0750833   0.7438483  )
       114           P   tau( 114) = (   0.5400985   0.4025093   1.0553567  )
       115           O   tau( 115) = (   0.6313289   0.8716276   0.9192676  )
       116           O   tau( 116) = (   0.8813289   0.6844688   0.8799374  )
       117           O   tau( 117) = (   0.8686711   0.1452169   0.8799374  )
       118           O   tau( 118) = (   0.6186711   0.3323757   0.9192676  )
       119           O   tau( 119) = (   0.6470808   0.8533895   1.1800292  )
       120           O   tau( 120) = (   0.8970808   0.7027069   0.6191758  )
       121           O   tau( 121) = (   0.8529192   0.1634550   0.6191758  )
       122           O   tau( 122) = (   0.6029192   0.3141376   1.1800292  )
       123           O   tau( 123) = (   0.5983097   0.5580573   1.0519551  )
       124           O   tau( 124) = (   0.8483097   0.9980391   0.7472498  )
       125           O   tau( 125) = (   0.8763566   0.3962879   1.0455594  )
       126           O   tau( 126) = (   0.6263566   0.0813047   0.7536455  )
       127           O   tau( 127) = (   0.6236434   0.6205566   0.7536455  )
       128           O   tau( 128) = (   0.9016903   0.4587872   0.7472498  )
       129           O   tau( 129) = (   0.6516903   0.0188054   1.0519551  )
       130           O   tau( 130) = (   0.8736434   0.9355398   1.0455594  )
       131           Ni  tau( 131) = (   0.7426462   0.7898639   1.3604014  )
       132           Ni  tau( 132) = (  -0.0002066   0.7318828   1.6641114  )
       133           Ni  tau( 133) = (   0.5077061   0.2501780   1.3613832  )
       134           Ni  tau( 134) = (   0.7465307   0.1894565   1.6642078  )
       135           Ni  tau( 135) = (   0.5021934   1.0264055   1.5228946  )
       136           Ni  tau( 136) = (   0.7455086   0.4886102   1.5220246  )
       137           P   tau( 137) = (   0.7116866   0.9161767   1.6766996  )
       138           P   tau( 138) = (   0.9583802   0.5938581   1.3632324  )
       139           P   tau( 139) = (   0.7914519   0.0546979   1.3621112  )
       140           P   tau( 140) = (   0.5357885   0.3763012   1.6821380  )
       141           O   tau( 141) = (   0.6346394   0.8568156   1.5335737  )
       142           O   tau( 142) = (   0.8794257   0.6646640   1.4988356  )
       143           O   tau( 143) = (   0.8695763   0.1251491   1.4988234  )
       144           O   tau( 144) = (   0.6152561   0.3146265   1.5364006  )
       145           O   tau( 145) = (   0.6515338   0.8192773   1.7930363  )
       146           O   tau( 146) = (   0.8970925   0.6818609   1.2376106  )
       147           O   tau( 147) = (   0.8535847   0.1440758   1.2378023  )
       148           O   tau( 148) = (   0.5952313   0.2763491   1.7954797  )
       149           O   tau( 149) = (   0.5957950   0.5319332   1.6778728  )
       150           O   tau( 150) = (   0.8513096   0.9784304   1.3652427  )
       151           O   tau( 151) = (   0.8698230   0.3735298   1.6681144  )
       152           O   tau( 152) = (   0.6278063   0.0613643   1.3739427  )
       153           O   tau( 153) = (   0.6230504   0.6013695   1.3747416  )
       154           O   tau( 154) = (   0.8997892   0.4387455   1.3673113  )
       155           O   tau( 155) = (   0.6572909   1.0746654   1.6784301  )
       156           O   tau( 156) = (   0.8772072   0.9129255   1.6662148  )
       157           O   tau( 157) = (   0.3752302   0.6425654   1.8273188  )
       158           H   tau( 158) = (   0.2897206   0.7030360   1.8481288  )

     number of k points=    10  Gaussian smearing, width (Ry)=  0.0100
                       cart. coord. in units 2pi/alat
        k(    1) = (   0.0000000   0.0000000   0.0000000), wk =   0.0625000
        k(    2) = (   0.0000000   0.2318026   0.0000000), wk =   0.1250000
        k(    3) = (   0.0000000  -0.4636052   0.0000000), wk =   0.0625000
        k(    4) = (   0.2500000   0.0000000   0.0000000), wk =   0.1250000
        k(    5) = (   0.2500000   0.2318026   0.0000000), wk =   0.1250000
        k(    6) = (   0.2500000  -0.4636052   0.0000000), wk =   0.1250000
        k(    7) = (   0.2500000  -0.2318026   0.0000000), wk =   0.1250000
        k(    8) = (  -0.5000000   0.0000000   0.0000000), wk =   0.0625000
        k(    9) = (  -0.5000000   0.2318026   0.0000000), wk =   0.1250000
        k(   10) = (  -0.5000000  -0.4636052   0.0000000), wk =   0.0625000

     Dense  grid:  3849851 G-vectors     FFT dimensions: ( 128, 144, 432)

     Smooth grid:   973915 G-vectors     FFT dimensions: (  80,  90, 288)

     Estimated max dynamical RAM per process >       2.95 GB

     Estimated total dynamical RAM >      59.02 GB
     Generating pointlists ...
     new r_m :   0.0798 (alat units)  1.4150 (a.u.) for type    1
     new r_m :   0.0669 (alat units)  1.1865 (a.u.) for type    2
     new r_m :   0.0440 (alat units)  0.7806 (a.u.) for type    3
     new r_m :   0.0440 (alat units)  0.7806 (a.u.) for type    4

     Initial potential from superposition of free atoms

     starting charge 1062.89078, renormalised to 1063.00000

     negative rho (up, down):  1.107E-03 4.590E-04
 
     Adding external electric field

     Computed dipole along edir(3) : 
        Dipole                1.6045 Ry au,          4.0782 Debye
        Dipole field          0.0010 Ry au, 
 
        Potential amp.       -0.1071 Ry
        Total length         54.1761 bohr
 
 
     Adding external electric field

     Computed dipole along edir(3) : 
        Dipole                1.6045 Ry au,          4.0782 Debye
        Dipole field          0.0010 Ry au, 
 
        Potential amp.       -0.1071 Ry
        Total length         54.1761 bohr
 
     Starting wfcs are  809 randomized atomic wfcs

     total cpu time spent up to now is      724.0 secs

     Self-consistent Calculation

     iteration #  1     ecut=    50.00 Ry     beta= 0.20
     Davidson diagonalization with overlap
     ethr =  1.00E-02,  avg # of iterations =  6.0

     negative rho (up, down):  4.092E-04 0.000E+00
 
     Adding external electric field

     Computed dipole along edir(3) : 
        Dipole             -127.8469 Ry au,       -324.9544 Debye
        Dipole field         -0.0788 Ry au, 
 
        Potential amp.        8.5363 Ry
        Total length         54.1761 bohr
 
 
     Adding external electric field

     Computed dipole along edir(3) : 
        Dipole             -127.8469 Ry au,       -324.9544 Debye
        Dipole field         -0.0788 Ry au, 
 
        Potential amp.        8.5363 Ry
        Total length         54.1761 bohr
 

     total cpu time spent up to now is     3866.7 secs

     total energy              =   -6643.87448582 Ry
     estimated scf accuracy    <     755.66512980 Ry

     total magnetization       =   213.00 Bohr mag/cell
     absolute magnetization    =   290.42 Bohr mag/cell

     iteration #  2     ecut=    50.00 Ry     beta= 0.20
     Davidson diagonalization with overlap
     c_bands:  1 eigenvalues not converged
     c_bands:  1 eigenvalues not converged
     c_bands:  4 eigenvalues not converged
     ethr =  1.00E-02,  avg # of iterations = 15.5

     negative rho (up, down):  2.140E-04 0.000E+00
 
     Adding external electric field

     Computed dipole along edir(3) : 
        Dipole              -24.7693 Ry au,        -62.9574 Debye
        Dipole field         -0.0153 Ry au, 
 
        Potential amp.        1.6538 Ry
        Total length         54.1761 bohr
 
 
     Adding external electric field

     Computed dipole along edir(3) : 
        Dipole              -24.7693 Ry au,        -62.9574 Debye
        Dipole field         -0.0153 Ry au, 
 
        Potential amp.        1.6538 Ry
        Total length         54.1761 bohr
 

     total cpu time spent up to now is    11241.8 secs

     total energy              =   -6046.94069428 Ry
     estimated scf accuracy    <  181436.06784255 Ry

     total magnetization       =   126.40 Bohr mag/cell
     absolute magnetization    =   128.01 Bohr mag/cell

     iteration #  3     ecut=    50.00 Ry     beta= 0.20
     Davidson diagonalization with overlap
     ethr =  1.00E-02,  avg # of iterations = 12.8

     negative rho (up, down):  1.311E-04 0.000E+00
 
     Adding external electric field

     Computed dipole along edir(3) : 
        Dipole              -14.9467 Ry au,        -37.9907 Debye
        Dipole field         -0.0092 Ry au, 
 
        Potential amp.        0.9980 Ry
        Total length         54.1761 bohr
 
 
     Adding external electric field

     Computed dipole along edir(3) : 
        Dipole              -14.9467 Ry au,        -37.9907 Debye
        Dipole field         -0.0092 Ry au, 
 
        Potential amp.        0.9980 Ry
        Total length         54.1761 bohr
 

     total cpu time spent up to now is    18531.7 secs

     total energy              =   -6672.50674538 Ry
     estimated scf accuracy    <   17843.90758307 Ry

     total magnetization       =   154.95 Bohr mag/cell
     absolute magnetization    =   162.28 Bohr mag/cell

     iteration #  4     ecut=    50.00 Ry     beta= 0.20
     Davidson diagonalization with overlap
     ethr =  1.00E-02,  avg # of iterations = 12.8

     negative rho (up, down):  4.377E-05 0.000E+00
 
     Adding external electric field

     Computed dipole along edir(3) : 
        Dipole               -8.9525 Ry au,        -22.7550 Debye
        Dipole field         -0.0055 Ry au, 
 
        Potential amp.        0.5978 Ry
        Total length         54.1761 bohr
 
 
     Adding external electric field

     Computed dipole along edir(3) : 
        Dipole               -8.9525 Ry au,        -22.7550 Debye
        Dipole field         -0.0055 Ry au, 
 
        Potential amp.        0.5978 Ry
        Total length         54.1761 bohr
 

     total cpu time spent up to now is    23438.8 secs

     total energy              =   -6934.50954567 Ry
     estimated scf accuracy    <     564.35697561 Ry

     total magnetization       =   200.66 Bohr mag/cell
     absolute magnetization    =   218.66 Bohr mag/cell

     iteration #  5     ecut=    50.00 Ry     beta= 0.20
     Davidson diagonalization with overlap
     ethr =  1.00E-02,  avg # of iterations =  6.2

     negative rho (up, down):  4.344E-05 0.000E+00
 
     Adding external electric field

     Computed dipole along edir(3) : 
        Dipole              -12.1190 Ry au,        -30.8035 Debye
        Dipole field         -0.0075 Ry au, 
 
        Potential amp.        0.8092 Ry
        Total length         54.1761 bohr
 
 
     Adding external electric field

     Computed dipole along edir(3) : 
        Dipole              -12.1190 Ry au,        -30.8035 Debye
        Dipole field         -0.0075 Ry au, 
 
        Potential amp.        0.8092 Ry
        Total length         54.1761 bohr
 

     total cpu time spent up to now is    25493.3 secs

     total energy              =   -6962.72501531 Ry
     estimated scf accuracy    <     745.29076552 Ry

     total magnetization       =   141.42 Bohr mag/cell
     absolute magnetization    =   174.50 Bohr mag/cell

     iteration #  6     ecut=    50.00 Ry     beta= 0.20
     Davidson diagonalization with overlap
     ethr =  1.00E-02,  avg # of iterations =  1.6

     negative rho (up, down):  4.806E-05 0.000E+00
 
     Adding external electric field

     Computed dipole along edir(3) : 
        Dipole              -10.9635 Ry au,        -27.8665 Debye
        Dipole field         -0.0068 Ry au, 
 
        Potential amp.        0.7320 Ry
        Total length         54.1761 bohr
 
 
     Adding external electric field

     Computed dipole along edir(3) : 
        Dipole              -10.9635 Ry au,        -27.8665 Debye
        Dipole field         -0.0068 Ry au, 
 
        Potential amp.        0.7320 Ry
        Total length         54.1761 bohr
 

     total cpu time spent up to now is    27016.1 secs

     total energy              =   -6975.13092640 Ry
     estimated scf accuracy    <     216.91276246 Ry

     total magnetization       =   120.14 Bohr mag/cell
     absolute magnetization    =   156.76 Bohr mag/cell

     iteration #  7     ecut=    50.00 Ry     beta= 0.20
     Davidson diagonalization with overlap
     ethr =  1.00E-02,  avg # of iterations =  1.5

     negative rho (up, down):  6.130E-05 0.000E+00
 
     Adding external electric field

     Computed dipole along edir(3) : 
        Dipole               -9.8739 Ry au,        -25.0970 Debye
        Dipole field         -0.0061 Ry au, 
 
        Potential amp.        0.6593 Ry
        Total length         54.1761 bohr
 
 
     Adding external electric field

     Computed dipole along edir(3) : 
        Dipole               -9.8739 Ry au,        -25.0970 Debye
        Dipole field         -0.0061 Ry au, 
 
        Potential amp.        0.6593 Ry
        Total length         54.1761 bohr
 

     total cpu time spent up to now is    28531.8 secs

     total energy              =   -6986.66103350 Ry
     estimated scf accuracy    <     105.11490216 Ry

     total magnetization       =   100.19 Bohr mag/cell
     absolute magnetization    =   143.28 Bohr mag/cell

     iteration #  8     ecut=    50.00 Ry     beta= 0.20
     Davidson diagonalization with overlap
     ethr =  9.89E-03,  avg # of iterations =  1.5

     negative rho (up, down):  9.039E-05 0.000E+00
 
     Adding external electric field

     Computed dipole along edir(3) : 
        Dipole               -8.3620 Ry au,        -21.2540 Debye
        Dipole field         -0.0052 Ry au, 
 
        Potential amp.        0.5583 Ry
        Total length         54.1761 bohr
 
 
     Adding external electric field

     Computed dipole along edir(3) : 
        Dipole               -8.3620 Ry au,        -21.2540 Debye
        Dipole field         -0.0052 Ry au, 
 
        Potential amp.        0.5583 Ry
        Total length         54.1761 bohr
 

     total cpu time spent up to now is    30113.4 secs

     total energy              =   -7000.24369444 Ry
     estimated scf accuracy    <     125.38226644 Ry

     total magnetization       =    92.14 Bohr mag/cell
     absolute magnetization    =   136.52 Bohr mag/cell

     iteration #  9     ecut=    50.00 Ry     beta= 0.20
     Davidson diagonalization with overlap
     ethr =  9.89E-03,  avg # of iterations =  1.5

     negative rho (up, down):  1.387E-04 0.000E+00
 
     Adding external electric field

     Computed dipole along edir(3) : 
        Dipole               -5.2271 Ry au,        -13.2860 Debye
        Dipole field         -0.0032 Ry au, 
 
        Potential amp.        0.3490 Ry
        Total length         54.1761 bohr
 
 
     Adding external electric field

     Computed dipole along edir(3) : 
        Dipole               -5.2271 Ry au,        -13.2860 Debye
        Dipole field         -0.0032 Ry au, 
 
        Potential amp.        0.3490 Ry
        Total length         54.1761 bohr
 

     total cpu time spent up to now is    31661.3 secs

     total energy              =   -7021.49144120 Ry
     estimated scf accuracy    <      77.60648764 Ry

     total magnetization       =    85.14 Bohr mag/cell
     absolute magnetization    =   128.45 Bohr mag/cell

     iteration # 10     ecut=    50.00 Ry     beta= 0.20
     Davidson diagonalization with overlap
     ethr =  7.30E-03,  avg # of iterations =  1.0

     negative rho (up, down):  2.739E-04 0.000E+00
 
     Adding external electric field

     Computed dipole along edir(3) : 
        Dipole               -2.0749 Ry au,         -5.2738 Debye
        Dipole field         -0.0013 Ry au, 
 
        Potential amp.        0.1385 Ry
        Total length         54.1761 bohr
 
 
     Adding external electric field

     Computed dipole along edir(3) : 
        Dipole               -2.0749 Ry au,         -5.2738 Debye
        Dipole field         -0.0013 Ry au, 
 
        Potential amp.        0.1385 Ry
        Total length         54.1761 bohr
 

     total cpu time spent up to now is    33141.5 secs

     total energy              =   -7042.66618015 Ry
     estimated scf accuracy    <     236.56118584 Ry

     total magnetization       =    81.05 Bohr mag/cell
     absolute magnetization    =   118.05 Bohr mag/cell

     iteration # 11     ecut=    50.00 Ry     beta= 0.20
     Davidson diagonalization with overlap
     ethr =  7.30E-03,  avg # of iterations =  1.0

     negative rho (up, down):  3.046E-04 0.000E+00
 
     Adding external electric field

     Computed dipole along edir(3) : 
        Dipole               -5.2883 Ry au,        -13.4415 Debye
        Dipole field         -0.0033 Ry au, 
 
        Potential amp.        0.3531 Ry
        Total length         54.1761 bohr
 
 
     Adding external electric field

     Computed dipole along edir(3) : 
        Dipole               -5.2883 Ry au,        -13.4415 Debye
        Dipole field         -0.0033 Ry au, 
 
        Potential amp.        0.3531 Ry
        Total length         54.1761 bohr
 

     total cpu time spent up to now is    34622.1 secs

     total energy              =   -7047.21452511 Ry
     estimated scf accuracy    <     162.37908867 Ry

     total magnetization       =    65.69 Bohr mag/cell
     absolute magnetization    =    94.96 Bohr mag/cell

     iteration # 12     ecut=    50.00 Ry     beta= 0.20
     Davidson diagonalization with overlap
     ethr =  7.30E-03,  avg # of iterations =  1.0

     negative rho (up, down):  3.758E-04 0.000E+00
 
     Adding external electric field

     Computed dipole along edir(3) : 
        Dipole               -1.8905 Ry au,         -4.8051 Debye
        Dipole field         -0.0012 Ry au, 
 
        Potential amp.        0.1262 Ry
        Total length         54.1761 bohr
 
 
     Adding external electric field

     Computed dipole along edir(3) : 
        Dipole               -1.8905 Ry au,         -4.8051 Debye
        Dipole field         -0.0012 Ry au, 
 
        Potential amp.        0.1262 Ry
        Total length         54.1761 bohr
 

     total cpu time spent up to now is    36111.7 secs

     total energy              =   -7050.14248694 Ry
     estimated scf accuracy    <     262.39284859 Ry

     total magnetization       =    75.36 Bohr mag/cell
     absolute magnetization    =    98.71 Bohr mag/cell

     iteration # 13     ecut=    50.00 Ry     beta= 0.20
     Davidson diagonalization with overlap
     ethr =  7.30E-03,  avg # of iterations =  1.0

     negative rho (up, down):  4.469E-04 0.000E+00
 
     Adding external electric field

     Computed dipole along edir(3) : 
        Dipole               -1.1191 Ry au,         -2.8444 Debye
        Dipole field         -0.0007 Ry au, 
 
        Potential amp.        0.0747 Ry
        Total length         54.1761 bohr
 
 
     Adding external electric field

     Computed dipole along edir(3) : 
        Dipole               -1.1191 Ry au,         -2.8444 Debye
        Dipole field         -0.0007 Ry au, 
 
        Potential amp.        0.0747 Ry
        Total length         54.1761 bohr
 

     total cpu time spent up to now is    37602.5 secs

     total energy              =   -7054.40187813 Ry
     estimated scf accuracy    <      56.38822975 Ry

     total magnetization       =    73.00 Bohr mag/cell
     absolute magnetization    =    94.24 Bohr mag/cell

     iteration # 14     ecut=    50.00 Ry     beta= 0.20
     Davidson diagonalization with overlap
     ethr =  5.30E-03,  avg # of iterations =  1.0

     negative rho (up, down):  4.604E-04 0.000E+00
 
     Adding external electric field

     Computed dipole along edir(3) : 
        Dipole               -1.9754 Ry au,         -5.0209 Debye
        Dipole field         -0.0012 Ry au, 
 
        Potential amp.        0.1319 Ry
        Total length         54.1761 bohr
 
 
     Adding external electric field

     Computed dipole along edir(3) : 
        Dipole               -1.9754 Ry au,         -5.0209 Debye
        Dipole field         -0.0012 Ry au, 
 
        Potential amp.        0.1319 Ry
        Total length         54.1761 bohr
 

     total cpu time spent up to now is    39092.0 secs

     total energy              =   -7055.06315071 Ry
     estimated scf accuracy    <      46.00192162 Ry

     total magnetization       =    73.00 Bohr mag/cell
     absolute magnetization    =    90.71 Bohr mag/cell

     iteration # 15     ecut=    50.00 Ry     beta= 0.20
     Davidson diagonalization with overlap
     ethr =  4.33E-03,  avg # of iterations =  1.0

     negative rho (up, down):  4.611E-04 0.000E+00
 
     Adding external electric field

     Computed dipole along edir(3) : 
        Dipole                0.1983 Ry au,          0.5040 Debye
        Dipole field          0.0001 Ry au, 
 
        Potential amp.       -0.0132 Ry
        Total length         54.1761 bohr
 
 
     Adding external electric field

     Computed dipole along edir(3) : 
        Dipole                0.1983 Ry au,          0.5040 Debye
        Dipole field          0.0001 Ry au, 
 
        Potential amp.       -0.0132 Ry
        Total length         54.1761 bohr
 

     total cpu time spent up to now is    40582.3 secs

     total energy              =   -7054.90650307 Ry
     estimated scf accuracy    <      98.96014221 Ry

     total magnetization       =    72.99 Bohr mag/cell
     absolute magnetization    =    89.26 Bohr mag/cell

     iteration # 16     ecut=    50.00 Ry     beta= 0.20
     Davidson diagonalization with overlap
     ethr =  4.33E-03,  avg # of iterations =  1.0

     negative rho (up, down):  5.093E-04 0.000E+00
 
     Adding external electric field

     Computed dipole along edir(3) : 
        Dipole               -0.1722 Ry au,         -0.4378 Debye
        Dipole field         -0.0001 Ry au, 
 
        Potential amp.        0.0115 Ry
        Total length         54.1761 bohr
 
 
     Adding external electric field

     Computed dipole along edir(3) : 
        Dipole               -0.1722 Ry au,         -0.4378 Debye
        Dipole field         -0.0001 Ry au, 
 
        Potential amp.        0.0115 Ry
        Total length         54.1761 bohr
 

     total cpu time spent up to now is    42074.5 secs

     total energy              =   -7055.19537869 Ry
     estimated scf accuracy    <      51.79339010 Ry

     total magnetization       =    72.80 Bohr mag/cell
     absolute magnetization    =    88.27 Bohr mag/cell

     iteration # 17     ecut=    50.00 Ry     beta= 0.20
     Davidson diagonalization with overlap
     ethr =  4.33E-03,  avg # of iterations =  1.0

     negative rho (up, down):  5.267E-04 0.000E+00
 
     Adding external electric field

     Computed dipole along edir(3) : 
        Dipole                0.6323 Ry au,          1.6071 Debye
        Dipole field          0.0004 Ry au, 
 
        Potential amp.       -0.0422 Ry
        Total length         54.1761 bohr
 
 
     Adding external electric field

     Computed dipole along edir(3) : 
        Dipole                0.6323 Ry au,          1.6071 Debye
        Dipole field          0.0004 Ry au, 
 
        Potential amp.       -0.0422 Ry
        Total length         54.1761 bohr
 

     total cpu time spent up to now is    43565.9 secs

     total energy              =   -7055.06335335 Ry
     estimated scf accuracy    <      42.36451317 Ry

     total magnetization       =    69.17 Bohr mag/cell
     absolute magnetization    =    82.72 Bohr mag/cell

     iteration # 18     ecut=    50.00 Ry     beta= 0.20
     Davidson diagonalization with overlap
     ethr =  3.99E-03,  avg # of iterations =  1.0

     negative rho (up, down):  6.180E-04 0.000E+00
 
     Adding external electric field

     Computed dipole along edir(3) : 
        Dipole               -0.0305 Ry au,         -0.0774 Debye
        Dipole field         -0.0000 Ry au, 
 
        Potential amp.        0.0020 Ry
        Total length         54.1761 bohr
 
 
     Adding external electric field

     Computed dipole along edir(3) : 
        Dipole               -0.0305 Ry au,         -0.0774 Debye
        Dipole field         -0.0000 Ry au, 
 
        Potential amp.        0.0020 Ry
        Total length         54.1761 bohr
 

     total cpu time spent up to now is    45056.1 secs

     total energy              =   -7056.05630624 Ry
     estimated scf accuracy    <     119.34254394 Ry

     total magnetization       =    72.95 Bohr mag/cell
     absolute magnetization    =    85.83 Bohr mag/cell

     iteration # 19     ecut=    50.00 Ry     beta= 0.20
     Davidson diagonalization with overlap
     ethr =  3.99E-03,  avg # of iterations =  1.0

     negative rho (up, down):  5.271E-04 0.000E+00
 
     Adding external electric field

     Computed dipole along edir(3) : 
        Dipole               -0.1049 Ry au,         -0.2667 Debye
        Dipole field         -0.0001 Ry au, 
 
        Potential amp.        0.0070 Ry
        Total length         54.1761 bohr
 
 
     Adding external electric field

     Computed dipole along edir(3) : 
        Dipole               -0.1049 Ry au,         -0.2667 Debye
        Dipole field         -0.0001 Ry au, 
 
        Potential amp.        0.0070 Ry
        Total length         54.1761 bohr
 

     total cpu time spent up to now is    46544.3 secs

     total energy              =   -7056.51034586 Ry
     estimated scf accuracy    <      14.85352299 Ry

     total magnetization       =    72.31 Bohr mag/cell
     absolute magnetization    =    82.29 Bohr mag/cell

     iteration # 20     ecut=    50.00 Ry     beta= 0.20
     Davidson diagonalization with overlap
     ethr =  1.40E-03,  avg # of iterations =  1.0

     negative rho (up, down):  5.539E-04 0.000E+00
 
     Adding external electric field

     Computed dipole along edir(3) : 
        Dipole               -0.3594 Ry au,         -0.9135 Debye
        Dipole field         -0.0002 Ry au, 
 
        Potential amp.        0.0240 Ry
        Total length         54.1761 bohr
 
 
     Adding external electric field

     Computed dipole along edir(3) : 
        Dipole               -0.3594 Ry au,         -0.9135 Debye
        Dipole field         -0.0002 Ry au, 
 
        Potential amp.        0.0240 Ry
        Total length         54.1761 bohr
 

     total cpu time spent up to now is    48031.2 secs

     total energy              =   -7057.17441758 Ry
     estimated scf accuracy    <      10.15028014 Ry

     total magnetization       =    73.00 Bohr mag/cell
     absolute magnetization    =    83.24 Bohr mag/cell

     iteration # 21     ecut=    50.00 Ry     beta= 0.20
     Davidson diagonalization with overlap
     ethr =  9.55E-04,  avg # of iterations =  1.0

     negative rho (up, down):  5.792E-04 0.000E+00
 
     Adding external electric field

     Computed dipole along edir(3) : 
        Dipole                0.0533 Ry au,          0.1355 Debye
        Dipole field          0.0000 Ry au, 
 
        Potential amp.       -0.0036 Ry
        Total length         54.1761 bohr
 
 
     Adding external electric field

     Computed dipole along edir(3) : 
        Dipole                0.0533 Ry au,          0.1355 Debye
        Dipole field          0.0000 Ry au, 
 
        Potential amp.       -0.0036 Ry
        Total length         54.1761 bohr
 

     total cpu time spent up to now is    49518.2 secs

     total energy              =   -7057.31921982 Ry
     estimated scf accuracy    <      12.18548678 Ry

     total magnetization       =    72.83 Bohr mag/cell
     absolute magnetization    =    81.82 Bohr mag/cell

     iteration # 22     ecut=    50.00 Ry     beta= 0.20
     Davidson diagonalization with overlap
     ethr =  9.55E-04,  avg # of iterations =  1.0

     negative rho (up, down):  5.852E-04 0.000E+00
 
     Adding external electric field

     Computed dipole along edir(3) : 
        Dipole               -0.3613 Ry au,         -0.9182 Debye
        Dipole field         -0.0002 Ry au, 
 
        Potential amp.        0.0241 Ry
        Total length         54.1761 bohr
 
 
     Adding external electric field

     Computed dipole along edir(3) : 
        Dipole               -0.3613 Ry au,         -0.9182 Debye
        Dipole field         -0.0002 Ry au, 
 
        Potential amp.        0.0241 Ry
        Total length         54.1761 bohr
 

     total cpu time spent up to now is    51015.9 secs

     total energy              =   -7057.47895028 Ry
     estimated scf accuracy    <       4.12985916 Ry

     total magnetization       =    72.91 Bohr mag/cell
     absolute magnetization    =    80.80 Bohr mag/cell

     iteration # 23     ecut=    50.00 Ry     beta= 0.20
     Davidson diagonalization with overlap
     ethr =  3.89E-04,  avg # of iterations =  1.9

     negative rho (up, down):  5.582E-04 0.000E+00
 
     Adding external electric field

     Computed dipole along edir(3) : 
        Dipole                0.0761 Ry au,          0.1934 Debye
        Dipole field          0.0000 Ry au, 
 
        Potential amp.       -0.0051 Ry
        Total length         54.1761 bohr
 
 
     Adding external electric field

     Computed dipole along edir(3) : 
        Dipole                0.0761 Ry au,          0.1934 Debye
        Dipole field          0.0000 Ry au, 
 
        Potential amp.       -0.0051 Ry
        Total length         54.1761 bohr
 

     total cpu time spent up to now is    52639.5 secs

     total energy              =   -7057.35194850 Ry
     estimated scf accuracy    <       3.02764177 Ry

     total magnetization       =    72.96 Bohr mag/cell
     absolute magnetization    =    80.46 Bohr mag/cell

     iteration # 24     ecut=    50.00 Ry     beta= 0.20
     Davidson diagonalization with overlap
     ethr =  2.85E-04,  avg # of iterations =  3.3

     negative rho (up, down):  5.895E-04 0.000E+00
 
     Adding external electric field

     Computed dipole along edir(3) : 
        Dipole               -0.2479 Ry au,         -0.6301 Debye
        Dipole field         -0.0002 Ry au, 
 
        Potential amp.        0.0166 Ry
        Total length         54.1761 bohr
 
 
     Adding external electric field

     Computed dipole along edir(3) : 
        Dipole               -0.2479 Ry au,         -0.6301 Debye
        Dipole field         -0.0002 Ry au, 
 
        Potential amp.        0.0166 Ry
        Total length         54.1761 bohr
 

     total cpu time spent up to now is    54425.5 secs

     total energy              =   -7057.22958147 Ry
     estimated scf accuracy    <      25.82960820 Ry

     total magnetization       =    71.78 Bohr mag/cell
     absolute magnetization    =    79.95 Bohr mag/cell

     iteration # 25     ecut=    50.00 Ry     beta= 0.20
     Davidson diagonalization with overlap
     ethr =  2.85E-04,  avg # of iterations =  1.8

     negative rho (up, down):  5.835E-04 0.000E+00
 
     Adding external electric field

     Computed dipole along edir(3) : 
        Dipole               -0.1401 Ry au,         -0.3560 Debye
        Dipole field         -0.0001 Ry au, 
 
        Potential amp.        0.0094 Ry
        Total length         54.1761 bohr
 
 
     Adding external electric field

     Computed dipole along edir(3) : 
        Dipole               -0.1401 Ry au,         -0.3560 Debye
        Dipole field         -0.0001 Ry au, 
 
        Potential amp.        0.0094 Ry
        Total length         54.1761 bohr
 

     total cpu time spent up to now is    56017.0 secs

     total energy              =   -7057.63268850 Ry
     estimated scf accuracy    <       2.94960346 Ry

     total magnetization       =    72.86 Bohr mag/cell
     absolute magnetization    =    79.66 Bohr mag/cell

     iteration # 26     ecut=    50.00 Ry     beta= 0.20
     Davidson diagonalization with overlap
     ethr =  2.77E-04,  avg # of iterations =  2.0

     negative rho (up, down):  5.887E-04 0.000E+00
 
     Adding external electric field

     Computed dipole along edir(3) : 
        Dipole                0.1321 Ry au,          0.3359 Debye
        Dipole field          0.0001 Ry au, 
 
        Potential amp.       -0.0088 Ry
        Total length         54.1761 bohr
 
 
     Adding external electric field

     Computed dipole along edir(3) : 
        Dipole                0.1321 Ry au,          0.3359 Debye
        Dipole field          0.0001 Ry au, 
 
        Potential amp.       -0.0088 Ry
        Total length         54.1761 bohr
 

     total cpu time spent up to now is    57639.8 secs

     total energy              =   -7057.74487422 Ry
     estimated scf accuracy    <       0.49960940 Ry

     total magnetization       =    72.98 Bohr mag/cell
     absolute magnetization    =    79.57 Bohr mag/cell

     iteration # 27     ecut=    50.00 Ry     beta= 0.20
     Davidson diagonalization with overlap
     ethr =  4.70E-05,  avg # of iterations = 15.8

     negative rho (up, down):  5.994E-04 0.000E+00
 
     Adding external electric field

     Computed dipole along edir(3) : 
        Dipole               -0.0521 Ry au,         -0.1325 Debye
        Dipole field         -0.0000 Ry au, 
 
        Potential amp.        0.0035 Ry
        Total length         54.1761 bohr
 
 
     Adding external electric field

     Computed dipole along edir(3) : 
        Dipole               -0.0521 Ry au,         -0.1325 Debye
        Dipole field         -0.0000 Ry au, 
 
        Potential amp.        0.0035 Ry
        Total length         54.1761 bohr
 

     total cpu time spent up to now is    60190.7 secs

     total energy              =   -7057.81786942 Ry
     estimated scf accuracy    <       0.31596756 Ry

     total magnetization       =    72.94 Bohr mag/cell
     absolute magnetization    =    79.07 Bohr mag/cell

     iteration # 28     ecut=    50.00 Ry     beta= 0.20
     Davidson diagonalization with overlap
     ethr =  2.97E-05,  avg # of iterations =  2.0

     negative rho (up, down):  6.261E-04 0.000E+00
 
     Adding external electric field

     Computed dipole along edir(3) : 
        Dipole                0.0825 Ry au,          0.2098 Debye
        Dipole field          0.0001 Ry au, 
 
        Potential amp.       -0.0055 Ry
        Total length         54.1761 bohr
 
 
     Adding external electric field

     Computed dipole along edir(3) : 
        Dipole                0.0825 Ry au,          0.2098 Debye
        Dipole field          0.0001 Ry au, 
 
        Potential amp.       -0.0055 Ry
        Total length         54.1761 bohr
 

     total cpu time spent up to now is    61752.3 secs

     total energy              =   -7057.88038940 Ry
     estimated scf accuracy    <       0.19768964 Ry

     total magnetization       =    72.96 Bohr mag/cell
     absolute magnetization    =    78.39 Bohr mag/cell

     iteration # 29     ecut=    50.00 Ry     beta= 0.20
     Davidson diagonalization with overlap
     ethr =  1.86E-05,  avg # of iterations =  1.9

     negative rho (up, down):  9.481E-04 2.435E-04
 
     Adding external electric field

     Computed dipole along edir(3) : 
        Dipole               -0.2443 Ry au,         -0.6209 Debye
        Dipole field         -0.0002 Ry au, 
 
        Potential amp.        0.0163 Ry
        Total length         54.1761 bohr
 
 
     Adding external electric field

     Computed dipole along edir(3) : 
        Dipole               -0.2443 Ry au,         -0.6209 Debye
        Dipole field         -0.0002 Ry au, 
 
        Potential amp.        0.0163 Ry
        Total length         54.1761 bohr
 

     total cpu time spent up to now is    63368.2 secs

     total energy              =   -7057.92629384 Ry
     estimated scf accuracy    <       0.39338449 Ry

     total magnetization       =    72.50 Bohr mag/cell
     absolute magnetization    =    77.02 Bohr mag/cell

     iteration # 30     ecut=    50.00 Ry     beta= 0.20
     Davidson diagonalization with overlap
     c_bands:  2 eigenvalues not converged
     c_bands:  3 eigenvalues not converged
     c_bands:  1 eigenvalues not converged
     c_bands:  4 eigenvalues not converged
     c_bands:  3 eigenvalues not converged
     c_bands:  5 eigenvalues not converged
     c_bands:  5 eigenvalues not converged
     c_bands:  2 eigenvalues not converged
     ethr =  1.86E-05,  avg # of iterations = 13.2

     negative rho (up, down):  1.033E-03 1.030E-03
 
     Adding external electric field

     Computed dipole along edir(3) : 
        Dipole                0.1819 Ry au,          0.4622 Debye
        Dipole field          0.0001 Ry au, 
 
        Potential amp.       -0.0121 Ry
        Total length         54.1761 bohr
 
 
     Adding external electric field

     Computed dipole along edir(3) : 
        Dipole                0.1819 Ry au,          0.4622 Debye
        Dipole field          0.0001 Ry au, 
 
        Potential amp.       -0.0121 Ry
        Total length         54.1761 bohr
 

     total cpu time spent up to now is    65661.0 secs

     total energy              =   -7057.93890539 Ry
     estimated scf accuracy    <       0.38346170 Ry

     total magnetization       =    72.12 Bohr mag/cell
     absolute magnetization    =    75.31 Bohr mag/cell

     iteration # 31     ecut=    50.00 Ry     beta= 0.20
     Davidson diagonalization with overlap
     c_bands:  1 eigenvalues not converged
     ethr =  1.86E-05,  avg # of iterations =  3.0

     negative rho (up, down):  1.258E-03 4.722E-03
 
     Adding external electric field

     Computed dipole along edir(3) : 
        Dipole                0.0030 Ry au,          0.0076 Debye
        Dipole field          0.0000 Ry au, 
 
        Potential amp.       -0.0002 Ry
        Total length         54.1761 bohr
 
 
     Adding external electric field

     Computed dipole along edir(3) : 
        Dipole                0.0030 Ry au,          0.0076 Debye
        Dipole field          0.0000 Ry au, 
 
        Potential amp.       -0.0002 Ry
        Total length         54.1761 bohr
 

     total cpu time spent up to now is    67215.8 secs

     total energy              =   -7057.96227424 Ry
     estimated scf accuracy    <       0.09937221 Ry

     total magnetization       =    72.68 Bohr mag/cell
     absolute magnetization    =    75.57 Bohr mag/cell

     iteration # 32     ecut=    50.00 Ry     beta= 0.20
     Davidson diagonalization with overlap
     c_bands:  1 eigenvalues not converged
     ethr =  9.35E-06,  avg # of iterations =  2.9

     negative rho (up, down):  1.316E-03 6.080E-03
 
     Adding external electric field

     Computed dipole along edir(3) : 
        Dipole                0.0315 Ry au,          0.0800 Debye
        Dipole field          0.0000 Ry au, 
 
        Potential amp.       -0.0021 Ry
        Total length         54.1761 bohr
 
 
     Adding external electric field

     Computed dipole along edir(3) : 
        Dipole                0.0315 Ry au,          0.0800 Debye
        Dipole field          0.0000 Ry au, 
 
        Potential amp.       -0.0021 Ry
        Total length         54.1761 bohr
 

     total cpu time spent up to now is    68739.8 secs

     total energy              =   -7057.97019800 Ry
     estimated scf accuracy    <       0.01412653 Ry

     total magnetization       =    72.73 Bohr mag/cell
     absolute magnetization    =    75.21 Bohr mag/cell

     iteration # 33     ecut=    50.00 Ry     beta= 0.20
     Davidson diagonalization with overlap
     c_bands:  2 eigenvalues not converged
     c_bands:  3 eigenvalues not converged
     c_bands:  4 eigenvalues not converged
     c_bands:  3 eigenvalues not converged
     c_bands:  1 eigenvalues not converged
     c_bands:  4 eigenvalues not converged
     c_bands:  3 eigenvalues not converged
     c_bands:  4 eigenvalues not converged
     c_bands:  2 eigenvalues not converged
     c_bands:  3 eigenvalues not converged
     c_bands:  3 eigenvalues not converged
     c_bands:  2 eigenvalues not converged
     c_bands:  5 eigenvalues not converged
     c_bands:  3 eigenvalues not converged
     ethr =  1.33E-06,  avg # of iterations = 20.1

     negative rho (up, down):  1.249E-03 5.647E-03
 
     Adding external electric field

     Computed dipole along edir(3) : 
        Dipole               -0.0021 Ry au,         -0.0055 Debye
        Dipole field         -0.0000 Ry au, 
 
        Potential amp.        0.0001 Ry
        Total length         54.1761 bohr
 
 
     Adding external electric field

     Computed dipole along edir(3) : 
        Dipole               -0.0021 Ry au,         -0.0055 Debye
        Dipole field         -0.0000 Ry au, 
 
        Potential amp.        0.0001 Ry
        Total length         54.1761 bohr
 

     total cpu time spent up to now is    71423.1 secs

     total energy              =   -7057.97259032 Ry
     estimated scf accuracy    <       0.00442233 Ry

     total magnetization       =    72.68 Bohr mag/cell
     absolute magnetization    =    74.92 Bohr mag/cell

     iteration # 34     ecut=    50.00 Ry     beta= 0.20
     Davidson diagonalization with overlap
     c_bands:  4 eigenvalues not converged
     c_bands:  3 eigenvalues not converged
     c_bands:  4 eigenvalues not converged
     c_bands:  4 eigenvalues not converged
     c_bands:  1 eigenvalues not converged
     c_bands:  3 eigenvalues not converged
     ethr =  4.16E-07,  avg # of iterations =  8.5

     negative rho (up, down):  1.101E-03 4.073E-03
 
     Adding external electric field

     Computed dipole along edir(3) : 
        Dipole                0.0099 Ry au,          0.0252 Debye
        Dipole field          0.0000 Ry au, 
 
        Potential amp.       -0.0007 Ry
        Total length         54.1761 bohr
 
 
     Adding external electric field

     Computed dipole along edir(3) : 
        Dipole                0.0099 Ry au,          0.0252 Debye
        Dipole field          0.0000 Ry au, 
 
        Potential amp.       -0.0007 Ry
        Total length         54.1761 bohr
 

     total cpu time spent up to now is    73477.7 secs

     total energy              =   -7057.97409181 Ry
     estimated scf accuracy    <       0.00209728 Ry

     total magnetization       =    72.62 Bohr mag/cell
     absolute magnetization    =    74.72 Bohr mag/cell

     iteration # 35     ecut=    50.00 Ry     beta= 0.20
     Davidson diagonalization with overlap
     c_bands:  3 eigenvalues not converged
     c_bands:  3 eigenvalues not converged
     ethr =  1.97E-07,  avg # of iterations =  6.9

     negative rho (up, down):  9.947E-04 2.749E-03
 
     Adding external electric field

     Computed dipole along edir(3) : 
        Dipole                0.0070 Ry au,          0.0178 Debye
        Dipole field          0.0000 Ry au, 
 
        Potential amp.       -0.0005 Ry
        Total length         54.1761 bohr
 
 
     Adding external electric field

     Computed dipole along edir(3) : 
        Dipole                0.0070 Ry au,          0.0178 Debye
        Dipole field          0.0000 Ry au, 
 
        Potential amp.       -0.0005 Ry
        Total length         54.1761 bohr
 

     total cpu time spent up to now is    75645.9 secs

     total energy              =   -7057.97503665 Ry
     estimated scf accuracy    <       0.00103336 Ry

     total magnetization       =    72.64 Bohr mag/cell
     absolute magnetization    =    74.61 Bohr mag/cell

     iteration # 36     ecut=    50.00 Ry     beta= 0.20
     Davidson diagonalization with overlap
     c_bands:  4 eigenvalues not converged
     ethr =  9.72E-08,  avg # of iterations =  3.1

     negative rho (up, down):  9.117E-04 1.656E-03
 
     Adding external electric field

     Computed dipole along edir(3) : 
        Dipole                0.0091 Ry au,          0.0231 Debye
        Dipole field          0.0000 Ry au, 
 
        Potential amp.       -0.0006 Ry
        Total length         54.1761 bohr
 
 
     Adding external electric field

     Computed dipole along edir(3) : 
        Dipole                0.0091 Ry au,          0.0231 Debye
        Dipole field          0.0000 Ry au, 
 
        Potential amp.       -0.0006 Ry
        Total length         54.1761 bohr
 

     total cpu time spent up to now is    77344.5 secs

     total energy              =   -7057.97555882 Ry
     estimated scf accuracy    <       0.00050987 Ry

     total magnetization       =    72.63 Bohr mag/cell
     absolute magnetization    =    74.52 Bohr mag/cell

     iteration # 37     ecut=    50.00 Ry     beta= 0.20
     Davidson diagonalization with overlap
     c_bands:  1 eigenvalues not converged
     c_bands:  3 eigenvalues not converged
     ethr =  4.80E-08,  avg # of iterations =  4.2

     negative rho (up, down):  8.610E-04 1.006E-03
 
     Adding external electric field

     Computed dipole along edir(3) : 
        Dipole               -0.0064 Ry au,         -0.0163 Debye
        Dipole field         -0.0000 Ry au, 
 
        Potential amp.        0.0004 Ry
        Total length         54.1761 bohr
 
 
     Adding external electric field

     Computed dipole along edir(3) : 
        Dipole               -0.0064 Ry au,         -0.0163 Debye
        Dipole field         -0.0000 Ry au, 
 
        Potential amp.        0.0004 Ry
        Total length         54.1761 bohr
 

     total cpu time spent up to now is    79260.5 secs

     total energy              =   -7057.97580231 Ry
     estimated scf accuracy    <       0.00034199 Ry

     total magnetization       =    72.65 Bohr mag/cell
     absolute magnetization    =    74.46 Bohr mag/cell

     iteration # 38     ecut=    50.00 Ry     beta= 0.20
     Davidson diagonalization with overlap
     ethr =  3.22E-08,  avg # of iterations =  2.4

     negative rho (up, down):  8.420E-04 7.689E-04
 
     Adding external electric field

     Computed dipole along edir(3) : 
        Dipole               -0.0003 Ry au,         -0.0009 Debye
        Dipole field         -0.0000 Ry au, 
 
        Potential amp.        0.0000 Ry
        Total length         54.1761 bohr
 
 
     Adding external electric field

     Computed dipole along edir(3) : 
        Dipole               -0.0003 Ry au,         -0.0009 Debye
        Dipole field         -0.0000 Ry au, 
 
        Potential amp.        0.0000 Ry
        Total length         54.1761 bohr
 

     total cpu time spent up to now is    80985.6 secs

     total energy              =   -7057.97588520 Ry
     estimated scf accuracy    <       0.00023306 Ry

     total magnetization       =    72.65 Bohr mag/cell
     absolute magnetization    =    74.42 Bohr mag/cell

     iteration # 39     ecut=    50.00 Ry     beta= 0.20
     Davidson diagonalization with overlap
     ethr =  2.19E-08,  avg # of iterations =  1.9

     negative rho (up, down):  8.259E-04 5.770E-04
 
     Adding external electric field

     Computed dipole along edir(3) : 
        Dipole               -0.0062 Ry au,         -0.0158 Debye
        Dipole field         -0.0000 Ry au, 
 
        Potential amp.        0.0004 Ry
        Total length         54.1761 bohr
 
 
     Adding external electric field

     Computed dipole along edir(3) : 
        Dipole               -0.0062 Ry au,         -0.0158 Debye
        Dipole field         -0.0000 Ry au, 
 
        Potential amp.        0.0004 Ry
        Total length         54.1761 bohr
 

     total cpu time spent up to now is    82494.0 secs

     total energy              =   -7057.97593207 Ry
     estimated scf accuracy    <       0.00006499 Ry

     total magnetization       =    72.64 Bohr mag/cell
     absolute magnetization    =    74.39 Bohr mag/cell

     iteration # 40     ecut=    50.00 Ry     beta= 0.20
     Davidson diagonalization with overlap
     c_bands:  1 eigenvalues not converged
     c_bands:  1 eigenvalues not converged
     c_bands:  1 eigenvalues not converged
     ethr =  6.11E-09,  avg # of iterations =  8.2

     negative rho (up, down):  8.218E-04 5.228E-04
 
     Adding external electric field

     Computed dipole along edir(3) : 
        Dipole               -0.0058 Ry au,         -0.0146 Debye
        Dipole field         -0.0000 Ry au, 
 
        Potential amp.        0.0004 Ry
        Total length         54.1761 bohr
 
 
     Adding external electric field

     Computed dipole along edir(3) : 
        Dipole               -0.0058 Ry au,         -0.0146 Debye
        Dipole field         -0.0000 Ry au, 
 
        Potential amp.        0.0004 Ry
        Total length         54.1761 bohr
 

     total cpu time spent up to now is    84890.0 secs

     total energy              =   -7057.97595769 Ry
     estimated scf accuracy    <       0.00002175 Ry

     total magnetization       =    72.65 Bohr mag/cell
     absolute magnetization    =    74.37 Bohr mag/cell

     iteration # 41     ecut=    50.00 Ry     beta= 0.20
     Davidson diagonalization with overlap
     ethr =  2.05E-09,  avg # of iterations =  3.0

     negative rho (up, down):  8.183E-04 4.805E-04
 
     Adding external electric field

     Computed dipole along edir(3) : 
        Dipole               -0.0072 Ry au,         -0.0182 Debye
        Dipole field         -0.0000 Ry au, 
 
        Potential amp.        0.0005 Ry
        Total length         54.1761 bohr
 
 
     Adding external electric field

     Computed dipole along edir(3) : 
        Dipole               -0.0072 Ry au,         -0.0182 Debye
        Dipole field         -0.0000 Ry au, 
 
        Potential amp.        0.0005 Ry
        Total length         54.1761 bohr
 

     total cpu time spent up to now is    86675.8 secs

     total energy              =   -7057.97596722 Ry
     estimated scf accuracy    <       0.00000925 Ry

     total magnetization       =    72.65 Bohr mag/cell
     absolute magnetization    =    74.37 Bohr mag/cell

     iteration # 42     ecut=    50.00 Ry     beta= 0.20
     Davidson diagonalization with overlap
     ethr =  8.70E-10,  avg # of iterations =  3.0

     negative rho (up, down):  8.188E-04 4.768E-04
 
     Adding external electric field

     Computed dipole along edir(3) : 
        Dipole               -0.0078 Ry au,         -0.0198 Debye
        Dipole field         -0.0000 Ry au, 
 
        Potential amp.        0.0005 Ry
        Total length         54.1761 bohr
 
 
     Adding external electric field

     Computed dipole along edir(3) : 
        Dipole               -0.0078 Ry au,         -0.0198 Debye
        Dipole field         -0.0000 Ry au, 
 
        Potential amp.        0.0005 Ry
        Total length         54.1761 bohr
 

     total cpu time spent up to now is    88600.4 secs

     total energy              =   -7057.97597108 Ry
     estimated scf accuracy    <       0.00000551 Ry

     total magnetization       =    72.65 Bohr mag/cell
     absolute magnetization    =    74.36 Bohr mag/cell

     iteration # 43     ecut=    50.00 Ry     beta= 0.20
     Davidson diagonalization with overlap
     ethr =  5.18E-10,  avg # of iterations =  1.9

     negative rho (up, down):  8.214E-04 4.941E-04
 
     Adding external electric field

     Computed dipole along edir(3) : 
        Dipole               -0.0061 Ry au,         -0.0154 Debye
        Dipole field         -0.0000 Ry au, 
 
        Potential amp.        0.0004 Ry
        Total length         54.1761 bohr
 
 
     Adding external electric field

     Computed dipole along edir(3) : 
        Dipole               -0.0061 Ry au,         -0.0154 Debye
        Dipole field         -0.0000 Ry au, 
 
        Potential amp.        0.0004 Ry
        Total length         54.1761 bohr
 

     total cpu time spent up to now is    90161.4 secs

     total energy              =   -7057.97597281 Ry
     estimated scf accuracy    <       0.00000340 Ry

     total magnetization       =    72.65 Bohr mag/cell
     absolute magnetization    =    74.35 Bohr mag/cell

     iteration # 44     ecut=    50.00 Ry     beta= 0.20
     Davidson diagonalization with overlap
     ethr =  3.20E-10,  avg # of iterations =  2.0

     negative rho (up, down):  8.214E-04 4.905E-04
 
     Adding external electric field

     Computed dipole along edir(3) : 
        Dipole               -0.0075 Ry au,         -0.0192 Debye
        Dipole field         -0.0000 Ry au, 
 
        Potential amp.        0.0005 Ry
        Total length         54.1761 bohr
 
 
     Adding external electric field

     Computed dipole along edir(3) : 
        Dipole               -0.0075 Ry au,         -0.0192 Debye
        Dipole field         -0.0000 Ry au, 
 
        Potential amp.        0.0005 Ry
        Total length         54.1761 bohr
 

     total cpu time spent up to now is    91756.9 secs

     total energy              =   -7057.97597441 Ry
     estimated scf accuracy    <       0.00000362 Ry

     total magnetization       =    72.65 Bohr mag/cell
     absolute magnetization    =    74.36 Bohr mag/cell

     iteration # 45     ecut=    50.00 Ry     beta= 0.20
     Davidson diagonalization with overlap
     ethr =  3.20E-10,  avg # of iterations =  2.0

     negative rho (up, down):  8.253E-04 5.257E-04
 
     Adding external electric field

     Computed dipole along edir(3) : 
        Dipole                0.0062 Ry au,          0.0156 Debye
        Dipole field          0.0000 Ry au, 
 
        Potential amp.       -0.0004 Ry
        Total length         54.1761 bohr
 
 
     Adding external electric field

     Computed dipole along edir(3) : 
        Dipole                0.0062 Ry au,          0.0156 Debye
        Dipole field          0.0000 Ry au, 
 
        Potential amp.       -0.0004 Ry
        Total length         54.1761 bohr
 
 
     Magnetic moment per site:
     atom:    1    charge:    7.1216    magn:    1.4621    constr:    0.0000
     atom:    2    charge:    7.1113    magn:    1.5493    constr:    0.0000
     atom:    3    charge:    7.1219    magn:    1.4619    constr:    0.0000
     atom:    4    charge:    7.1112    magn:    1.5493    constr:    0.0000
     atom:    5    charge:    7.1308    magn:    1.5059    constr:    0.0000
     atom:    6    charge:    7.1308    magn:    1.5059    constr:    0.0000
     atom:    7    charge:    0.8200    magn:    0.0061    constr:    0.0000
     atom:    8    charge:    0.8228    magn:    0.0030    constr:    0.0000
     atom:    9    charge:    0.8228    magn:    0.0030    constr:    0.0000
     atom:   10    charge:    0.8200    magn:    0.0061    constr:    0.0000
     atom:   11    charge:    2.0293    magn:    0.0800    constr:    0.0000
     atom:   12    charge:    2.0291    magn:    0.1008    constr:    0.0000
     atom:   13    charge:    2.0291    magn:    0.1008    constr:    0.0000
     atom:   14    charge:    2.0293    magn:    0.0800    constr:    0.0000
     atom:   15    charge:    2.0372    magn:    0.0582    constr:    0.0000
     atom:   16    charge:    2.0194    magn:    0.0515    constr:    0.0000
     atom:   17    charge:    2.0194    magn:    0.0515    constr:    0.0000
     atom:   18    charge:    2.0372    magn:    0.0582    constr:    0.0000
     atom:   19    charge:    2.0352    magn:    0.0588    constr:    0.0000
     atom:   20    charge:    2.0306    magn:    0.0558    constr:    0.0000
     atom:   21    charge:    2.0370    magn:    0.0502    constr:    0.0000
     atom:   22    charge:    2.0355    magn:    0.0498    constr:    0.0000
     atom:   23    charge:    2.0355    magn:    0.0498    constr:    0.0000
     atom:   24    charge:    2.0306    magn:    0.0558    constr:    0.0000
     atom:   25    charge:    2.0352    magn:    0.0588    constr:    0.0000
     atom:   26    charge:    2.0370    magn:    0.0502    constr:    0.0000
     atom:   27    charge:    7.1135    magn:    1.5432    constr:    0.0000
     atom:   28    charge:    7.1126    magn:    1.5434    constr:    0.0000
     atom:   29    charge:    7.1135    magn:    1.5434    constr:    0.0000
     atom:   30    charge:    7.1130    magn:    1.5428    constr:    0.0000
     atom:   31    charge:    7.1324    magn:    1.5042    constr:    0.0000
     atom:   32    charge:    7.1323    magn:    1.5040    constr:    0.0000
     atom:   33    charge:    0.8200    magn:    0.0062    constr:    0.0000
     atom:   34    charge:    0.8202    magn:    0.0062    constr:    0.0000
     atom:   35    charge:    0.8202    magn:    0.0062    constr:    0.0000
     atom:   36    charge:    0.8200    magn:    0.0062    constr:    0.0000
     atom:   37    charge:    2.0299    magn:    0.0832    constr:    0.0000
     atom:   38    charge:    2.0298    magn:    0.0831    constr:    0.0000
     atom:   39    charge:    2.0298    magn:    0.0832    constr:    0.0000
     atom:   40    charge:    2.0299    magn:    0.0834    constr:    0.0000
     atom:   41    charge:    2.0371    magn:    0.0587    constr:    0.0000
     atom:   42    charge:    2.0371    magn:    0.0585    constr:    0.0000
     atom:   43    charge:    2.0371    magn:    0.0585    constr:    0.0000
     atom:   44    charge:    2.0374    magn:    0.0581    constr:    0.0000
     atom:   45    charge:    2.0364    magn:    0.0586    constr:    0.0000
     atom:   46    charge:    2.0358    magn:    0.0586    constr:    0.0000
     atom:   47    charge:    2.0374    magn:    0.0502    constr:    0.0000
     atom:   48    charge:    2.0374    magn:    0.0501    constr:    0.0000
     atom:   49    charge:    2.0374    magn:    0.0501    constr:    0.0000
     atom:   50    charge:    2.0358    magn:    0.0586    constr:    0.0000
     atom:   51    charge:    2.0364    magn:    0.0585    constr:    0.0000
     atom:   52    charge:    2.0375    magn:    0.0501    constr:    0.0000
     atom:   53    charge:    7.1084    magn:    1.5526    constr:    0.0000
     atom:   54    charge:    7.0638    magn:    1.6933    constr:    0.0000
     atom:   55    charge:    7.1105    magn:    1.5458    constr:    0.0000
     atom:   56    charge:    7.1223    magn:    1.4649    constr:    0.0000
     atom:   57    charge:    7.1302    magn:    1.4997    constr:    0.0000
     atom:   58    charge:    7.1275    magn:    1.5048    constr:    0.0000
     atom:   59    charge:    0.8177    magn:    0.0042    constr:    0.0000
     atom:   60    charge:    0.8190    magn:    0.0061    constr:    0.0000
     atom:   61    charge:    0.8206    magn:    0.0060    constr:    0.0000
     atom:   62    charge:    0.8174    magn:    0.0043    constr:    0.0000
     atom:   63    charge:    2.0270    magn:    0.1033    constr:    0.0000
     atom:   64    charge:    2.0281    magn:    0.0868    constr:    0.0000
     atom:   65    charge:    2.0304    magn:    0.0780    constr:    0.0000
     atom:   66    charge:    2.0270    magn:    0.1082    constr:    0.0000
     atom:   67    charge:    2.0283    magn:    0.0407    constr:    0.0000
     atom:   68    charge:    2.0358    magn:    0.0593    constr:    0.0000
     atom:   69    charge:    2.0353    magn:    0.0566    constr:    0.0000
     atom:   70    charge:    2.0253    magn:    0.0466    constr:    0.0000
     atom:   71    charge:    2.0300    magn:    0.0555    constr:    0.0000
     atom:   72    charge:    2.0346    magn:    0.0584    constr:    0.0000
     atom:   73    charge:    2.0351    magn:    0.0519    constr:    0.0000
     atom:   74    charge:    2.0367    magn:    0.0494    constr:    0.0000
     atom:   75    charge:    2.0364    magn:    0.0486    constr:    0.0000
     atom:   76    charge:    2.0342    magn:    0.0604    constr:    0.0000
     atom:   77    charge:    2.0316    magn:    0.0550    constr:    0.0000
     atom:   78    charge:    2.0337    magn:    0.0577    constr:    0.0000
     atom:   79    charge:    7.1217    magn:    1.4620    constr:    0.0000
     atom:   80    charge:    7.1113    magn:    1.5493    constr:    0.0000
     atom:   81    charge:    7.1216    magn:    1.4621    constr:    0.0000
     atom:   82    charge:    7.1112    magn:    1.5493    constr:    0.0000
     atom:   83    charge:    7.1308    magn:    1.5059    constr:    0.0000
     atom:   84    charge:    7.1308    magn:    1.5059    constr:    0.0000
     atom:   85    charge:    0.8200    magn:    0.0061    constr:    0.0000
     atom:   86    charge:    0.8228    magn:    0.0030    constr:    0.0000
     atom:   87    charge:    0.8228    magn:    0.0030    constr:    0.0000
     atom:   88    charge:    0.8200    magn:    0.0061    constr:    0.0000
     atom:   89    charge:    2.0293    magn:    0.0800    constr:    0.0000
     atom:   90    charge:    2.0291    magn:    0.1008    constr:    0.0000
     atom:   91    charge:    2.0291    magn:    0.1008    constr:    0.0000
     atom:   92    charge:    2.0293    magn:    0.0800    constr:    0.0000
     atom:   93    charge:    2.0372    magn:    0.0582    constr:    0.0000
     atom:   94    charge:    2.0194    magn:    0.0515    constr:    0.0000
     atom:   95    charge:    2.0194    magn:    0.0515    constr:    0.0000
     atom:   96    charge:    2.0372    magn:    0.0582    constr:    0.0000
     atom:   97    charge:    2.0352    magn:    0.0588    constr:    0.0000
     atom:   98    charge:    2.0306    magn:    0.0558    constr:    0.0000
     atom:   99    charge:    2.0370    magn:    0.0502    constr:    0.0000
     atom:  100    charge:    2.0355    magn:    0.0498    constr:    0.0000
     atom:  101    charge:    2.0355    magn:    0.0498    constr:    0.0000
     atom:  102    charge:    2.0306    magn:    0.0558    constr:    0.0000
     atom:  103    charge:    2.0352    magn:    0.0588    constr:    0.0000
     atom:  104    charge:    2.0370    magn:    0.0502    constr:    0.0000
     atom:  105    charge:    7.1135    magn:    1.5435    constr:    0.0000
     atom:  106    charge:    7.1129    magn:    1.5435    constr:    0.0000
     atom:  107    charge:    7.1135    magn:    1.5434    constr:    0.0000
     atom:  108    charge:    7.1130    magn:    1.5435    constr:    0.0000
     atom:  109    charge:    7.1323    magn:    1.5041    constr:    0.0000
     atom:  110    charge:    7.1323    magn:    1.5045    constr:    0.0000
     atom:  111    charge:    0.8201    magn:    0.0062    constr:    0.0000
     atom:  112    charge:    0.8202    magn:    0.0062    constr:    0.0000
     atom:  113    charge:    0.8202    magn:    0.0062    constr:    0.0000
     atom:  114    charge:    0.8199    magn:    0.0062    constr:    0.0000
     atom:  115    charge:    2.0299    magn:    0.0836    constr:    0.0000
     atom:  116    charge:    2.0299    magn:    0.0832    constr:    0.0000
     atom:  117    charge:    2.0299    magn:    0.0832    constr:    0.0000
     atom:  118    charge:    2.0299    magn:    0.0833    constr:    0.0000
     atom:  119    charge:    2.0375    magn:    0.0581    constr:    0.0000
     atom:  120    charge:    2.0371    magn:    0.0586    constr:    0.0000
     atom:  121    charge:    2.0371    magn:    0.0586    constr:    0.0000
     atom:  122    charge:    2.0372    magn:    0.0581    constr:    0.0000
     atom:  123    charge:    2.0363    magn:    0.0585    constr:    0.0000
     atom:  124    charge:    2.0358    magn:    0.0586    constr:    0.0000
     atom:  125    charge:    2.0375    magn:    0.0502    constr:    0.0000
     atom:  126    charge:    2.0374    magn:    0.0501    constr:    0.0000
     atom:  127    charge:    2.0374    magn:    0.0501    constr:    0.0000
     atom:  128    charge:    2.0359    magn:    0.0586    constr:    0.0000
     atom:  129    charge:    2.0364    magn:    0.0585    constr:    0.0000
     atom:  130    charge:    2.0375    magn:    0.0502    constr:    0.0000
     atom:  131    charge:    7.1119    magn:    1.5421    constr:    0.0000
     atom:  132    charge:    7.1236    magn:    1.4721    constr:    0.0000
     atom:  133    charge:    7.1098    magn:    1.5475    constr:    0.0000
     atom:  134    charge:    7.1219    magn:    1.4613    constr:    0.0000
     atom:  135    charge:    7.1274    magn:    1.4964    constr:    0.0000
     atom:  136    charge:    7.1262    magn:    1.5067    constr:    0.0000
     atom:  137    charge:    0.8180    magn:    0.0051    constr:    0.0000
     atom:  138    charge:    0.8202    magn:    0.0060    constr:    0.0000
     atom:  139    charge:    0.8202    magn:    0.0058    constr:    0.0000
     atom:  140    charge:    0.8175    magn:    0.0040    constr:    0.0000
     atom:  141    charge:    2.0297    magn:    0.0806    constr:    0.0000
     atom:  142    charge:    2.0308    magn:    0.0806    constr:    0.0000
     atom:  143    charge:    2.0303    magn:    0.0793    constr:    0.0000
     atom:  144    charge:    2.0240    magn:    0.1114    constr:    0.0000
     atom:  145    charge:    2.0280    magn:    0.0622    constr:    0.0000
     atom:  146    charge:    2.0351    magn:    0.0558    constr:    0.0000
     atom:  147    charge:    2.0360    magn:    0.0572    constr:    0.0000
     atom:  148    charge:    2.0249    magn:    0.0461    constr:    0.0000
     atom:  149    charge:    2.0299    magn:    0.0675    constr:    0.0000
     atom:  150    charge:    2.0351    magn:    0.0593    constr:    0.0000
     atom:  151    charge:    2.0327    magn:    0.0495    constr:    0.0000
     atom:  152    charge:    2.0349    magn:    0.0497    constr:    0.0000
[...]
    -6.1324  -6.1063  -6.1038  -6.0967  -6.0847  -6.0386  -6.0328  -6.0297
    -6.0284  -6.0061  -5.9997  -5.9904  -5.9885  -5.9136  -5.9069  -5.9017
    -5.8948  -5.8721  -5.8708  -5.8520  -5.8419  -5.7637  -5.7631  -5.7571
    -5.7524  -5.6726  -5.6655  -5.6632  -5.6499  -5.5607  -5.5267  -5.4981
    -5.4926  -5.4571  -5.4471  -5.4166  -5.4112  -5.4036  -5.4014  -5.3835
    -5.3533  -5.1312  -4.9802  -4.9776  -4.9738  -4.9682  -4.9369  -4.9261
    -4.9072  -4.7906  -4.7368  -4.7353  -4.7324  -4.7085  -4.6408  -4.6383
    -4.6302  -4.6259  -4.5976  -4.5800  -4.5711  -4.5256  -4.3888  -4.3879
    -4.3871  -4.3745  -4.3280  -4.3096  -4.3078  -4.2848  -4.2422  -4.2333
    -4.2245  -4.2037  -4.1660  -4.1554  -4.1478  -4.1039  -3.9862  -3.9761
    -3.9723  -3.9526  -3.9058  -3.9005  -3.8836  -3.8433  -3.7760  -3.7726
    -3.7694  -3.7538  -3.7202  -3.7130  -3.7107  -3.7044  -3.6916  -3.6833
    -3.6822  -3.6697  -3.6181  -3.6137  -3.6116  -3.6052  -3.5539  -3.5349
    -3.5220  -3.5124  -3.4412  -3.4329  -3.4290  -3.4144  -3.3993  -3.3873
    -3.3773  -3.3669  -3.2962  -3.2918  -3.2867  -3.2770  -3.2658  -3.2560
    -3.2522  -3.2479  -3.1799  -3.1774  -3.1722  -3.1698  -3.0283  -3.0119
    -3.0023  -2.9966  -2.9615  -2.9531  -2.9374  -2.9299  -2.9015  -2.8973
    -2.8836  -2.8710  -2.7901  -2.7792  -2.7745  -2.7687  -2.7595  -2.7356
    -2.7300  -2.7081  -2.6817  -2.6627  -2.6599  -2.6429  -2.6358  -2.6182
    -2.6141  -2.5928  -2.5871  -2.5836  -2.5770  -2.5624  -2.5198  -2.5175
    -2.5050  -2.4956  -2.4864  -2.4810  -2.4767  -2.4717  -2.4616  -2.4601
    -2.4441  -2.4084  -2.3528  -2.3519  -2.3464  -2.3209  -2.2848  -2.2780
    -2.2688  -2.2560  -2.2522  -2.2403  -2.2279  -2.2218  -2.1880  -2.1785
    -2.1736  -2.1716  -2.0681  -2.0528  -2.0468  -2.0398  -1.9979  -1.9710
    -1.9577  -1.9493  -1.9426  -1.9414  -1.9383  -1.9292  -1.9113  -1.9036
    -1.9006  -1.8786  -1.7986  -1.7823  -1.7805  -1.7769  -1.7703  -1.7571
    -1.7557  -1.7331  -1.7043  -1.6105  -1.6101  -1.6074  -1.5954  -1.5580
    -1.5335  -1.5217  -1.4957  -1.4880  -1.4636  -1.4524  -1.4446  -1.4094
    -1.3916  -1.3859  -1.2982  -1.2583  -1.2490  -1.2464  -1.2164  -1.2063
    -1.2050  -1.2047  -1.1912  -1.0407  -0.9775  -0.9228  -0.8607  -0.6771
    -0.6770  -0.6769  -0.6769  -0.6472   0.1347   0.1415   0.1427   0.1437
     0.1614   0.1770   0.1796   0.1837   0.1942   0.2056   0.2105   0.2145
     0.2236   0.2287   0.2300   0.2355   0.2396   0.2488   0.2563   0.2618
     0.2691   0.2764   0.2827   0.2922   0.2960   0.2988   0.3007   0.3020
     0.3088   0.3192   0.3219   0.3273   0.3370   0.3651   0.3673   0.3682
     0.3719   0.3731   0.3792   0.3878   0.3902   0.3941   0.3957   0.4015
     0.4030   0.4135   0.4173   0.4333   0.4454   0.4509   0.4538   0.4577
     0.4636   0.4710   0.4767   0.4830   0.4869   0.4922   0.4938   0.5021
     0.5045   0.5099   0.5144   0.5159   0.5278   0.5297   0.5306   0.5432
     0.5439   0.5466   0.5606   0.5787   0.5879   0.5954   0.6006   0.6080
     0.6232   0.6317   0.6346   0.6436   0.6489   0.6597   0.6660   0.6870
     0.6899   0.6933   0.6983   0.7151   0.7182   0.7258   0.7317   0.7506
     0.7608   0.7666   0.7690   0.7853   0.7898   0.7931   0.7978   0.8008
     0.8167   0.8238   0.8312   0.8317   0.8331   0.8341   0.8539   1.2980
     1.4235   1.4237   1.4238   1.4240   1.5077   1.5662   1.5768   1.6769
     1.8276   1.8354   1.8427   1.8444   1.8682   1.8703   1.8774   1.8848
     1.9667   1.9744   1.9775   1.9878   2.0276   2.0351   2.0358   2.0510
     2.0586   2.0649   2.0705   2.0730   2.0837   2.0889   2.0894   2.0917
     2.0976   2.1167   2.1254   2.1274   2.1911   2.2110   2.2170   2.2284
     2.2351   2.2468   2.2552   2.2893   2.3015   2.3043   2.3060   2.3296
     2.3452   2.3497   2.3605   2.3927   2.4208   2.4730   2.4776   2.4969
     2.5094   2.5265   2.5348   2.5452   2.5785   2.6132   2.6178   2.6217
     2.6344   2.6453   2.6473   2.6517   2.6561   2.6823   2.7045   2.7155
     5.7259   5.7262   5.7274   5.7303   5.9085   5.9169   5.9504   6.0949
     6.2886   6.2925   6.3108   6.4909   6.7895   6.8013   6.8124   6.9350
     7.1113   7.1262   7.1292   7.2689   7.3300   7.3383   7.3494   7.4300
     7.6334   7.6416   7.6432   7.7158   7.8461   7.8525   7.8584   7.8705
     7.9205   7.9242   7.9362   7.9778   8.0640   8.0765   8.0933   8.1524
     8.1667   8.1769   8.1948   8.2436   8.2882   8.2922   8.3065   8.3145
     8.3215   8.3316   8.3382   8.3434   8.3480   8.3698   8.3813   8.4018
     8.4443   8.4511   8.4800   8.4940   8.5243   8.5303   8.5522   8.6664
     8.6838   8.6867   8.6886   8.7078   8.7325   8.7580

     the Fermi energy is     1.1915 ev

!    total energy              =   -7057.97597539 Ry
     estimated scf accuracy    <       0.00000094 Ry
     smearing contrib. (-TS)   =      -0.00476687 Ry
     internal energy E=F+TS    =   -7057.97120852 Ry

     The total energy is F=E-TS. E is the sum of the following terms:
     one-electron contribution =  -89074.85174557 Ry
     hartree contribution      =   45215.20705658 Ry
     xc contribution           =   -2299.49573908 Ry
     ewald contribution        =   39103.00772768 Ry
     Dispersion Correction     =      -1.83850816 Ry
     electric field correction =       0.00000002 Ry

     total magnetization       =    72.65 Bohr mag/cell
     absolute magnetization    =    74.35 Bohr mag/cell

     convergence has been achieved in  45 iterations

     negative rho (up, down):  8.253E-04 5.257E-04

     Forces acting on atoms (cartesian axes, Ry/au):

     atom    1 type  1   force =     0.02944320   -0.01704638    0.01847743
     atom    2 type  1   force =    -0.00360115    0.00059646   -0.00178072
     atom    3 type  1   force =    -0.02947753   -0.01708041    0.01848011
     atom    4 type  1   force =     0.00360097    0.00058973   -0.00178895
     atom    5 type  1   force =    -0.00318722    0.00470624   -0.00125385
     atom    6 type  1   force =     0.00322698    0.00470484   -0.00125832
     atom    7 type  2   force =     0.00167745    0.00072016   -0.00106505
     atom    8 type  2   force =    -0.03165162    0.04266860   -0.07507346
     atom    9 type  2   force =     0.03164761    0.04266937   -0.07507411
     atom   10 type  2   force =    -0.00169111    0.00073688   -0.00106743
     atom   11 type  3   force =    -0.00192778   -0.00011278   -0.00200815
     atom   12 type  3   force =    -0.00564790   -0.00005082    0.02478593
     atom   13 type  3   force =     0.00564743   -0.00006471    0.02477790
     atom   14 type  3   force =     0.00195594   -0.00012525   -0.00199054
     atom   15 type  3   force =    -0.00061465   -0.00122260    0.00011487
     atom   16 type  3   force =     0.00733015   -0.00035270    0.02916237
     atom   17 type  3   force =    -0.00732262   -0.00035490    0.02916847
     atom   18 type  3   force =     0.00062394   -0.00124182    0.00011993
     atom   19 type  3   force =    -0.00023829   -0.00001638    0.00068099
     atom   20 type  3   force =    -0.01356439   -0.03051294   -0.00104003
     atom   21 type  3   force =     0.00007700   -0.00068339    0.00146490
     atom   22 type  3   force =    -0.01852297    0.00079278    0.00214740
     atom   23 type  3   force =     0.01853011    0.00082135    0.00214189
     atom   24 type  3   force =     0.01356032   -0.03052705   -0.00104157
     atom   25 type  3   force =     0.00024806   -0.00000385    0.00068137
     atom   26 type  3   force =    -0.00007544   -0.00066758    0.00146528
     atom   27 type  1   force =     0.00003381   -0.00011632   -0.00019441
     atom   28 type  1   force =    -0.00128542   -0.00104710    0.00522843
     atom   29 type  1   force =    -0.00004099   -0.00010773   -0.00020241
     atom   30 type  1   force =     0.00070522   -0.00026344    0.00238350
     atom   31 type  1   force =    -0.00007871   -0.00010576    0.00040150
     atom   32 type  1   force =     0.00000658   -0.00007398    0.00042059
     atom   33 type  2   force =     0.00009907   -0.00074059    0.00139144
     atom   34 type  2   force =    -0.00002603    0.00012262   -0.00000815
     atom   35 type  2   force =     0.00008457    0.00012218   -0.00010160
     atom   36 type  2   force =    -0.00017340   -0.00031864    0.00148921
     atom   37 type  3   force =    -0.00035104   -0.00014848   -0.00028815
     atom   38 type  3   force =    -0.00032831    0.00024513    0.00006371
     atom   39 type  3   force =     0.00023897    0.00023891    0.00003427
     atom   40 type  3   force =     0.00039359   -0.00034210   -0.00029624
     atom   41 type  3   force =     0.00170862   -0.00092748    0.00276844
     atom   42 type  3   force =    -0.00015992    0.00044877    0.00009701
     atom   43 type  3   force =     0.00013227    0.00043755    0.00009545
     atom   44 type  3   force =    -0.00095880    0.00029953    0.00103340
     atom   45 type  3   force =    -0.00003618    0.00059302    0.00007958
     atom   46 type  3   force =    -0.00019318   -0.00013217    0.00023496
     atom   47 type  3   force =    -0.00077018   -0.00005934    0.00009277
     atom   48 type  3   force =    -0.00030416    0.00020105    0.00003703
     atom   49 type  3   force =     0.00033770    0.00020253    0.00002866
     atom   50 type  3   force =     0.00015985   -0.00014405    0.00021828
     atom   51 type  3   force =     0.00054878    0.00069562    0.00024466
     atom   52 type  3   force =     0.00043909   -0.00009774   -0.00019793
     atom   53 type  1   force =    -0.00002000   -0.00006701   -0.00012501
     atom   54 type  1   force =     0.00017120   -0.00094308    0.00007726
     atom   55 type  1   force =     0.00040009    0.00029497    0.00014548
     atom   56 type  1   force =     0.00020523   -0.00028425    0.00060546
     atom   57 type  1   force =     0.00005540    0.00032446   -0.00032663
     atom   58 type  1   force =    -0.00025801   -0.00007062   -0.00009203
     atom   59 type  2   force =     0.00071344   -0.00042137   -0.00026142
     atom   60 type  2   force =     0.00048144    0.00005676    0.00010490
     atom   61 type  2   force =    -0.00050852   -0.00001147   -0.00011576
     atom   62 type  2   force =    -0.00047681   -0.00030792    0.00016841
     atom   63 type  3   force =     0.00006870    0.00013222    0.00027192
     atom   64 type  3   force =     0.00033040   -0.00014546   -0.00003939
     atom   65 type  3   force =     0.00009043    0.00014029   -0.00044020
     atom   66 type  3   force =     0.00010226    0.00019589    0.00036554
     atom   67 type  3   force =     0.00090564    0.00013315   -0.00024353
     atom   68 type  3   force =    -0.00009281    0.00003390    0.00003665
     atom   69 type  3   force =    -0.00028230    0.00006208    0.00019427
     atom   70 type  3   force =    -0.00011318    0.00047820   -0.00034032
     atom   71 type  3   force =     0.00035134   -0.00011911    0.00020368
     atom   72 type  3   force =     0.00015397    0.00011179   -0.00024574
     atom   73 type  3   force =     0.00040074    0.00010669    0.00008986
     atom   74 type  3   force =    -0.00000738   -0.00010144   -0.00008583
     atom   75 type  3   force =    -0.00001582   -0.00007234   -0.00026398
     atom   76 type  3   force =    -0.00058123   -0.00000532   -0.00043648
     atom   77 type  3   force =     0.00021626    0.00030320    0.00010686
     atom   78 type  3   force =    -0.00043206   -0.00033288    0.00028143
     atom   79 type  1   force =     0.02944908   -0.01706367    0.01847136
     atom   80 type  1   force =    -0.00357591    0.00059663   -0.00177810
     atom   81 type  1   force =    -0.02945008   -0.01707044    0.01848901
     atom   82 type  1   force =     0.00354883    0.00059586   -0.00179603
     atom   83 type  1   force =    -0.00321654    0.00476084   -0.00127364
     atom   84 type  1   force =     0.00316888    0.00469600   -0.00126368
     atom   85 type  2   force =     0.00168415    0.00072389   -0.00106663
     atom   86 type  2   force =    -0.03165169    0.04266575   -0.07506785
     atom   87 type  2   force =     0.03164653    0.04266707   -0.07507231
     atom   88 type  2   force =    -0.00168931    0.00073667   -0.00106875
     atom   89 type  3   force =    -0.00194404   -0.00011389   -0.00200924
     atom   90 type  3   force =    -0.00564596   -0.00005714    0.02479425
     atom   91 type  3   force =     0.00562659   -0.00007000    0.02479965
     atom   92 type  3   force =     0.00192273   -0.00012231   -0.00199715
     atom   93 type  3   force =    -0.00062387   -0.00122792    0.00011634
     atom   94 type  3   force =     0.00733085   -0.00035001    0.02914944
     atom   95 type  3   force =    -0.00734295   -0.00035861    0.02913880
     atom   96 type  3   force =     0.00061053   -0.00123930    0.00011114
     atom   97 type  3   force =    -0.00024542   -0.00001828    0.00067781
     atom   98 type  3   force =    -0.01355514   -0.03052686   -0.00104540
     atom   99 type  3   force =     0.00005884   -0.00068220    0.00146933
     atom  100 type  3   force =    -0.01852099    0.00081722    0.00214949
     atom  101 type  3   force =     0.01852430    0.00080678    0.00214334
     atom  102 type  3   force =     0.01352997   -0.03052352   -0.00104604
     atom  103 type  3   force =     0.00023933   -0.00000482    0.00067820
     atom  104 type  3   force =    -0.00007126   -0.00066699    0.00146628
     atom  105 type  1   force =     0.00000979   -0.00012055   -0.00011993
     atom  106 type  1   force =    -0.00014796   -0.00061616    0.00220698
     atom  107 type  1   force =    -0.00002564   -0.00007423   -0.00017804
     atom  108 type  1   force =     0.00044613    0.00021220    0.00191106
     atom  109 type  1   force =     0.00003867   -0.00010918    0.00040623
     atom  110 type  1   force =    -0.00012380   -0.00001553    0.00056658
     atom  111 type  2   force =    -0.00052099   -0.00105280    0.00175150
     atom  112 type  2   force =    -0.00014167    0.00011224   -0.00001000
     atom  113 type  2   force =     0.00010885    0.00012466   -0.00001951
     atom  114 type  2   force =     0.00037415    0.00035826    0.00300736
     atom  115 type  3   force =    -0.00041737   -0.00023569   -0.00069844
     atom  116 type  3   force =    -0.00020773    0.00029646   -0.00004267
     atom  117 type  3   force =     0.00027558    0.00022172   -0.00006620
     atom  118 type  3   force =     0.00036994   -0.00042343   -0.00051194
     atom  119 type  3   force =     0.00165056    0.00069983   -0.00088893
     atom  120 type  3   force =    -0.00014567    0.00045837    0.00006432
     atom  121 type  3   force =     0.00014539    0.00045698    0.00007417
     atom  122 type  3   force =    -0.00220839    0.00017307    0.00162968
     atom  123 type  3   force =    -0.00090499    0.00087385   -0.00003266
     atom  124 type  3   force =    -0.00018432   -0.00013309    0.00020601
     atom  125 type  3   force =    -0.00027387   -0.00001696   -0.00032773
     atom  126 type  3   force =    -0.00032983    0.00019066    0.00001989
     atom  127 type  3   force =     0.00028992    0.00021355   -0.00002348
     atom  128 type  3   force =     0.00023345   -0.00014302    0.00018811
     atom  129 type  3   force =     0.00056506    0.00081837   -0.00008506
     atom  130 type  3   force =     0.00055725   -0.00000557   -0.00053352
     atom  131 type  1   force =    -0.00022839   -0.00021501   -0.00024004
     atom  132 type  1   force =    -0.00028421   -0.00040040    0.00018042
     atom  133 type  1   force =     0.00021413   -0.00008367    0.00003354
     atom  134 type  1   force =     0.00040864   -0.00034188   -0.00014019
     atom  135 type  1   force =     0.00015827    0.00019244   -0.00038734
     atom  136 type  1   force =    -0.00001480    0.00037780   -0.00003628
     atom  137 type  2   force =     0.00007045   -0.00046467    0.00012821
     atom  138 type  2   force =     0.00031167    0.00026804   -0.00024862
     atom  139 type  2   force =    -0.00052443   -0.00046928    0.00000192
     atom  140 type  2   force =    -0.00022598    0.00002277   -0.00032142
     atom  141 type  3   force =    -0.00025772    0.00013090    0.00018034
     atom  142 type  3   force =    -0.00025646    0.00001740   -0.00028497
     atom  143 type  3   force =    -0.00006354    0.00005773   -0.00034858
     atom  144 type  3   force =    -0.00009780    0.00031724    0.00016237
     atom  145 type  3   force =     0.00043144    0.00032478   -0.00058053
     atom  146 type  3   force =    -0.00001066    0.00023116    0.00042762
     atom  147 type  3   force =    -0.00006003    0.00016324   -0.00006515
     atom  148 type  3   force =     0.00007066    0.00032575   -0.00033436
     atom  149 type  3   force =    -0.00042409    0.00006247    0.00015309
     atom  150 type  3   force =     0.00028362    0.00024454   -0.00028955
     atom  151 type  3   force =    -0.00002841   -0.00004926   -0.00010301
     atom  152 type  3   force =     0.00014508   -0.00021138   -0.00015168
     atom  153 type  3   force =    -0.00017115   -0.00013704    0.00003254
     atom  154 type  3   force =    -0.00037369    0.00018206   -0.00029636
     atom  155 type  3   force =    -0.00044165    0.00006640    0.00003718
     atom  156 type  3   force =     0.00021969   -0.00018382    0.00016790
     atom  157 type  3   force =    -0.00701665    0.00616827    0.00209669
     atom  158 type  4   force =     0.00683936   -0.00524756   -0.00135316

     Total force =     0.229008     Total SCF correction =     0.003125
 
     init_run     :    714.23s CPU    723.47s WALL (       1 calls)
     electrons    :  91831.95s CPU  92860.62s WALL (       1 calls)
     forces       :    355.93s CPU    360.83s WALL (       1 calls)

     Called by init_run:
     wfcinit      :    680.55s CPU    687.82s WALL (       1 calls)
     potinit      :      8.49s CPU      8.62s WALL (       1 calls)
     hinit0       :     15.42s CPU     15.60s WALL (       1 calls)

     Called by electrons:
     c_bands      :  81571.95s CPU  82339.12s WALL (      45 calls)
     sum_band     :   9810.28s CPU   9980.25s WALL (      45 calls)
     v_of_rho     :    104.92s CPU    108.77s WALL (      46 calls)
     newd         :    311.57s CPU    400.64s WALL (      46 calls)
     mix_rho      :     29.09s CPU     29.21s WALL (      45 calls)

     Called by c_bands:
     init_us_2    :    409.69s CPU    414.83s WALL (    1840 calls)
     cegterg      :  79966.07s CPU  80725.97s WALL (     911 calls)

     Called by *egterg:
     cdiaghg      :  10664.16s CPU  10700.52s WALL (    4662 calls)
     h_psi        :  40192.63s CPU  40562.55s WALL (    4682 calls)
     s_psi        :   8239.95s CPU   8253.46s WALL (    4682 calls)
     g_psi        :     61.20s CPU     61.66s WALL (    3751 calls)

     Called by h_psi:
     h_psi:calbec :   7977.42s CPU   8003.05s WALL (    4682 calls)
     vloc_psi     :  24024.75s CPU  24249.42s WALL (    4682 calls)
     add_vuspsi   :   8087.37s CPU   8121.62s WALL (    4682 calls)

     General routines
     calbec       :  11310.37s CPU  11350.52s WALL (    5662 calls)
     fft          :    111.43s CPU    112.71s WALL (    1163 calls)
     ffts         :      3.58s CPU      3.63s WALL (     182 calls)
     fftw         :  23906.46s CPU  24135.68s WALL ( 3534904 calls)
     interpolate  :      8.89s CPU      8.97s WALL (      92 calls)
 
     Parallel routines
     fft_scatt_xy :   4503.78s CPU   4551.32s WALL ( 3536249 calls)
     fft_scatt_yz :   5645.63s CPU   5698.70s WALL ( 3536249 calls)
 
     PWSCF        :   1d 1h48m CPU   1d 2h 5m WALL

 
   This run was terminated on:  11: 7:17  24Oct2023            

=------------------------------------------------------------------------------=
   JOB DONE.
=------------------------------------------------------------------------------=
