
     Program PWSCF v.6.7MaX starts on 26Oct2023 at 12:17:24 

     This program is part of the open-source Quantum ESPRESSO suite
     for quantum simulation of materials; please cite
         "P. Giannozzi et al., J. Phys.:Condens. Matter 21 395502 (2009);
         "P. Giannozzi et al., J. Phys.:Condens. Matter 29 465901 (2017);
          URL http://www.quantum-espresso.org", 
     in publications or presentations arising from this work. More details at
     http://www.quantum-espresso.org/quote

     Parallel version (MPI), running on    20 processors

     MPI processes distributed on     1 nodes
     R & G space division:  proc/nbgrp/npool/nimage =      20
     Waiting for input...
     Reading input from standard input

     Current dimensions of program PWSCF are:
     Max number of different atomic species (ntypx) = 10
     Max number of k-points (npk) =  40000
     Max angular momentum in pseudopotentials (lmaxx) =  3
     Presently no symmetry can be used with electric field

     file Ni.pbe-n-rrkjus_psl.1.0.0.UPF: wavefunction(s)  3D renormalized
     file O.pbe-rrkjus.UPF: wavefunction(s)  2S renormalized
     file H.pbe-rrkjus.UPF: wavefunction(s)  1S renormalized

     -------------------------------------------------
     Parameters for Dispersion (Grimme-D2) Correction:
     -------------------------------------------------
       atom      VdW radius       C_6     

        Ni         2.952        374.666
        P          3.222        271.980
        O          2.536         24.284
        H          1.892          4.857

     Subspace diagonalization in iterative solution of the eigenvalue problem:
     a serial algorithm will be used

 
     Parallelization info
     --------------------
     sticks:   dense  smooth     PW     G-vecs:    dense   smooth      PW
     Min         673     269     72               192489    48693    6732
     Max         674     270     73               192498    48700    6738
     Sum       13471    5389   1449              3849851   973915  134709
 


     bravais-lattice index     =            0
     lattice parameter (alat)  =      17.7231  a.u.
     unit-cell volume          =   20392.3702 (a.u.)^3
     number of atoms/cell      =          158
     number of atomic types    =            4
     number of electrons       =      1063.00
     number of Kohn-Sham states=          638
     kinetic-energy cutoff     =      50.0000  Ry
     charge density cutoff     =     500.0000  Ry
     scf convergence threshold =      1.0E-06
     mixing beta               =       0.2000
     number of iterations used =            8  plain     mixing
     Exchange-correlation=  SLA  PW   PBE  PBE
                           (   1   4   3   4   0   0   0)

     celldm(1)=  17.723132  celldm(2)=   0.000000  celldm(3)=   0.000000
     celldm(4)=   0.000000  celldm(5)=   0.000000  celldm(6)=   0.000000

     crystal axes: (cart. coord. in units of alat)
               a(1) = (   1.000000   0.000000   0.000000 )  
               a(2) = (   0.000000   1.078504   0.000000 )  
               a(3) = (   0.000000   0.000000   3.396445 )  

     reciprocal axes: (cart. coord. in units 2 pi/alat)
               b(1) = (  1.000000  0.000000  0.000000 )  
               b(2) = (  0.000000  0.927210  0.000000 )  
               b(3) = (  0.000000  0.000000  0.294425 )  


     PseudoPot. # 1 for Ni read from file:
     /home/praktikum/PSEUDO/Ni.pbe-n-rrkjus_psl.1.0.0.UPF
     MD5 check sum: 0fbcd075604c6694e0d643a0634a3f21
     Pseudo is Ultrasoft + core correction, Zval = 10.0
     Generated using "atomic" code by A. Dal Corso  v.5.1.2
     Using radial grid of 1195 points,  6 beta functions with: 
                l(1) =   0
                l(2) =   0
                l(3) =   1
                l(4) =   1
                l(5) =   2
                l(6) =   2
     Q(r) pseudized with 0 coefficients 


     PseudoPot. # 2 for P  read from file:
     /home/praktikum/PSEUDO/P.pbe-n-rrkjus_psl.1.0.0.UPF
     MD5 check sum: 4687844b46ff2552cf7009614ac2afe1
     Pseudo is Ultrasoft + core correction, Zval =  5.0
     Generated using "atomic" code by A. Dal Corso  v.5.1.2
     Using radial grid of 1147 points,  6 beta functions with: 
                l(1) =   0
                l(2) =   0
                l(3) =   1
                l(4) =   1
                l(5) =   2
                l(6) =   2
     Q(r) pseudized with 0 coefficients 


     PseudoPot. # 3 for O  read from file:
     /home/praktikum/PSEUDO/O.pbe-rrkjus.UPF
     MD5 check sum: 390ba29e75625707450f3bd3f0eb6be9
     Pseudo is Ultrasoft, Zval =  6.0
     Generated by new atomic code, or converted to UPF format
     Using radial grid of 1269 points,  4 beta functions with: 
                l(1) =   0
                l(2) =   0
                l(3) =   1
                l(4) =   1
     Q(r) pseudized with 0 coefficients 


     PseudoPot. # 4 for H  read from file:
     /home/praktikum/PSEUDO/H.pbe-rrkjus.UPF
     MD5 check sum: 7cc9d459525c9a0585f487a71c3c9563
     Pseudo is Ultrasoft, Zval =  1.0
     Generated by new atomic code, or converted to UPF format
     Using radial grid of 1061 points,  2 beta functions with: 
                l(1) =   0
                l(2) =   0
     Q(r) pseudized with 0 coefficients 


     atomic species   valence    mass     pseudopotential
        Ni            10.00    58.69340     Ni( 1.00)
        P              5.00    30.97376     P ( 1.00)
        O              6.00    15.99940     O ( 1.00)
        H              1.00     1.00794     H ( 1.00)

     Starting magnetic structure 
     atomic species   magnetization
        Ni           1.000
        P            1.000
        O            1.000
        H            0.000

     No symmetry found



   Cartesian axes

     site n.     atom                  positions (alat units)
         1           Ni  tau(   1) = (   0.2425939   0.8289547   0.1232563  )
         2           Ni  tau(   2) = (   0.4925939   0.7682479   0.4397296  )
         3           Ni  tau(   3) = (   0.0074061   0.2897028   0.1232563  )
         4           Ni  tau(   4) = (   0.2574061   0.2289960   0.4397296  )
         5           Ni  tau(   5) = (   0.0000000   1.0682273   0.2814930  )
         6           Ni  tau(   6) = (   0.2500000   0.5289753   0.2814930  )
         7           P   tau(   7) = (   0.2099015   0.9623143   0.4372472  )
         8           P   tau(   8) = (   0.4599015   0.6348883   0.1257387  )
         9           P   tau(   9) = (   0.2900985   0.0956364   0.1257387  )
        10           P   tau(  10) = (   0.0400985   0.4230624   0.4372472  )
        11           O   tau(  11) = (   0.1313289   0.8921807   0.3011581  )
        12           O   tau(  12) = (   0.3813289   0.7050219   0.2618278  )
        13           O   tau(  13) = (   0.3686711   0.1657700   0.2618278  )
        14           O   tau(  14) = (   0.1186711   0.3529288   0.3011581  )
        15           O   tau(  15) = (   0.1470808   0.8739426   0.5619197  )
        16           O   tau(  16) = (   0.3970808   0.7232600   0.0010662  )
        17           O   tau(  17) = (   0.3529192   0.1840081   0.0010662  )
        18           O   tau(  18) = (   0.1029192   0.3346907   0.5619197  )
        19           O   tau(  19) = (   0.0983097   0.5786104   0.4338456  )
        20           O   tau(  20) = (   0.3483097   1.0185922   0.1291403  )
        21           O   tau(  21) = (   0.3763566   0.4168410   0.4274499  )
        22           O   tau(  22) = (   0.1263566   0.1018578   0.1355360  )
        23           O   tau(  23) = (   0.1236434   0.6411097   0.1355360  )
        24           O   tau(  24) = (   0.4016903   0.4793403   0.1291403  )
        25           O   tau(  25) = (   0.1516903   0.0393585   0.4338456  )
        26           O   tau(  26) = (   0.3736434   0.9560929   0.4274499  )
        27           Ni  tau(  27) = (   0.2425939   0.8084016   0.7413658  )
        28           Ni  tau(  28) = (   0.4925939   0.7476948   1.0578391  )
        29           Ni  tau(  29) = (   0.0074061   0.2691497   0.7413658  )
        30           Ni  tau(  30) = (   0.2574061   0.2084429   1.0578391  )
        31           Ni  tau(  31) = (   0.0000000   1.0476741   0.8996025  )
        32           Ni  tau(  32) = (   0.2500000   0.5084222   0.8996025  )
        33           P   tau(  33) = (   0.2099015   0.9417612   1.0553567  )
        34           P   tau(  34) = (   0.4599015   0.6143352   0.7438483  )
        35           P   tau(  35) = (   0.2900985   0.0750833   0.7438483  )
        36           P   tau(  36) = (   0.0400985   0.4025093   1.0553567  )
        37           O   tau(  37) = (   0.1313289   0.8716276   0.9192676  )
        38           O   tau(  38) = (   0.3813289   0.6844688   0.8799374  )
        39           O   tau(  39) = (   0.3686711   0.1452169   0.8799374  )
        40           O   tau(  40) = (   0.1186711   0.3323757   0.9192676  )
        41           O   tau(  41) = (   0.1470808   0.8533895   1.1800292  )
        42           O   tau(  42) = (   0.3970808   0.7027069   0.6191758  )
        43           O   tau(  43) = (   0.3529192   0.1634550   0.6191758  )
        44           O   tau(  44) = (   0.1029192   0.3141376   1.1800292  )
        45           O   tau(  45) = (   0.0983097   0.5580573   1.0519551  )
        46           O   tau(  46) = (   0.3483097   0.9980391   0.7472498  )
        47           O   tau(  47) = (   0.3763566   0.3962879   1.0455594  )
        48           O   tau(  48) = (   0.1263566   0.0813047   0.7536455  )
        49           O   tau(  49) = (   0.1236434   0.6205566   0.7536455  )
        50           O   tau(  50) = (   0.4016903   0.4587872   0.7472498  )
        51           O   tau(  51) = (   0.1516903   0.0188054   1.0519551  )
        52           O   tau(  52) = (   0.3736434   0.9355398   1.0455594  )
        53           Ni  tau(  53) = (   0.2424041   0.7897793   1.3618974  )
        54           Ni  tau(  54) = (   0.4879612   0.7218564   1.6914308  )
        55           Ni  tau(  55) = (   0.0079170   0.2505787   1.3612627  )
        56           Ni  tau(  56) = (   0.2468086   0.1935142   1.6639243  )
        57           Ni  tau(  57) = (   0.0017035   1.0290340   1.5213760  )
        58           Ni  tau(  58) = (   0.2474179   0.4910684   1.5250240  )
        59           P   tau(  59) = (   0.2112199   0.9236045   1.6823438  )
        60           P   tau(  60) = (   0.4591813   0.5957823   1.3658078  )
        61           P   tau(  61) = (   0.2917127   0.0548729   1.3629876  )
        62           P   tau(  62) = (   0.0343831   0.3802729   1.6827085  )
        63           O   tau(  63) = (   0.1344982   0.8581762   1.5384087  )
        64           O   tau(  64) = (   0.3821749   0.6677915   1.5018960  )
        65           O   tau(  65) = (   0.3696684   0.1247784   1.4995401  )
        66           O   tau(  66) = (   0.1141586   0.3197959   1.5372841  )
        67           O   tau(  67) = (   0.1477250   0.8282157   1.7986512  )
        68           O   tau(  68) = (   0.3971844   0.6837803   1.2400827  )
        69           O   tau(  69) = (   0.3536769   0.1435761   1.2380891  )
        70           O   tau(  70) = (   0.0972401   0.2831089   1.7964957  )
        71           O   tau(  71) = (   0.0885696   0.5385964   1.6812115  )
        72           O   tau(  72) = (   0.3499269   0.9780557   1.3669542  )
        73           O   tau(  73) = (   0.3712541   0.3723768   1.6655885  )
        74           O   tau(  74) = (   0.1279370   0.0627700   1.3746559  )
        75           O   tau(  75) = (   0.1221086   0.6022924   1.3766974  )
        76           O   tau(  76) = (   0.4000629   0.4406261   1.3697735  )
        77           O   tau(  77) = (   0.1539963   1.0802196   1.6787776  )
        78           O   tau(  78) = (   0.3757257   0.9187392   1.6710614  )
        79           Ni  tau(  79) = (   0.7425939   0.8289547   0.1232563  )
        80           Ni  tau(  80) = (   0.9925939   0.7682479   0.4397296  )
        81           Ni  tau(  81) = (   0.5074061   0.2897028   0.1232563  )
        82           Ni  tau(  82) = (   0.7574061   0.2289960   0.4397296  )
        83           Ni  tau(  83) = (   0.5000000   1.0682273   0.2814930  )
        84           Ni  tau(  84) = (   0.7500000   0.5289753   0.2814930  )
        85           P   tau(  85) = (   0.7099015   0.9623143   0.4372472  )
        86           P   tau(  86) = (   0.9599015   0.6348883   0.1257387  )
        87           P   tau(  87) = (   0.7900985   0.0956364   0.1257387  )
        88           P   tau(  88) = (   0.5400985   0.4230624   0.4372472  )
        89           O   tau(  89) = (   0.6313289   0.8921807   0.3011581  )
        90           O   tau(  90) = (   0.8813289   0.7050219   0.2618278  )
        91           O   tau(  91) = (   0.8686711   0.1657700   0.2618278  )
        92           O   tau(  92) = (   0.6186711   0.3529288   0.3011581  )
        93           O   tau(  93) = (   0.6470808   0.8739426   0.5619197  )
        94           O   tau(  94) = (   0.8970808   0.7232600   0.0010662  )
        95           O   tau(  95) = (   0.8529192   0.1840081   0.0010662  )
        96           O   tau(  96) = (   0.6029192   0.3346907   0.5619197  )
        97           O   tau(  97) = (   0.5983097   0.5786104   0.4338456  )
        98           O   tau(  98) = (   0.8483097   1.0185922   0.1291403  )
        99           O   tau(  99) = (   0.8763566   0.4168410   0.4274499  )
       100           O   tau( 100) = (   0.6263566   0.1018578   0.1355360  )
       101           O   tau( 101) = (   0.6236434   0.6411097   0.1355360  )
       102           O   tau( 102) = (   0.9016903   0.4793403   0.1291403  )
       103           O   tau( 103) = (   0.6516903   0.0393585   0.4338456  )
       104           O   tau( 104) = (   0.8736434   0.9560929   0.4274499  )
       105           Ni  tau( 105) = (   0.7425939   0.8084016   0.7413658  )
       106           Ni  tau( 106) = (   0.9925939   0.7476948   1.0578391  )
       107           Ni  tau( 107) = (   0.5074061   0.2691497   0.7413658  )
       108           Ni  tau( 108) = (   0.7574061   0.2084429   1.0578391  )
       109           Ni  tau( 109) = (   0.5000000   1.0476741   0.8996025  )
       110           Ni  tau( 110) = (   0.7500000   0.5084222   0.8996025  )
       111           P   tau( 111) = (   0.7099015   0.9417612   1.0553567  )
       112           P   tau( 112) = (   0.9599015   0.6143352   0.7438483  )
       113           P   tau( 113) = (   0.7900985   0.0750833   0.7438483  )
       114           P   tau( 114) = (   0.5400985   0.4025093   1.0553567  )
       115           O   tau( 115) = (   0.6313289   0.8716276   0.9192676  )
       116           O   tau( 116) = (   0.8813289   0.6844688   0.8799374  )
       117           O   tau( 117) = (   0.8686711   0.1452169   0.8799374  )
       118           O   tau( 118) = (   0.6186711   0.3323757   0.9192676  )
       119           O   tau( 119) = (   0.6470808   0.8533895   1.1800292  )
       120           O   tau( 120) = (   0.8970808   0.7027069   0.6191758  )
       121           O   tau( 121) = (   0.8529192   0.1634550   0.6191758  )
       122           O   tau( 122) = (   0.6029192   0.3141376   1.1800292  )
       123           O   tau( 123) = (   0.5983097   0.5580573   1.0519551  )
       124           O   tau( 124) = (   0.8483097   0.9980391   0.7472498  )
       125           O   tau( 125) = (   0.8763566   0.3962879   1.0455594  )
       126           O   tau( 126) = (   0.6263566   0.0813047   0.7536455  )
       127           O   tau( 127) = (   0.6236434   0.6205566   0.7536455  )
       128           O   tau( 128) = (   0.9016903   0.4587872   0.7472498  )
       129           O   tau( 129) = (   0.6516903   0.0188054   1.0519551  )
       130           O   tau( 130) = (   0.8736434   0.9355398   1.0455594  )
       131           Ni  tau( 131) = (   0.7426462   0.7898639   1.3604014  )
       132           Ni  tau( 132) = (  -0.0002066   0.7318828   1.6641114  )
       133           Ni  tau( 133) = (   0.5077061   0.2501780   1.3613832  )
       134           Ni  tau( 134) = (   0.7465307   0.1894565   1.6642078  )
       135           Ni  tau( 135) = (   0.5021934   1.0264055   1.5228946  )
       136           Ni  tau( 136) = (   0.7455086   0.4886102   1.5220246  )
       137           P   tau( 137) = (   0.7116866   0.9161767   1.6766996  )
       138           P   tau( 138) = (   0.9583802   0.5938581   1.3632324  )
       139           P   tau( 139) = (   0.7914519   0.0546979   1.3621112  )
       140           P   tau( 140) = (   0.5357885   0.3763012   1.6821380  )
       141           O   tau( 141) = (   0.6346394   0.8568156   1.5335737  )
       142           O   tau( 142) = (   0.8794257   0.6646640   1.4988356  )
       143           O   tau( 143) = (   0.8695763   0.1251491   1.4988234  )
       144           O   tau( 144) = (   0.6152561   0.3146265   1.5364006  )
       145           O   tau( 145) = (   0.6515338   0.8192773   1.7930363  )
       146           O   tau( 146) = (   0.8970925   0.6818609   1.2376106  )
       147           O   tau( 147) = (   0.8535847   0.1440758   1.2378023  )
       148           O   tau( 148) = (   0.5952313   0.2763491   1.7954797  )
       149           O   tau( 149) = (   0.5957950   0.5319332   1.6778728  )
       150           O   tau( 150) = (   0.8513096   0.9784304   1.3652427  )
       151           O   tau( 151) = (   0.8698230   0.3735298   1.6681144  )
       152           O   tau( 152) = (   0.6278063   0.0613643   1.3739427  )
       153           O   tau( 153) = (   0.6230504   0.6013695   1.3747416  )
       154           O   tau( 154) = (   0.8997892   0.4387455   1.3673113  )
       155           O   tau( 155) = (   0.6572909   1.0746654   1.6784301  )
       156           O   tau( 156) = (   0.8772072   0.9129255   1.6662148  )
       157           O   tau( 157) = (   0.3752302   0.6425654   1.8262525  )
       158           H   tau( 158) = (   0.2897206   0.7019697   1.8481288  )

     number of k points=    10  Gaussian smearing, width (Ry)=  0.0100
                       cart. coord. in units 2pi/alat
        k(    1) = (   0.0000000   0.0000000   0.0000000), wk =   0.0625000
        k(    2) = (   0.0000000   0.2318026   0.0000000), wk =   0.1250000
        k(    3) = (   0.0000000  -0.4636052   0.0000000), wk =   0.0625000
        k(    4) = (   0.2500000   0.0000000   0.0000000), wk =   0.1250000
        k(    5) = (   0.2500000   0.2318026   0.0000000), wk =   0.1250000
        k(    6) = (   0.2500000  -0.4636052   0.0000000), wk =   0.1250000
        k(    7) = (   0.2500000  -0.2318026   0.0000000), wk =   0.1250000
        k(    8) = (  -0.5000000   0.0000000   0.0000000), wk =   0.0625000
        k(    9) = (  -0.5000000   0.2318026   0.0000000), wk =   0.1250000
        k(   10) = (  -0.5000000  -0.4636052   0.0000000), wk =   0.0625000

     Dense  grid:  3849851 G-vectors     FFT dimensions: ( 128, 144, 432)

     Smooth grid:   973915 G-vectors     FFT dimensions: (  80,  90, 288)

     Estimated max dynamical RAM per process >       2.95 GB

     Estimated total dynamical RAM >      59.02 GB
     Generating pointlists ...
     new r_m :   0.0795 (alat units)  1.4095 (a.u.) for type    1
     new r_m :   0.0669 (alat units)  1.1865 (a.u.) for type    2
     new r_m :   0.0439 (alat units)  0.7778 (a.u.) for type    3
     new r_m :   0.0439 (alat units)  0.7778 (a.u.) for type    4

     Initial potential from superposition of free atoms

     starting charge 1062.89078, renormalised to 1063.00000

     negative rho (up, down):  1.107E-03 4.578E-04
 
     Adding external electric field

     Computed dipole along edir(3) : 
        Dipole                1.6045 Ry au,          4.0782 Debye
        Dipole field          0.0010 Ry au, 
 
        Potential amp.       -0.1071 Ry
        Total length         54.1761 bohr
 
 
     Adding external electric field

     Computed dipole along edir(3) : 
        Dipole                1.6045 Ry au,          4.0782 Debye
        Dipole field          0.0010 Ry au, 
 
        Potential amp.       -0.1071 Ry
        Total length         54.1761 bohr
 
     Starting wfcs are  809 randomized atomic wfcs

     total cpu time spent up to now is      730.3 secs

     Self-consistent Calculation

     iteration #  1     ecut=    50.00 Ry     beta= 0.20
     Davidson diagonalization with overlap
     ethr =  1.00E-02,  avg # of iterations =  6.0

     negative rho (up, down):  4.091E-04 0.000E+00
 
     Adding external electric field

     Computed dipole along edir(3) : 
        Dipole             -127.8454 Ry au,       -324.9505 Debye
        Dipole field         -0.0788 Ry au, 
 
        Potential amp.        8.5362 Ry
        Total length         54.1761 bohr
 
 
     Adding external electric field

     Computed dipole along edir(3) : 
        Dipole             -127.8454 Ry au,       -324.9505 Debye
        Dipole field         -0.0788 Ry au, 
 
        Potential amp.        8.5362 Ry
        Total length         54.1761 bohr
 

     total cpu time spent up to now is     3763.2 secs

     total energy              =   -6643.86161991 Ry
     estimated scf accuracy    <     755.69105168 Ry

     total magnetization       =   213.00 Bohr mag/cell
     absolute magnetization    =   290.41 Bohr mag/cell

     iteration #  2     ecut=    50.00 Ry     beta= 0.20
     Davidson diagonalization with overlap
     c_bands:  3 eigenvalues not converged
     c_bands:  4 eigenvalues not converged
     c_bands:  5 eigenvalues not converged
     ethr =  1.00E-02,  avg # of iterations = 15.4

     negative rho (up, down):  2.141E-04 0.000E+00
 
     Adding external electric field

     Computed dipole along edir(3) : 
        Dipole              -24.7723 Ry au,        -62.9650 Debye
        Dipole field         -0.0153 Ry au, 
 
        Potential amp.        1.6540 Ry
        Total length         54.1761 bohr
 
 
     Adding external electric field

     Computed dipole along edir(3) : 
        Dipole              -24.7723 Ry au,        -62.9650 Debye
        Dipole field         -0.0153 Ry au, 
 
        Potential amp.        1.6540 Ry
        Total length         54.1761 bohr
 

     total cpu time spent up to now is    11094.8 secs

     total energy              =   -6046.98635435 Ry
     estimated scf accuracy    <  181413.35150186 Ry

     total magnetization       =   126.03 Bohr mag/cell
     absolute magnetization    =   127.65 Bohr mag/cell

     iteration #  3     ecut=    50.00 Ry     beta= 0.20
     Davidson diagonalization with overlap
     ethr =  1.00E-02,  avg # of iterations = 12.9

     negative rho (up, down):  1.303E-04 0.000E+00
 
     Adding external electric field

     Computed dipole along edir(3) : 
        Dipole              -14.9407 Ry au,        -37.9754 Debye
        Dipole field         -0.0092 Ry au, 
 
        Potential amp.        0.9976 Ry
        Total length         54.1761 bohr
 
 
     Adding external electric field

     Computed dipole along edir(3) : 
        Dipole              -14.9407 Ry au,        -37.9754 Debye
        Dipole field         -0.0092 Ry au, 
 
        Potential amp.        0.9976 Ry
        Total length         54.1761 bohr
 

     total cpu time spent up to now is    18268.9 secs

     total energy              =   -6672.85778907 Ry
     estimated scf accuracy    <   17806.42532970 Ry

     total magnetization       =   155.42 Bohr mag/cell
     absolute magnetization    =   162.68 Bohr mag/cell

     iteration #  4     ecut=    50.00 Ry     beta= 0.20
     Davidson diagonalization with overlap
     ethr =  1.00E-02,  avg # of iterations = 12.4

     negative rho (up, down):  4.564E-05 0.000E+00
 
     Adding external electric field

     Computed dipole along edir(3) : 
        Dipole               -8.9779 Ry au,        -22.8196 Debye
        Dipole field         -0.0055 Ry au, 
 
        Potential amp.        0.5995 Ry
        Total length         54.1761 bohr
 
 
     Adding external electric field

     Computed dipole along edir(3) : 
        Dipole               -8.9779 Ry au,        -22.8196 Debye
        Dipole field         -0.0055 Ry au, 
 
        Potential amp.        0.5995 Ry
        Total length         54.1761 bohr
 

     total cpu time spent up to now is    23150.9 secs

     total energy              =   -6935.77386594 Ry
     estimated scf accuracy    <     553.93041557 Ry

     total magnetization       =   202.20 Bohr mag/cell
     absolute magnetization    =   220.13 Bohr mag/cell

     iteration #  5     ecut=    50.00 Ry     beta= 0.20
     Davidson diagonalization with overlap
     ethr =  1.00E-02,  avg # of iterations =  6.2

     negative rho (up, down):  4.510E-05 0.000E+00
 
     Adding external electric field

     Computed dipole along edir(3) : 
        Dipole              -12.0774 Ry au,        -30.6978 Debye
        Dipole field         -0.0074 Ry au, 
 
        Potential amp.        0.8064 Ry
        Total length         54.1761 bohr
 
 
     Adding external electric field

     Computed dipole along edir(3) : 
        Dipole              -12.0774 Ry au,        -30.6978 Debye
        Dipole field         -0.0074 Ry au, 
 
        Potential amp.        0.8064 Ry
        Total length         54.1761 bohr
 

     total cpu time spent up to now is    25195.8 secs

     total energy              =   -6962.78372725 Ry
     estimated scf accuracy    <     787.70650284 Ry

     total magnetization       =   140.52 Bohr mag/cell
     absolute magnetization    =   174.06 Bohr mag/cell

     iteration #  6     ecut=    50.00 Ry     beta= 0.20
     Davidson diagonalization with overlap
     ethr =  1.00E-02,  avg # of iterations =  1.9

     negative rho (up, down):  4.993E-05 0.000E+00
 
     Adding external electric field

     Computed dipole along edir(3) : 
        Dipole              -10.9592 Ry au,        -27.8556 Debye
        Dipole field         -0.0068 Ry au, 
 
        Potential amp.        0.7317 Ry
        Total length         54.1761 bohr
 
 
     Adding external electric field

     Computed dipole along edir(3) : 
        Dipole              -10.9592 Ry au,        -27.8556 Debye
        Dipole field         -0.0068 Ry au, 
 
        Potential amp.        0.7317 Ry
        Total length         54.1761 bohr
 

     total cpu time spent up to now is    26770.9 secs

     total energy              =   -6975.03456854 Ry
     estimated scf accuracy    <     219.35045174 Ry

     total magnetization       =   122.02 Bohr mag/cell
     absolute magnetization    =   157.78 Bohr mag/cell

     iteration #  7     ecut=    50.00 Ry     beta= 0.20
     Davidson diagonalization with overlap
     ethr =  1.00E-02,  avg # of iterations =  1.5

     negative rho (up, down):  6.260E-05 0.000E+00
 
     Adding external electric field

     Computed dipole along edir(3) : 
        Dipole              -10.0187 Ry au,        -25.4651 Debye
        Dipole field         -0.0062 Ry au, 
 
        Potential amp.        0.6689 Ry
        Total length         54.1761 bohr
 
 
     Adding external electric field

     Computed dipole along edir(3) : 
        Dipole              -10.0187 Ry au,        -25.4651 Debye
        Dipole field         -0.0062 Ry au, 
 
        Potential amp.        0.6689 Ry
        Total length         54.1761 bohr
 

     total cpu time spent up to now is    28338.6 secs

     total energy              =   -6986.14887578 Ry
     estimated scf accuracy    <     108.36129177 Ry

     total magnetization       =   100.07 Bohr mag/cell
     absolute magnetization    =   143.30 Bohr mag/cell

     iteration #  8     ecut=    50.00 Ry     beta= 0.20
     Davidson diagonalization with overlap
     ethr =  1.00E-02,  avg # of iterations =  1.5

     negative rho (up, down):  9.068E-05 0.000E+00
 
     Adding external electric field

     Computed dipole along edir(3) : 
        Dipole               -8.3907 Ry au,        -21.3271 Debye
        Dipole field         -0.0052 Ry au, 
 
        Potential amp.        0.5602 Ry
        Total length         54.1761 bohr
 
 
     Adding external electric field

     Computed dipole along edir(3) : 
        Dipole               -8.3907 Ry au,        -21.3271 Debye
        Dipole field         -0.0052 Ry au, 
 
        Potential amp.        0.5602 Ry
        Total length         54.1761 bohr
 

     total cpu time spent up to now is    29899.5 secs

     total energy              =   -7000.12986979 Ry
     estimated scf accuracy    <     110.97620907 Ry

     total magnetization       =    92.01 Bohr mag/cell
     absolute magnetization    =   136.65 Bohr mag/cell

     iteration #  9     ecut=    50.00 Ry     beta= 0.20
     Davidson diagonalization with overlap
     ethr =  1.00E-02,  avg # of iterations =  1.5

     negative rho (up, down):  1.439E-04 0.000E+00
 
     Adding external electric field

     Computed dipole along edir(3) : 
        Dipole               -4.9522 Ry au,        -12.5871 Debye
        Dipole field         -0.0031 Ry au, 
 
        Potential amp.        0.3307 Ry
        Total length         54.1761 bohr
 
 
     Adding external electric field

     Computed dipole along edir(3) : 
        Dipole               -4.9522 Ry au,        -12.5871 Debye
        Dipole field         -0.0031 Ry au, 
 
        Potential amp.        0.3307 Ry
        Total length         54.1761 bohr
 

     total cpu time spent up to now is    31460.5 secs

     total energy              =   -7022.43979676 Ry
     estimated scf accuracy    <      78.95348223 Ry

     total magnetization       =    84.64 Bohr mag/cell
     absolute magnetization    =   128.28 Bohr mag/cell

     iteration # 10     ecut=    50.00 Ry     beta= 0.20
     Davidson diagonalization with overlap
     ethr =  7.43E-03,  avg # of iterations =  1.4

     negative rho (up, down):  2.868E-04 0.000E+00
 
     Adding external electric field

     Computed dipole along edir(3) : 
        Dipole               -1.6530 Ry au,         -4.2015 Debye
        Dipole field         -0.0010 Ry au, 
 
        Potential amp.        0.1104 Ry
        Total length         54.1761 bohr
 
 
     Adding external electric field

     Computed dipole along edir(3) : 
        Dipole               -1.6530 Ry au,         -4.2015 Debye
        Dipole field         -0.0010 Ry au, 
 
        Potential amp.        0.1104 Ry
        Total length         54.1761 bohr
 

     total cpu time spent up to now is    33010.3 secs

     total energy              =   -7043.88995144 Ry
     estimated scf accuracy    <     190.32595149 Ry

     total magnetization       =    79.07 Bohr mag/cell
     absolute magnetization    =   117.35 Bohr mag/cell

     iteration # 11     ecut=    50.00 Ry     beta= 0.20
     Davidson diagonalization with overlap
     ethr =  7.43E-03,  avg # of iterations =  1.0

     negative rho (up, down):  3.264E-04 0.000E+00
 
     Adding external electric field

     Computed dipole along edir(3) : 
        Dipole               -3.8293 Ry au,         -9.7332 Debye
        Dipole field         -0.0024 Ry au, 
 
        Potential amp.        0.2557 Ry
        Total length         54.1761 bohr
 
 
     Adding external electric field

     Computed dipole along edir(3) : 
        Dipole               -3.8293 Ry au,         -9.7332 Debye
        Dipole field         -0.0024 Ry au, 
 
        Potential amp.        0.2557 Ry
        Total length         54.1761 bohr
 

     total cpu time spent up to now is    34512.7 secs

     total energy              =   -7049.11979936 Ry
     estimated scf accuracy    <     159.28269133 Ry

     total magnetization       =    69.58 Bohr mag/cell
     absolute magnetization    =    97.96 Bohr mag/cell

     iteration # 12     ecut=    50.00 Ry     beta= 0.20
     Davidson diagonalization with overlap
     ethr =  7.43E-03,  avg # of iterations =  1.0

     negative rho (up, down):  3.842E-04 0.000E+00
 
     Adding external electric field

     Computed dipole along edir(3) : 
        Dipole               -1.2039 Ry au,         -3.0600 Debye
        Dipole field         -0.0007 Ry au, 
 
        Potential amp.        0.0804 Ry
        Total length         54.1761 bohr
 
 
     Adding external electric field

     Computed dipole along edir(3) : 
        Dipole               -1.2039 Ry au,         -3.0600 Debye
        Dipole field         -0.0007 Ry au, 
 
        Potential amp.        0.0804 Ry
        Total length         54.1761 bohr
 

     total cpu time spent up to now is    36037.3 secs

     total energy              =   -7050.86113799 Ry
     estimated scf accuracy    <     153.66065722 Ry

     total magnetization       =    72.56 Bohr mag/cell
     absolute magnetization    =    96.44 Bohr mag/cell

     iteration # 13     ecut=    50.00 Ry     beta= 0.20
     Davidson diagonalization with overlap
     ethr =  7.43E-03,  avg # of iterations =  1.0

     negative rho (up, down):  4.165E-04 0.000E+00
 
     Adding external electric field

     Computed dipole along edir(3) : 
        Dipole               -2.0621 Ry au,         -5.2413 Debye
        Dipole field         -0.0013 Ry au, 
 
        Potential amp.        0.1377 Ry
        Total length         54.1761 bohr
 
 
     Adding external electric field

     Computed dipole along edir(3) : 
        Dipole               -2.0621 Ry au,         -5.2413 Debye
        Dipole field         -0.0013 Ry au, 
 
        Potential amp.        0.1377 Ry
        Total length         54.1761 bohr
 

     total cpu time spent up to now is    37530.2 secs

     total energy              =   -7052.27002741 Ry
     estimated scf accuracy    <     306.99190012 Ry

     total magnetization       =    72.74 Bohr mag/cell
     absolute magnetization    =    95.13 Bohr mag/cell

     iteration # 14     ecut=    50.00 Ry     beta= 0.20
     Davidson diagonalization with overlap
     ethr =  7.43E-03,  avg # of iterations =  1.0

     negative rho (up, down):  4.534E-04 0.000E+00
 
     Adding external electric field

     Computed dipole along edir(3) : 
        Dipole                0.1588 Ry au,          0.4036 Debye
        Dipole field          0.0001 Ry au, 
 
        Potential amp.       -0.0106 Ry
        Total length         54.1761 bohr
 
 
     Adding external electric field

     Computed dipole along edir(3) : 
        Dipole                0.1588 Ry au,          0.4036 Debye
        Dipole field          0.0001 Ry au, 
 
        Potential amp.       -0.0106 Ry
        Total length         54.1761 bohr
 

     total cpu time spent up to now is    39029.8 secs

     total energy              =   -7055.58027906 Ry
     estimated scf accuracy    <      37.39289600 Ry

     total magnetization       =    73.00 Bohr mag/cell
     absolute magnetization    =    90.04 Bohr mag/cell

     iteration # 15     ecut=    50.00 Ry     beta= 0.20
     Davidson diagonalization with overlap
     ethr =  3.52E-03,  avg # of iterations =  1.0

     negative rho (up, down):  4.520E-04 0.000E+00
 
     Adding external electric field

     Computed dipole along edir(3) : 
        Dipole               -1.4376 Ry au,         -3.6540 Debye
        Dipole field         -0.0009 Ry au, 
 
        Potential amp.        0.0960 Ry
        Total length         54.1761 bohr
 
 
     Adding external electric field

     Computed dipole along edir(3) : 
        Dipole               -1.4376 Ry au,         -3.6540 Debye
        Dipole field         -0.0009 Ry au, 
 
        Potential amp.        0.0960 Ry
        Total length         54.1761 bohr
 

     total cpu time spent up to now is    40533.4 secs

     total energy              =   -7055.49900735 Ry
     estimated scf accuracy    <      39.15454106 Ry

     total magnetization       =    73.00 Bohr mag/cell
     absolute magnetization    =    88.20 Bohr mag/cell

     iteration # 16     ecut=    50.00 Ry     beta= 0.20
     Davidson diagonalization with overlap
     ethr =  3.52E-03,  avg # of iterations =  1.0

     negative rho (up, down):  4.971E-04 0.000E+00
 
     Adding external electric field

     Computed dipole along edir(3) : 
        Dipole                0.2692 Ry au,          0.6843 Debye
        Dipole field          0.0002 Ry au, 
 
        Potential amp.       -0.0180 Ry
        Total length         54.1761 bohr
 
 
     Adding external electric field

     Computed dipole along edir(3) : 
        Dipole                0.2692 Ry au,          0.6843 Debye
        Dipole field          0.0002 Ry au, 
 
        Potential amp.       -0.0180 Ry
        Total length         54.1761 bohr
 

     total cpu time spent up to now is    42033.3 secs

     total energy              =   -7055.32154535 Ry
     estimated scf accuracy    <      90.66891240 Ry

     total magnetization       =    70.80 Bohr mag/cell
     absolute magnetization    =    85.31 Bohr mag/cell

     iteration # 17     ecut=    50.00 Ry     beta= 0.20
     Davidson diagonalization with overlap
     ethr =  3.52E-03,  avg # of iterations =  1.0

     negative rho (up, down):  5.317E-04 0.000E+00
 
     Adding external electric field

     Computed dipole along edir(3) : 
        Dipole                0.3329 Ry au,          0.8462 Debye
        Dipole field          0.0002 Ry au, 
 
        Potential amp.       -0.0222 Ry
        Total length         54.1761 bohr
 
 
     Adding external electric field

     Computed dipole along edir(3) : 
        Dipole                0.3329 Ry au,          0.8462 Debye
        Dipole field          0.0002 Ry au, 
 
        Potential amp.       -0.0222 Ry
        Total length         54.1761 bohr
 

     total cpu time spent up to now is    43533.6 secs

     total energy              =   -7056.33905427 Ry
     estimated scf accuracy    <      21.72820260 Ry

     total magnetization       =    73.00 Bohr mag/cell
     absolute magnetization    =    84.70 Bohr mag/cell

     iteration # 18     ecut=    50.00 Ry     beta= 0.20
     Davidson diagonalization with overlap
     ethr =  2.04E-03,  avg # of iterations =  1.1

     negative rho (up, down):  5.710E-04 0.000E+00
 
     Adding external electric field

     Computed dipole along edir(3) : 
        Dipole                0.5093 Ry au,          1.2945 Debye
        Dipole field          0.0003 Ry au, 
 
        Potential amp.       -0.0340 Ry
        Total length         54.1761 bohr
 
 
     Adding external electric field

     Computed dipole along edir(3) : 
        Dipole                0.5093 Ry au,          1.2945 Debye
        Dipole field          0.0003 Ry au, 
 
        Potential amp.       -0.0340 Ry
        Total length         54.1761 bohr
 

     total cpu time spent up to now is    45036.1 secs

     total energy              =   -7057.03146951 Ry
     estimated scf accuracy    <      13.44827811 Ry

     total magnetization       =    72.38 Bohr mag/cell
     absolute magnetization    =    82.98 Bohr mag/cell

     iteration # 19     ecut=    50.00 Ry     beta= 0.20
     Davidson diagonalization with overlap
     ethr =  1.27E-03,  avg # of iterations =  1.0

     negative rho (up, down):  5.745E-04 0.000E+00
 
     Adding external electric field

     Computed dipole along edir(3) : 
        Dipole                0.3425 Ry au,          0.8706 Debye
        Dipole field          0.0002 Ry au, 
 
        Potential amp.       -0.0229 Ry
        Total length         54.1761 bohr
 
 
     Adding external electric field

     Computed dipole along edir(3) : 
        Dipole                0.3425 Ry au,          0.8706 Debye
        Dipole field          0.0002 Ry au, 
 
        Potential amp.       -0.0229 Ry
        Total length         54.1761 bohr
 

     total cpu time spent up to now is    46527.7 secs

     total energy              =   -7057.23996054 Ry
     estimated scf accuracy    <      11.92109312 Ry

     total magnetization       =    72.65 Bohr mag/cell
     absolute magnetization    =    81.78 Bohr mag/cell

     iteration # 20     ecut=    50.00 Ry     beta= 0.20
     Davidson diagonalization with overlap
     ethr =  1.12E-03,  avg # of iterations =  1.4

     negative rho (up, down):  5.615E-04 0.000E+00
 
     Adding external electric field

     Computed dipole along edir(3) : 
        Dipole               -0.1714 Ry au,         -0.4358 Debye
        Dipole field         -0.0001 Ry au, 
 
        Potential amp.        0.0114 Ry
        Total length         54.1761 bohr
 
 
     Adding external electric field

     Computed dipole along edir(3) : 
        Dipole               -0.1714 Ry au,         -0.4358 Debye
        Dipole field         -0.0001 Ry au, 
 
        Potential amp.        0.0114 Ry
        Total length         54.1761 bohr
 

     total cpu time spent up to now is    48074.1 secs

     total energy              =   -7057.38898044 Ry
     estimated scf accuracy    <       3.87335458 Ry

     total magnetization       =    72.69 Bohr mag/cell
     absolute magnetization    =    80.94 Bohr mag/cell

     iteration # 21     ecut=    50.00 Ry     beta= 0.20
     Davidson diagonalization with overlap
     ethr =  3.64E-04,  avg # of iterations =  2.0

     negative rho (up, down):  5.909E-04 0.000E+00
 
     Adding external electric field

     Computed dipole along edir(3) : 
        Dipole                0.0949 Ry au,          0.2413 Debye
        Dipole field          0.0001 Ry au, 
 
        Potential amp.       -0.0063 Ry
        Total length         54.1761 bohr
 
 
     Adding external electric field

     Computed dipole along edir(3) : 
        Dipole                0.0949 Ry au,          0.2413 Debye
        Dipole field          0.0001 Ry au, 
 
        Potential amp.       -0.0063 Ry
        Total length         54.1761 bohr
 

     total cpu time spent up to now is    49738.6 secs

     total energy              =   -7057.22056027 Ry
     estimated scf accuracy    <      15.87743478 Ry

     total magnetization       =    71.92 Bohr mag/cell
     absolute magnetization    =    79.74 Bohr mag/cell

     iteration # 22     ecut=    50.00 Ry     beta= 0.20
     Davidson diagonalization with overlap
     ethr =  3.64E-04,  avg # of iterations =  1.1

     negative rho (up, down):  5.876E-04 0.000E+00
 
     Adding external electric field

     Computed dipole along edir(3) : 
        Dipole               -0.1629 Ry au,         -0.4140 Debye
        Dipole field         -0.0001 Ry au, 
 
        Potential amp.        0.0109 Ry
        Total length         54.1761 bohr
 
 
     Adding external electric field

     Computed dipole along edir(3) : 
        Dipole               -0.1629 Ry au,         -0.4140 Debye
        Dipole field         -0.0001 Ry au, 
 
        Potential amp.        0.0109 Ry
        Total length         54.1761 bohr
 

     total cpu time spent up to now is    51259.0 secs

     total energy              =   -7057.73576984 Ry
     estimated scf accuracy    <       0.46749725 Ry

     total magnetization       =    72.99 Bohr mag/cell
     absolute magnetization    =    79.97 Bohr mag/cell

     iteration # 23     ecut=    50.00 Ry     beta= 0.20
     Davidson diagonalization with overlap
     ethr =  4.40E-05,  avg # of iterations = 14.6

     negative rho (up, down):  5.985E-04 0.000E+00
 
     Adding external electric field

     Computed dipole along edir(3) : 
        Dipole                0.6759 Ry au,          1.7180 Debye
        Dipole field          0.0004 Ry au, 
 
        Potential amp.       -0.0451 Ry
        Total length         54.1761 bohr
 
 
     Adding external electric field

     Computed dipole along edir(3) : 
        Dipole                0.6759 Ry au,          1.7180 Debye
        Dipole field          0.0004 Ry au, 
 
        Potential amp.       -0.0451 Ry
        Total length         54.1761 bohr
 

     total cpu time spent up to now is    53987.3 secs

     total energy              =   -7057.73024181 Ry
     estimated scf accuracy    <       1.03836112 Ry

     total magnetization       =    72.34 Bohr mag/cell
     absolute magnetization    =    78.80 Bohr mag/cell

     iteration # 24     ecut=    50.00 Ry     beta= 0.20
     Davidson diagonalization with overlap
     c_bands:  5 eigenvalues not converged
     c_bands:  2 eigenvalues not converged
     c_bands:  4 eigenvalues not converged
     c_bands:  4 eigenvalues not converged
     c_bands:  4 eigenvalues not converged
     c_bands:  5 eigenvalues not converged
     c_bands:  3 eigenvalues not converged
     c_bands:  3 eigenvalues not converged
     c_bands:  3 eigenvalues not converged
     c_bands:  1 eigenvalues not converged
     ethr =  4.40E-05,  avg # of iterations = 17.2

     negative rho (up, down):  5.985E-04 0.000E+00
 
     Adding external electric field

     Computed dipole along edir(3) : 
        Dipole               -0.0493 Ry au,         -0.1253 Debye
        Dipole field         -0.0000 Ry au, 
 
        Potential amp.        0.0033 Ry
        Total length         54.1761 bohr
 
 
     Adding external electric field

     Computed dipole along edir(3) : 
        Dipole               -0.0493 Ry au,         -0.1253 Debye
        Dipole field         -0.0000 Ry au, 
 
        Potential amp.        0.0033 Ry
        Total length         54.1761 bohr
 

     total cpu time spent up to now is    56659.7 secs

     total energy              =   -7057.71743248 Ry
     estimated scf accuracy    <       6.04767872 Ry

     total magnetization       =    72.39 Bohr mag/cell
     absolute magnetization    =    78.33 Bohr mag/cell

     iteration # 25     ecut=    50.00 Ry     beta= 0.20
     Davidson diagonalization with overlap
     ethr =  4.40E-05,  avg # of iterations =  3.7

     negative rho (up, down):  6.079E-04 0.000E+00
 
     Adding external electric field

     Computed dipole along edir(3) : 
        Dipole                0.0388 Ry au,          0.0987 Debye
        Dipole field          0.0000 Ry au, 
 
        Potential amp.       -0.0026 Ry
        Total length         54.1761 bohr
 
 
     Adding external electric field

     Computed dipole along edir(3) : 
        Dipole                0.0388 Ry au,          0.0987 Debye
        Dipole field          0.0000 Ry au, 
 
        Potential amp.       -0.0026 Ry
        Total length         54.1761 bohr
 

     total cpu time spent up to now is    58240.2 secs

     total energy              =   -7057.85710552 Ry
     estimated scf accuracy    <       0.26270062 Ry

     total magnetization       =    72.97 Bohr mag/cell
     absolute magnetization    =    78.56 Bohr mag/cell

     iteration # 26     ecut=    50.00 Ry     beta= 0.20
     Davidson diagonalization with overlap
     ethr =  2.47E-05,  avg # of iterations =  2.0

     negative rho (up, down):  6.385E-04 1.105E-06
 
     Adding external electric field

     Computed dipole along edir(3) : 
        Dipole                0.0344 Ry au,          0.0873 Debye
        Dipole field          0.0000 Ry au, 
 
        Potential amp.       -0.0023 Ry
        Total length         54.1761 bohr
 
 
     Adding external electric field

     Computed dipole along edir(3) : 
        Dipole                0.0344 Ry au,          0.0873 Debye
        Dipole field          0.0000 Ry au, 
 
        Potential amp.       -0.0023 Ry
        Total length         54.1761 bohr
 

     total cpu time spent up to now is    59808.0 secs

     total energy              =   -7057.92175604 Ry
     estimated scf accuracy    <       0.12047105 Ry

     total magnetization       =    72.93 Bohr mag/cell
     absolute magnetization    =    77.98 Bohr mag/cell

     iteration # 27     ecut=    50.00 Ry     beta= 0.20
     Davidson diagonalization with overlap
     c_bands:  3 eigenvalues not converged
     c_bands:  3 eigenvalues not converged
     c_bands:  1 eigenvalues not converged
     c_bands:  1 eigenvalues not converged
     c_bands:  1 eigenvalues not converged
     c_bands:  1 eigenvalues not converged
     ethr =  1.13E-05,  avg # of iterations = 15.9

     negative rho (up, down):  8.349E-04 1.910E-03
 
     Adding external electric field

     Computed dipole along edir(3) : 
        Dipole                0.0054 Ry au,          0.0137 Debye
        Dipole field          0.0000 Ry au, 
 
        Potential amp.       -0.0004 Ry
        Total length         54.1761 bohr
 
 
     Adding external electric field

     Computed dipole along edir(3) : 
        Dipole                0.0054 Ry au,          0.0137 Debye
        Dipole field          0.0000 Ry au, 
 
        Potential amp.       -0.0004 Ry
        Total length         54.1761 bohr
 

     total cpu time spent up to now is    62375.0 secs

     total energy              =   -7057.95404991 Ry
     estimated scf accuracy    <       0.09949051 Ry

     total magnetization       =    72.36 Bohr mag/cell
     absolute magnetization    =    76.14 Bohr mag/cell

     iteration # 28     ecut=    50.00 Ry     beta= 0.20
     Davidson diagonalization with overlap
     ethr =  9.36E-06,  avg # of iterations =  2.1

     negative rho (up, down):  1.185E-03 5.170E-03
 
     Adding external electric field

     Computed dipole along edir(3) : 
        Dipole               -0.0325 Ry au,         -0.0827 Debye
        Dipole field         -0.0000 Ry au, 
 
        Potential amp.        0.0022 Ry
        Total length         54.1761 bohr
 
 
     Adding external electric field

     Computed dipole along edir(3) : 
        Dipole               -0.0325 Ry au,         -0.0827 Debye
        Dipole field         -0.0000 Ry au, 
 
        Potential amp.        0.0022 Ry
        Total length         54.1761 bohr
 

     total cpu time spent up to now is    63962.5 secs

     total energy              =   -7057.96714886 Ry
     estimated scf accuracy    <       0.03027870 Ry

     total magnetization       =    72.65 Bohr mag/cell
     absolute magnetization    =    75.45 Bohr mag/cell

     iteration # 29     ecut=    50.00 Ry     beta= 0.20
     Davidson diagonalization with overlap
     c_bands:  2 eigenvalues not converged
     c_bands:  5 eigenvalues not converged
     c_bands:  5 eigenvalues not converged
     c_bands:  5 eigenvalues not converged
     c_bands:  3 eigenvalues not converged
     c_bands:  2 eigenvalues not converged
     ethr =  2.85E-06,  avg # of iterations =  9.8

     negative rho (up, down):  1.212E-03 5.089E-03
 
     Adding external electric field

     Computed dipole along edir(3) : 
        Dipole               -0.0193 Ry au,         -0.0491 Debye
        Dipole field         -0.0000 Ry au, 
 
        Potential amp.        0.0013 Ry
        Total length         54.1761 bohr
 
 
     Adding external electric field

     Computed dipole along edir(3) : 
        Dipole               -0.0193 Ry au,         -0.0491 Debye
        Dipole field         -0.0000 Ry au, 
 
        Potential amp.        0.0013 Ry
        Total length         54.1761 bohr
 

     total cpu time spent up to now is    65864.6 secs

     total energy              =   -7057.97118956 Ry
     estimated scf accuracy    <       0.01663152 Ry

     total magnetization       =    72.45 Bohr mag/cell
     absolute magnetization    =    74.80 Bohr mag/cell

     iteration # 30     ecut=    50.00 Ry     beta= 0.20
     Davidson diagonalization with overlap
     c_bands:  1 eigenvalues not converged
     c_bands:  2 eigenvalues not converged
     ethr =  1.56E-06,  avg # of iterations =  5.5

     negative rho (up, down):  1.189E-03 4.660E-03
 
     Adding external electric field

     Computed dipole along edir(3) : 
        Dipole               -0.0019 Ry au,         -0.0049 Debye
        Dipole field         -0.0000 Ry au, 
 
        Potential amp.        0.0001 Ry
        Total length         54.1761 bohr
 
 
     Adding external electric field

     Computed dipole along edir(3) : 
        Dipole               -0.0019 Ry au,         -0.0049 Debye
        Dipole field         -0.0000 Ry au, 
 
        Potential amp.        0.0001 Ry
        Total length         54.1761 bohr
 

     total cpu time spent up to now is    67623.7 secs

     total energy              =   -7057.97323896 Ry
     estimated scf accuracy    <       0.00630743 Ry

     total magnetization       =    72.64 Bohr mag/cell
     absolute magnetization    =    74.81 Bohr mag/cell

     iteration # 31     ecut=    50.00 Ry     beta= 0.20
     Davidson diagonalization with overlap
     ethr =  5.93E-07,  avg # of iterations =  1.9

     negative rho (up, down):  1.070E-03 3.230E-03
 
     Adding external electric field

     Computed dipole along edir(3) : 
        Dipole                0.0022 Ry au,          0.0057 Debye
        Dipole field          0.0000 Ry au, 
 
        Potential amp.       -0.0001 Ry
        Total length         54.1761 bohr
 
 
     Adding external electric field

     Computed dipole along edir(3) : 
        Dipole                0.0022 Ry au,          0.0057 Debye
        Dipole field          0.0000 Ry au, 
 
        Potential amp.       -0.0001 Ry
        Total length         54.1761 bohr
 

     total cpu time spent up to now is    69254.4 secs

     total energy              =   -7057.97455624 Ry
     estimated scf accuracy    <       0.00208287 Ry

     total magnetization       =    72.64 Bohr mag/cell
     absolute magnetization    =    74.70 Bohr mag/cell

     iteration # 32     ecut=    50.00 Ry     beta= 0.20
     Davidson diagonalization with overlap
     c_bands:  5 eigenvalues not converged
     c_bands:  3 eigenvalues not converged
     ethr =  1.96E-07,  avg # of iterations =  7.2

     negative rho (up, down):  1.009E-03 2.533E-03
 
     Adding external electric field

     Computed dipole along edir(3) : 
        Dipole                0.0122 Ry au,          0.0310 Debye
        Dipole field          0.0000 Ry au, 
 
        Potential amp.       -0.0008 Ry
        Total length         54.1761 bohr
 
 
     Adding external electric field

     Computed dipole along edir(3) : 
        Dipole                0.0122 Ry au,          0.0310 Debye
        Dipole field          0.0000 Ry au, 
 
        Potential amp.       -0.0008 Ry
        Total length         54.1761 bohr
 

     total cpu time spent up to now is    71446.2 secs

     total energy              =   -7057.97507710 Ry
     estimated scf accuracy    <       0.00083832 Ry

     total magnetization       =    72.61 Bohr mag/cell
     absolute magnetization    =    74.54 Bohr mag/cell

     iteration # 33     ecut=    50.00 Ry     beta= 0.20
     Davidson diagonalization with overlap
     ethr =  7.89E-08,  avg # of iterations =  2.5

     negative rho (up, down):  9.527E-04 1.815E-03
 
     Adding external electric field

     Computed dipole along edir(3) : 
        Dipole               -0.0154 Ry au,         -0.0391 Debye
        Dipole field         -0.0000 Ry au, 
 
        Potential amp.        0.0010 Ry
        Total length         54.1761 bohr
 
 
     Adding external electric field

     Computed dipole along edir(3) : 
        Dipole               -0.0154 Ry au,         -0.0391 Debye
        Dipole field         -0.0000 Ry au, 
 
        Potential amp.        0.0010 Ry
        Total length         54.1761 bohr
 

     total cpu time spent up to now is    73119.6 secs

     total energy              =   -7057.97552019 Ry
     estimated scf accuracy    <       0.00041839 Ry

     total magnetization       =    72.64 Bohr mag/cell
     absolute magnetization    =    74.53 Bohr mag/cell

     iteration # 34     ecut=    50.00 Ry     beta= 0.20
     Davidson diagonalization with overlap
     ethr =  3.94E-08,  avg # of iterations =  4.0

     negative rho (up, down):  8.852E-04 1.053E-03
 
     Adding external electric field

     Computed dipole along edir(3) : 
        Dipole                0.0094 Ry au,          0.0240 Debye
        Dipole field          0.0000 Ry au, 
 
        Potential amp.       -0.0006 Ry
        Total length         54.1761 bohr
 
 
     Adding external electric field

     Computed dipole along edir(3) : 
        Dipole                0.0094 Ry au,          0.0240 Debye
        Dipole field          0.0000 Ry au, 
 
        Potential amp.       -0.0006 Ry
        Total length         54.1761 bohr
 

     total cpu time spent up to now is    75112.1 secs

     total energy              =   -7057.97575776 Ry
     estimated scf accuracy    <       0.00143460 Ry

     total magnetization       =    72.64 Bohr mag/cell
     absolute magnetization    =    74.47 Bohr mag/cell

     iteration # 35     ecut=    50.00 Ry     beta= 0.20
     Davidson diagonalization with overlap
     ethr =  3.94E-08,  avg # of iterations =  2.1

     negative rho (up, down):  8.514E-04 7.255E-04
 
     Adding external electric field

     Computed dipole along edir(3) : 
        Dipole                0.0034 Ry au,          0.0087 Debye
        Dipole field          0.0000 Ry au, 
 
        Potential amp.       -0.0002 Ry
        Total length         54.1761 bohr
 
 
     Adding external electric field

     Computed dipole along edir(3) : 
        Dipole                0.0034 Ry au,          0.0087 Debye
        Dipole field          0.0000 Ry au, 
 
        Potential amp.       -0.0002 Ry
        Total length         54.1761 bohr
 

     total cpu time spent up to now is    76812.4 secs

     total energy              =   -7057.97589852 Ry
     estimated scf accuracy    <       0.00013185 Ry

     total magnetization       =    72.64 Bohr mag/cell
     absolute magnetization    =    74.41 Bohr mag/cell

     iteration # 36     ecut=    50.00 Ry     beta= 0.20
     Davidson diagonalization with overlap
     ethr =  1.24E-08,  avg # of iterations =  4.6

     negative rho (up, down):  8.310E-04 5.601E-04
 
     Adding external electric field

     Computed dipole along edir(3) : 
        Dipole                0.0013 Ry au,          0.0034 Debye
        Dipole field          0.0000 Ry au, 
 
        Potential amp.       -0.0001 Ry
        Total length         54.1761 bohr
 
 
     Adding external electric field

     Computed dipole along edir(3) : 
        Dipole                0.0013 Ry au,          0.0034 Debye
        Dipole field          0.0000 Ry au, 
 
        Potential amp.       -0.0001 Ry
        Total length         54.1761 bohr
 

     total cpu time spent up to now is    78778.2 secs

     total energy              =   -7057.97593922 Ry
     estimated scf accuracy    <       0.00004383 Ry

     total magnetization       =    72.65 Bohr mag/cell
     absolute magnetization    =    74.39 Bohr mag/cell

     iteration # 37     ecut=    50.00 Ry     beta= 0.20
     Davidson diagonalization with overlap
     ethr =  4.12E-09,  avg # of iterations =  8.6

     negative rho (up, down):  8.232E-04 5.027E-04
 
     Adding external electric field

     Computed dipole along edir(3) : 
        Dipole               -0.0009 Ry au,         -0.0022 Debye
        Dipole field         -0.0000 Ry au, 
 
        Potential amp.        0.0001 Ry
        Total length         54.1761 bohr
 
 
     Adding external electric field

     Computed dipole along edir(3) : 
        Dipole               -0.0009 Ry au,         -0.0022 Debye
        Dipole field         -0.0000 Ry au, 
 
        Potential amp.        0.0001 Ry
        Total length         54.1761 bohr
 

     total cpu time spent up to now is    81013.1 secs

     total energy              =   -7057.97595971 Ry
     estimated scf accuracy    <       0.00001663 Ry

     total magnetization       =    72.65 Bohr mag/cell
     absolute magnetization    =    74.37 Bohr mag/cell

     iteration # 38     ecut=    50.00 Ry     beta= 0.20
     Davidson diagonalization with overlap
     ethr =  1.56E-09,  avg # of iterations =  2.9

     negative rho (up, down):  8.204E-04 4.829E-04
 
     Adding external electric field

     Computed dipole along edir(3) : 
        Dipole               -0.0007 Ry au,         -0.0017 Debye
        Dipole field         -0.0000 Ry au, 
 
        Potential amp.        0.0000 Ry
        Total length         54.1761 bohr
 
 
     Adding external electric field

     Computed dipole along edir(3) : 
        Dipole               -0.0007 Ry au,         -0.0017 Debye
        Dipole field         -0.0000 Ry au, 
 
        Potential amp.        0.0000 Ry
        Total length         54.1761 bohr
 

     total cpu time spent up to now is    82801.3 secs

     total energy              =   -7057.97596660 Ry
     estimated scf accuracy    <       0.00000672 Ry

     total magnetization       =    72.65 Bohr mag/cell
     absolute magnetization    =    74.37 Bohr mag/cell

     iteration # 39     ecut=    50.00 Ry     beta= 0.20
     Davidson diagonalization with overlap
     ethr =  6.33E-10,  avg # of iterations =  2.2

     negative rho (up, down):  8.194E-04 4.788E-04
 
     Adding external electric field

     Computed dipole along edir(3) : 
        Dipole               -0.0016 Ry au,         -0.0041 Debye
        Dipole field         -0.0000 Ry au, 
 
        Potential amp.        0.0001 Ry
        Total length         54.1761 bohr
 
 
     Adding external electric field

     Computed dipole along edir(3) : 
        Dipole               -0.0016 Ry au,         -0.0041 Debye
        Dipole field         -0.0000 Ry au, 
 
        Potential amp.        0.0001 Ry
        Total length         54.1761 bohr
 

     total cpu time spent up to now is    84583.1 secs

     total energy              =   -7057.97597037 Ry
     estimated scf accuracy    <       0.00000529 Ry

     total magnetization       =    72.65 Bohr mag/cell
     absolute magnetization    =    74.36 Bohr mag/cell

     iteration # 40     ecut=    50.00 Ry     beta= 0.20
     Davidson diagonalization with overlap
     ethr =  4.97E-10,  avg # of iterations =  2.2

     negative rho (up, down):  8.207E-04 4.885E-04
 
     Adding external electric field

     Computed dipole along edir(3) : 
        Dipole               -0.0015 Ry au,         -0.0037 Debye
        Dipole field         -0.0000 Ry au, 
 
        Potential amp.        0.0001 Ry
        Total length         54.1761 bohr
 
 
     Adding external electric field

     Computed dipole along edir(3) : 
        Dipole               -0.0015 Ry au,         -0.0037 Debye
        Dipole field         -0.0000 Ry au, 
 
        Potential amp.        0.0001 Ry
        Total length         54.1761 bohr
 

     total cpu time spent up to now is    86346.7 secs

     total energy              =   -7057.97597282 Ry
     estimated scf accuracy    <       0.00000414 Ry

     total magnetization       =    72.65 Bohr mag/cell
     absolute magnetization    =    74.35 Bohr mag/cell

     iteration # 41     ecut=    50.00 Ry     beta= 0.20
     Davidson diagonalization with overlap
     ethr =  3.89E-10,  avg # of iterations =  2.0

     negative rho (up, down):  8.226E-04 5.031E-04
 
     Adding external electric field

     Computed dipole along edir(3) : 
        Dipole               -0.0011 Ry au,         -0.0028 Debye
        Dipole field         -0.0000 Ry au, 
 
        Potential amp.        0.0001 Ry
        Total length         54.1761 bohr
 
 
     Adding external electric field

     Computed dipole along edir(3) : 
        Dipole               -0.0011 Ry au,         -0.0028 Debye
        Dipole field         -0.0000 Ry au, 
 
        Potential amp.        0.0001 Ry
        Total length         54.1761 bohr
 

     total cpu time spent up to now is    88132.2 secs

     total energy              =   -7057.97597411 Ry
     estimated scf accuracy    <       0.00000102 Ry

     total magnetization       =    72.65 Bohr mag/cell
     absolute magnetization    =    74.35 Bohr mag/cell

     iteration # 42     ecut=    50.00 Ry     beta= 0.20
     Davidson diagonalization with overlap
     ethr =  9.64E-11,  avg # of iterations =  5.1

     negative rho (up, down):  8.254E-04 5.258E-04
 
     Adding external electric field

     Computed dipole along edir(3) : 
        Dipole               -0.0060 Ry au,         -0.0152 Debye
        Dipole field         -0.0000 Ry au, 
 
        Potential amp.        0.0004 Ry
        Total length         54.1761 bohr
 
 
     Adding external electric field

     Computed dipole along edir(3) : 
        Dipole               -0.0060 Ry au,         -0.0152 Debye
        Dipole field         -0.0000 Ry au, 
 
        Potential amp.        0.0004 Ry
        Total length         54.1761 bohr
 
 
     Magnetic moment per site:
     atom:    1    charge:    7.1057    magn:    1.4598    constr:    0.0000
     atom:    2    charge:    7.0952    magn:    1.5471    constr:    0.0000
     atom:    3    charge:    7.1055    magn:    1.4599    constr:    0.0000
     atom:    4    charge:    7.0952    magn:    1.5471    constr:    0.0000
     atom:    5    charge:    7.1144    magn:    1.5038    constr:    0.0000
     atom:    6    charge:    7.1144    magn:    1.5038    constr:    0.0000
     atom:    7    charge:    0.8200    magn:    0.0061    constr:    0.0000
     atom:    8    charge:    0.8228    magn:    0.0031    constr:    0.0000
     atom:    9    charge:    0.8228    magn:    0.0031    constr:    0.0000
     atom:   10    charge:    0.8200    magn:    0.0061    constr:    0.0000
     atom:   11    charge:    2.0127    magn:    0.0794    constr:    0.0000
     atom:   12    charge:    2.0126    magn:    0.1001    constr:    0.0000
     atom:   13    charge:    2.0126    magn:    0.1001    constr:    0.0000
     atom:   14    charge:    2.0127    magn:    0.0794    constr:    0.0000
     atom:   15    charge:    2.0207    magn:    0.0578    constr:    0.0000
     atom:   16    charge:    2.0029    magn:    0.0511    constr:    0.0000
     atom:   17    charge:    2.0029    magn:    0.0511    constr:    0.0000
     atom:   18    charge:    2.0207    magn:    0.0578    constr:    0.0000
     atom:   19    charge:    2.0188    magn:    0.0584    constr:    0.0000
     atom:   20    charge:    2.0139    magn:    0.0553    constr:    0.0000
     atom:   21    charge:    2.0205    magn:    0.0498    constr:    0.0000
     atom:   22    charge:    2.0191    magn:    0.0494    constr:    0.0000
     atom:   23    charge:    2.0191    magn:    0.0494    constr:    0.0000
     atom:   24    charge:    2.0139    magn:    0.0553    constr:    0.0000
     atom:   25    charge:    2.0188    magn:    0.0584    constr:    0.0000
     atom:   26    charge:    2.0205    magn:    0.0498    constr:    0.0000
     atom:   27    charge:    7.0974    magn:    1.5410    constr:    0.0000
     atom:   28    charge:    7.0966    magn:    1.5411    constr:    0.0000
     atom:   29    charge:    7.0974    magn:    1.5412    constr:    0.0000
     atom:   30    charge:    7.0970    magn:    1.5406    constr:    0.0000
     atom:   31    charge:    7.1161    magn:    1.5021    constr:    0.0000
     atom:   32    charge:    7.1161    magn:    1.5019    constr:    0.0000
     atom:   33    charge:    0.8200    magn:    0.0062    constr:    0.0000
     atom:   34    charge:    0.8202    magn:    0.0063    constr:    0.0000
     atom:   35    charge:    0.8202    magn:    0.0063    constr:    0.0000
     atom:   36    charge:    0.8200    magn:    0.0062    constr:    0.0000
     atom:   37    charge:    2.0132    magn:    0.0826    constr:    0.0000
     atom:   38    charge:    2.0132    magn:    0.0824    constr:    0.0000
     atom:   39    charge:    2.0132    magn:    0.0825    constr:    0.0000
     atom:   40    charge:    2.0132    magn:    0.0827    constr:    0.0000
     atom:   41    charge:    2.0205    magn:    0.0583    constr:    0.0000
     atom:   42    charge:    2.0206    magn:    0.0581    constr:    0.0000
     atom:   43    charge:    2.0205    magn:    0.0581    constr:    0.0000
     atom:   44    charge:    2.0208    magn:    0.0577    constr:    0.0000
     atom:   45    charge:    2.0200    magn:    0.0581    constr:    0.0000
     atom:   46    charge:    2.0193    magn:    0.0581    constr:    0.0000
     atom:   47    charge:    2.0208    magn:    0.0498    constr:    0.0000
     atom:   48    charge:    2.0207    magn:    0.0497    constr:    0.0000
     atom:   49    charge:    2.0207    magn:    0.0497    constr:    0.0000
     atom:   50    charge:    2.0193    magn:    0.0581    constr:    0.0000
     atom:   51    charge:    2.0200    magn:    0.0580    constr:    0.0000
     atom:   52    charge:    2.0208    magn:    0.0497    constr:    0.0000
     atom:   53    charge:    7.0923    magn:    1.5505    constr:    0.0000
     atom:   54    charge:    7.0475    magn:    1.6925    constr:    0.0000
     atom:   55    charge:    7.0944    magn:    1.5436    constr:    0.0000
     atom:   56    charge:    7.1063    magn:    1.4627    constr:    0.0000
     atom:   57    charge:    7.1140    magn:    1.4976    constr:    0.0000
     atom:   58    charge:    7.1113    magn:    1.5028    constr:    0.0000
     atom:   59    charge:    0.8177    magn:    0.0042    constr:    0.0000
     atom:   60    charge:    0.8190    magn:    0.0061    constr:    0.0000
     atom:   61    charge:    0.8206    magn:    0.0061    constr:    0.0000
     atom:   62    charge:    0.8174    magn:    0.0043    constr:    0.0000
     atom:   63    charge:    2.0106    magn:    0.1026    constr:    0.0000
     atom:   64    charge:    2.0112    magn:    0.0863    constr:    0.0000
     atom:   65    charge:    2.0140    magn:    0.0774    constr:    0.0000
     atom:   66    charge:    2.0097    magn:    0.1073    constr:    0.0000
     atom:   67    charge:    2.0117    magn:    0.0404    constr:    0.0000
     atom:   68    charge:    2.0192    magn:    0.0589    constr:    0.0000
     atom:   69    charge:    2.0186    magn:    0.0562    constr:    0.0000
     atom:   70    charge:    2.0085    magn:    0.0462    constr:    0.0000
     atom:   71    charge:    2.0134    magn:    0.0551    constr:    0.0000
     atom:   72    charge:    2.0179    magn:    0.0580    constr:    0.0000
     atom:   73    charge:    2.0186    magn:    0.0515    constr:    0.0000
     atom:   74    charge:    2.0202    magn:    0.0490    constr:    0.0000
     atom:   75    charge:    2.0199    magn:    0.0482    constr:    0.0000
     atom:   76    charge:    2.0176    magn:    0.0600    constr:    0.0000
     atom:   77    charge:    2.0148    magn:    0.0546    constr:    0.0000
     atom:   78    charge:    2.0172    magn:    0.0575    constr:    0.0000
     atom:   79    charge:    7.1058    magn:    1.4596    constr:    0.0000
     atom:   80    charge:    7.0952    magn:    1.5471    constr:    0.0000
     atom:   81    charge:    7.1056    magn:    1.4599    constr:    0.0000
     atom:   82    charge:    7.0952    magn:    1.5471    constr:    0.0000
     atom:   83    charge:    7.1144    magn:    1.5038    constr:    0.0000
     atom:   84    charge:    7.1144    magn:    1.5038    constr:    0.0000
     atom:   85    charge:    0.8200    magn:    0.0061    constr:    0.0000
     atom:   86    charge:    0.8228    magn:    0.0031    constr:    0.0000
     atom:   87    charge:    0.8228    magn:    0.0031    constr:    0.0000
     atom:   88    charge:    0.8200    magn:    0.0061    constr:    0.0000
     atom:   89    charge:    2.0127    magn:    0.0794    constr:    0.0000
     atom:   90    charge:    2.0126    magn:    0.1001    constr:    0.0000
     atom:   91    charge:    2.0126    magn:    0.1001    constr:    0.0000
     atom:   92    charge:    2.0127    magn:    0.0794    constr:    0.0000
     atom:   93    charge:    2.0207    magn:    0.0578    constr:    0.0000
     atom:   94    charge:    2.0028    magn:    0.0511    constr:    0.0000
     atom:   95    charge:    2.0029    magn:    0.0511    constr:    0.0000
     atom:   96    charge:    2.0207    magn:    0.0578    constr:    0.0000
     atom:   97    charge:    2.0188    magn:    0.0584    constr:    0.0000
     atom:   98    charge:    2.0139    magn:    0.0553    constr:    0.0000
     atom:   99    charge:    2.0205    magn:    0.0498    constr:    0.0000
     atom:  100    charge:    2.0191    magn:    0.0494    constr:    0.0000
     atom:  101    charge:    2.0191    magn:    0.0494    constr:    0.0000
     atom:  102    charge:    2.0139    magn:    0.0553    constr:    0.0000
     atom:  103    charge:    2.0188    magn:    0.0584    constr:    0.0000
     atom:  104    charge:    2.0205    magn:    0.0498    constr:    0.0000
     atom:  105    charge:    7.0974    magn:    1.5413    constr:    0.0000
     atom:  106    charge:    7.0969    magn:    1.5412    constr:    0.0000
     atom:  107    charge:    7.0974    magn:    1.5412    constr:    0.0000
     atom:  108    charge:    7.0969    magn:    1.5413    constr:    0.0000
     atom:  109    charge:    7.1161    magn:    1.5020    constr:    0.0000
     atom:  110    charge:    7.1161    magn:    1.5024    constr:    0.0000
     atom:  111    charge:    0.8201    magn:    0.0062    constr:    0.0000
     atom:  112    charge:    0.8202    magn:    0.0063    constr:    0.0000
     atom:  113    charge:    0.8202    magn:    0.0063    constr:    0.0000
     atom:  114    charge:    0.8199    magn:    0.0062    constr:    0.0000
     atom:  115    charge:    2.0132    magn:    0.0829    constr:    0.0000
     atom:  116    charge:    2.0132    magn:    0.0826    constr:    0.0000
     atom:  117    charge:    2.0132    magn:    0.0826    constr:    0.0000
     atom:  118    charge:    2.0132    magn:    0.0827    constr:    0.0000
     atom:  119    charge:    2.0209    magn:    0.0577    constr:    0.0000
     atom:  120    charge:    2.0206    magn:    0.0581    constr:    0.0000
     atom:  121    charge:    2.0205    magn:    0.0581    constr:    0.0000
     atom:  122    charge:    2.0206    magn:    0.0576    constr:    0.0000
     atom:  123    charge:    2.0200    magn:    0.0581    constr:    0.0000
     atom:  124    charge:    2.0193    magn:    0.0582    constr:    0.0000
     atom:  125    charge:    2.0208    magn:    0.0498    constr:    0.0000
     atom:  126    charge:    2.0207    magn:    0.0497    constr:    0.0000
     atom:  127    charge:    2.0207    magn:    0.0497    constr:    0.0000
     atom:  128    charge:    2.0193    magn:    0.0581    constr:    0.0000
     atom:  129    charge:    2.0200    magn:    0.0580    constr:    0.0000
     atom:  130    charge:    2.0209    magn:    0.0498    constr:    0.0000
     atom:  131    charge:    7.0959    magn:    1.5399    constr:    0.0000
     atom:  132    charge:    7.1074    magn:    1.4698    constr:    0.0000
     atom:  133    charge:    7.0937    magn:    1.5453    constr:    0.0000
     atom:  134    charge:    7.1060    magn:    1.4591    constr:    0.0000
     atom:  135    charge:    7.1113    magn:    1.4943    constr:    0.0000
     atom:  136    charge:    7.1101    magn:    1.5046    constr:    0.0000
     atom:  137    charge:    0.8180    magn:    0.0051    constr:    0.0000
     atom:  138    charge:    0.8202    magn:    0.0061    constr:    0.0000
     atom:  139    charge:    0.8202    magn:    0.0058    constr:    0.0000
     atom:  140    charge:    0.8174    magn:    0.0040    constr:    0.0000
     atom:  141    charge:    2.0131    magn:    0.0799    constr:    0.0000
     atom:  142    charge:    2.0138    magn:    0.0800    constr:    0.0000
     atom:  143    charge:    2.0135    magn:    0.0787    constr:    0.0000
     atom:  144    charge:    2.0079    magn:    0.1106    constr:    0.0000
     atom:  145    charge:    2.0115    magn:    0.0618    constr:    0.0000
     atom:  146    charge:    2.0187    magn:    0.0554    constr:    0.0000
     atom:  147    charge:    2.0194    magn:    0.0567    constr:    0.0000
     atom:  148    charge:    2.0084    magn:    0.0457    constr:    0.0000
     atom:  149    charge:    2.0136    magn:    0.0670    constr:    0.0000
     atom:  150    charge:    2.0183    magn:    0.0589    constr:    0.0000
     atom:  151    charge:    2.0161    magn:    0.0491    constr:    0.0000
     atom:  152    charge:    2.0183    magn:    0.0493    constr:    0.0000
     atom:  153    charge:    2.0202    magn:    0.0507    constr:    0.0000
     atom:  154    charge:    2.0178    magn:    0.0574    constr:    0.0000
     atom:  155    charge:    2.0155    magn:    0.0564    constr:    0.0000
     atom:  156    charge:    2.0173    magn:    0.0520    constr:    0.0000
     atom:  157    charge:    1.9969    magn:    0.2265    constr:    0.0000
     atom:  158    charge:    0.3966    magn:   -0.0018    constr:    0.0000

     total cpu time spent up to now is    90368.6 secs

     End of self-consistent calculation

 ------ SPIN UP ------------


          k = 0.0000 0.0000 0.0000 (121819 PWs)   bands (ev):

   -21.4408 -21.3044 -21.2444 -21.2147 -21.1796 -21.1768 -21.1713 -21.1270
   -21.1000 -21.0976 -21.0758 -21.0213 -21.0168 -20.9917 -20.9522 -20.9345
   -20.8202 -20.8137 -20.7818 -20.7146 -20.7019 -20.6709 -20.6115 -20.5761
   -19.0271 -19.0257 -18.9770 -18.9696 -18.9362 -18.9179 -18.9056 -18.8968
   -18.8726 -18.8217 -18.8127 -18.8119 -18.7729 -18.7676 -18.7460 -18.7347
   -18.7256 -18.7154 -18.7112 -18.7081 -18.6983 -18.6949 -18.6783 -18.6670
   -18.6636 -18.6526 -18.6409 -18.6244 -18.6138 -18.5939 -18.5705 -18.5699
   -18.5698 -18.5644 -18.5499 -18.5451 -18.5391 -18.5297 -18.5208 -18.5065
   -18.5032 -18.4940 -18.4895 -18.4791 -18.4767 -18.4740 -18.4540 -18.4450
   -18.4414 -18.4349 -18.4336 -18.4172 -18.3868 -18.3856 -18.3683 -18.3597
   -18.3369 -18.3354 -18.3235 -18.3021 -18.3012 -18.2376 -18.1824 -18.1370
   -18.0501 -17.8381 -17.8206 -17.7866 -17.5976 -17.4364 -17.4153 -17.4117
   -17.3972  -8.8947  -8.7080  -8.5713  -8.5145  -8.5108  -8.4780  -8.4368
    -8.4240  -8.4009  -8.3985  -8.3935  -8.3545  -8.3324  -8.3284  -8.3034
    -8.2522  -8.1389  -8.0764  -8.0431  -7.9885  -7.9365  -7.9284  -7.9224
    -7.8981  -7.5323  -7.2949  -7.1472  -7.1383  -7.0236  -6.9473  -6.9039
    -6.8342  -6.6985  -6.6638  -6.6565  -6.6375  -6.6307  -6.6236  -6.5819
    -6.5631  -6.5080  -6.4503  -6.4072  -6.3929  -6.3679  -6.3446  -6.3380
    -6.2841  -6.2783  -6.2761  -6.2708  -6.2618  -6.2397  -6.2125  -6.1926
    -6.1775  -6.1123  -6.0981  -6.0887  -6.0761  -6.0488  -6.0346  -6.0309
    -6.0290  -5.9700  -5.9638  -5.9460  -5.9445  -5.9294  -5.9201  -5.8613
    -5.8548  -5.8399  -5.7915  -5.7773  -5.7300  -5.7031  -5.7017  -5.6609
    -5.6275  -5.6089  -5.5926  -5.5546  -5.5126  -5.5038  -5.4710  -5.4628
    -5.4561  -5.4016  -5.3815  -5.3767  -5.3393  -5.3317  -5.3249  -5.2966
    -5.2766  -5.2615  -5.2541  -5.2276  -5.1749  -5.1588  -5.1552  -5.0937
    -5.0235  -4.9999  -4.9580  -4.9577  -4.9321  -4.9152  -4.8999  -4.8914
    -4.8833  -4.8538  -4.7790  -4.7697  -4.7618  -4.7036  -4.6783  -4.6509
    -4.6083  -4.5707  -4.5381  -4.4928  -4.4775  -4.4685  -4.4320  -4.4130
    -4.3949  -4.3853  -4.3691  -4.3357  -4.3226  -4.3194  -4.2832  -4.2819
    -4.2414  -4.2109  -4.1989  -4.1873  -4.1788  -4.1419  -4.1275  -4.1146
    -4.0936  -4.0864  -4.0640  -4.0410  -4.0280  -3.9719  -3.9698  -3.9624
    -3.9395  -3.9261  -3.9165  -3.8997  -3.8697  -3.8509  -3.7818  -3.7754
    -3.7678  -3.7540  -3.7350  -3.7305  -3.7242  -3.7117  -3.6837  -3.6734
    -3.6547  -3.6423  -3.6377  -3.6236  -3.6002  -3.5826  -3.5795  -3.5287
    -3.5256  -3.5188  -3.5147  -3.5005  -3.4880  -3.4755  -3.4602  -3.4484
    -3.4399  -3.4149  -3.3878  -3.3693  -3.3517  -3.3285  -3.3072  -3.3039
    -3.2961  -3.2741  -3.2620  -3.2503  -3.2434  -3.2260  -3.2040  -3.1969
    -3.1267  -3.1084  -3.0899  -3.0760  -3.0547  -3.0501  -3.0219  -3.0145
    -3.0052  -2.9467  -2.9169  -2.8982  -2.8593  -2.8322  -2.8157  -2.8095
[...]
    -6.1310  -6.1051  -6.1020  -6.0955  -6.0834  -6.0371  -6.0314  -6.0282
    -6.0269  -6.0047  -5.9982  -5.9891  -5.9871  -5.9127  -5.9054  -5.9003
    -5.8933  -5.8706  -5.8694  -5.8507  -5.8407  -5.7622  -5.7617  -5.7557
    -5.7510  -5.6711  -5.6641  -5.6618  -5.6486  -5.5593  -5.5257  -5.4967
    -5.4912  -5.4557  -5.4460  -5.4153  -5.4096  -5.4020  -5.3998  -5.3828
    -5.3524  -5.1354  -4.9789  -4.9762  -4.9723  -4.9667  -4.9360  -4.9254
    -4.9066  -4.8048  -4.7354  -4.7342  -4.7310  -4.7150  -4.6395  -4.6370
    -4.6287  -4.6245  -4.5962  -4.5789  -4.5700  -4.5290  -4.3876  -4.3866
    -4.3858  -4.3733  -4.3264  -4.3082  -4.3065  -4.2835  -4.2407  -4.2319
    -4.2229  -4.2024  -4.1645  -4.1540  -4.1465  -4.1035  -3.9846  -3.9747
    -3.9710  -3.9513  -3.9042  -3.8990  -3.8823  -3.8431  -3.7745  -3.7712
    -3.7681  -3.7526  -3.7188  -3.7120  -3.7092  -3.7031  -3.6902  -3.6820
    -3.6808  -3.6689  -3.6166  -3.6123  -3.6102  -3.6040  -3.5526  -3.5337
    -3.5208  -3.5118  -3.4400  -3.4317  -3.4278  -3.4131  -3.3980  -3.3860
    -3.3767  -3.3656  -3.2950  -3.2907  -3.2858  -3.2756  -3.2644  -3.2546
    -3.2507  -3.2469  -3.1785  -3.1761  -3.1709  -3.1685  -3.0267  -3.0107
    -3.0008  -2.9952  -2.9600  -2.9521  -2.9359  -2.9285  -2.9001  -2.8961
    -2.8824  -2.8702  -2.7888  -2.7778  -2.7730  -2.7674  -2.7584  -2.7345
    -2.7289  -2.7067  -2.6815  -2.6615  -2.6586  -2.6417  -2.6345  -2.6170
    -2.6129  -2.5914  -2.5859  -2.5822  -2.5757  -2.5623  -2.5184  -2.5162
    -2.5036  -2.4943  -2.4853  -2.4796  -2.4753  -2.4704  -2.4602  -2.4587
    -2.4429  -2.4082  -2.3515  -2.3506  -2.3452  -2.3203  -2.2832  -2.2767
    -2.2675  -2.2549  -2.2507  -2.2391  -2.2266  -2.2210  -2.1867  -2.1775
    -2.1729  -2.1711  -2.0664  -2.0516  -2.0455  -2.0386  -1.9962  -1.9699
    -1.9569  -1.9478  -1.9410  -1.9399  -1.9371  -1.9280  -1.9099  -1.9023
    -1.8992  -1.8775  -1.7972  -1.7807  -1.7791  -1.7753  -1.7687  -1.7558
    -1.7546  -1.7322  -1.7030  -1.6096  -1.6087  -1.6064  -1.5942  -1.5593
    -1.5323  -1.5206  -1.4950  -1.4865  -1.4630  -1.4513  -1.4444  -1.4087
    -1.3906  -1.3854  -1.2979  -1.2572  -1.2477  -1.2452  -1.2154  -1.2047
    -1.2034  -1.2030  -1.1907  -1.0403  -0.9810  -0.9225  -0.8595  -0.6754
    -0.6752  -0.6752  -0.6752  -0.6639   0.1361   0.1429   0.1442   0.1453
     0.1629   0.1783   0.1811   0.1852   0.1957   0.2067   0.2116   0.2143
     0.2250   0.2300   0.2315   0.2365   0.2410   0.2502   0.2575   0.2628
     0.2705   0.2778   0.2840   0.2934   0.2975   0.3001   0.3022   0.3035
     0.3104   0.3206   0.3233   0.3284   0.3385   0.3663   0.3688   0.3697
     0.3733   0.3746   0.3804   0.3891   0.3917   0.3957   0.3972   0.4029
     0.4044   0.4147   0.4185   0.4348   0.4467   0.4524   0.4552   0.4591
     0.4648   0.4723   0.4780   0.4842   0.4883   0.4937   0.4952   0.5035
     0.5060   0.5113   0.5157   0.5173   0.5292   0.5313   0.5321   0.5445
     0.5453   0.5480   0.5618   0.5801   0.5893   0.5969   0.6021   0.6093
     0.6244   0.6329   0.6359   0.6449   0.6504   0.6609   0.6674   0.6885
     0.6913   0.6947   0.6996   0.7165   0.7196   0.7273   0.7331   0.7520
     0.7622   0.7679   0.7701   0.7866   0.7912   0.7944   0.7991   0.8018
     0.8181   0.8250   0.8328   0.8334   0.8348   0.8357   0.8550   1.2996
     1.4252   1.4254   1.4256   1.4256   1.5092   1.5671   1.5771   1.6757
     1.8290   1.8367   1.8440   1.8459   1.8697   1.8717   1.8789   1.8861
     1.9682   1.9758   1.9788   1.9892   2.0291   2.0367   2.0374   2.0526
     2.0601   2.0662   2.0720   2.0744   2.0852   2.0904   2.0910   2.0933
     2.0992   2.1181   2.1265   2.1293   2.1924   2.2124   2.2185   2.2301
     2.2367   2.2482   2.2565   2.2908   2.3029   2.3056   2.3074   2.3308
     2.3466   2.3512   2.3618   2.3946   2.4221   2.4745   2.4791   2.4985
     2.5108   2.5279   2.5361   2.5466   2.5799   2.6147   2.6193   2.6232
     2.6360   2.6469   2.6489   2.6532   2.6575   2.6835   2.7057   2.7163
     5.7276   5.7279   5.7291   5.7320   5.9095   5.9183   5.9515   6.0967
     6.2900   6.2938   6.3122   6.4932   6.7909   6.8027   6.8137   6.9368
     7.1128   7.1276   7.1305   7.2705   7.3316   7.3397   7.3509   7.4315
     7.6350   7.6431   7.6446   7.7171   7.8477   7.8539   7.8599   7.8722
     7.9222   7.9256   7.9376   7.9789   8.0653   8.0779   8.0947   8.1534
     8.1667   8.1774   8.1955   8.2438   8.2890   8.2926   8.3072   8.3151
     8.3227   8.3329   8.3389   8.3446   8.3489   8.3711   8.3824   8.4035
     8.4455   8.4523   8.4812   8.4951   8.5251   8.5312   8.5530   8.6676
     8.6857   8.6882   8.6897   8.7095   8.7335   8.7547

     the Fermi energy is     1.1929 ev

!    total energy              =   -7057.97597471 Ry
     estimated scf accuracy    <       0.00000042 Ry
     smearing contrib. (-TS)   =      -0.00475984 Ry
     internal energy E=F+TS    =   -7057.97121487 Ry

     The total energy is F=E-TS. E is the sum of the following terms:
     one-electron contribution =  -89078.72863356 Ry
     hartree contribution      =   45217.17873826 Ry
     xc contribution           =   -2299.50034220 Ry
     ewald contribution        =   39104.91759461 Ry
     Dispersion Correction     =      -1.83857201 Ry
     electric field correction =       0.00000002 Ry

     total magnetization       =    72.65 Bohr mag/cell
     absolute magnetization    =    74.35 Bohr mag/cell

     convergence has been achieved in  42 iterations

     negative rho (up, down):  8.254E-04 5.258E-04

     Forces acting on atoms (cartesian axes, Ry/au):

     atom    1 type  1   force =     0.02943181   -0.01707631    0.01845740
     atom    2 type  1   force =    -0.00359844    0.00059997   -0.00195097
     atom    3 type  1   force =    -0.02942431   -0.01704866    0.01845548
     atom    4 type  1   force =     0.00356650    0.00062650   -0.00201093
     atom    5 type  1   force =    -0.00317587    0.00477066   -0.00135606
     atom    6 type  1   force =     0.00318939    0.00466782   -0.00137553
     atom    7 type  2   force =     0.00168013    0.00072282   -0.00100804
     atom    8 type  2   force =    -0.03164723    0.04267073   -0.07501739
     atom    9 type  2   force =     0.03164096    0.04266641   -0.07501727
     atom   10 type  2   force =    -0.00169364    0.00073926   -0.00100647
     atom   11 type  3   force =    -0.00186440   -0.00001437   -0.00182817
     atom   12 type  3   force =    -0.00557073   -0.00016533    0.02467439
     atom   13 type  3   force =     0.00555669   -0.00015542    0.02465687
     atom   14 type  3   force =     0.00184866   -0.00001029   -0.00182325
     atom   15 type  3   force =    -0.00054274   -0.00115808   -0.00000712
     atom   16 type  3   force =     0.00740110   -0.00049224    0.02949307
     atom   17 type  3   force =    -0.00741408   -0.00049016    0.02952618
     atom   18 type  3   force =     0.00054420   -0.00117025   -0.00000179
     atom   19 type  3   force =    -0.00033184   -0.00019391    0.00065434
     atom   20 type  3   force =    -0.01366874   -0.03030253   -0.00095568
     atom   21 type  3   force =     0.00026793   -0.00069207    0.00145189
     atom   22 type  3   force =    -0.01827662    0.00083839    0.00221496
     atom   23 type  3   force =     0.01827825    0.00081268    0.00221376
     atom   24 type  3   force =     0.01367297   -0.03030404   -0.00095101
     atom   25 type  3   force =     0.00032652   -0.00017544    0.00065799
     atom   26 type  3   force =    -0.00026528   -0.00068502    0.00146006
     atom   27 type  1   force =     0.00003643   -0.00012205   -0.00045322
     atom   28 type  1   force =    -0.00130841   -0.00103662    0.00500391
     atom   29 type  1   force =    -0.00005012   -0.00011819   -0.00045416
     atom   30 type  1   force =     0.00071265   -0.00027306    0.00213629
     atom   31 type  1   force =    -0.00008603   -0.00007545    0.00012618
     atom   32 type  1   force =     0.00000391   -0.00009620    0.00015956
     atom   33 type  2   force =     0.00010292   -0.00073888    0.00145267
     atom   34 type  2   force =    -0.00002517    0.00012249    0.00005373
     atom   35 type  2   force =     0.00008310    0.00012492   -0.00004072
     atom   36 type  2   force =    -0.00018162   -0.00031612    0.00154998
     atom   37 type  3   force =    -0.00034055   -0.00012905   -0.00027684
     atom   38 type  3   force =    -0.00032113    0.00022881    0.00004142
     atom   39 type  3   force =     0.00022549    0.00022230    0.00000653
     atom   40 type  3   force =     0.00038193   -0.00032467   -0.00027593
     atom   41 type  3   force =     0.00168313   -0.00096210    0.00284944
     atom   42 type  3   force =    -0.00009818    0.00039229    0.00019534
     atom   43 type  3   force =     0.00006894    0.00038041    0.00020574
     atom   44 type  3   force =    -0.00092652    0.00027212    0.00109670
     atom   45 type  3   force =    -0.00001822    0.00061271    0.00008797
     atom   46 type  3   force =    -0.00023048   -0.00005068    0.00025468
     atom   47 type  3   force =    -0.00080000   -0.00005152    0.00009873
     atom   48 type  3   force =    -0.00022108    0.00020061    0.00004954
     atom   49 type  3   force =     0.00025533    0.00020079    0.00003360
     atom   50 type  3   force =     0.00019464   -0.00006248    0.00023770
     atom   51 type  3   force =     0.00053756    0.00071562    0.00025174
     atom   52 type  3   force =     0.00046018   -0.00008842   -0.00019188
     atom   53 type  1   force =     0.00000187   -0.00007084   -0.00024307
     atom   54 type  1   force =     0.00197491    0.00097893   -0.00253405
     atom   55 type  1   force =     0.00042838    0.00031037   -0.00007825
     atom   56 type  1   force =     0.00018594   -0.00027852    0.00052686
     atom   57 type  1   force =     0.00014427    0.00024090   -0.00045490
     atom   58 type  1   force =    -0.00019182    0.00005263   -0.00017566
     atom   59 type  2   force =     0.00065750   -0.00083832    0.00024175
     atom   60 type  2   force =     0.00046672    0.00007141    0.00015296
     atom   61 type  2   force =    -0.00050562   -0.00001775   -0.00004083
     atom   62 type  2   force =    -0.00048811   -0.00034275    0.00017768
     atom   63 type  3   force =     0.00001085    0.00007375    0.00009423
     atom   64 type  3   force =     0.00030035   -0.00004163   -0.00014305
     atom   65 type  3   force =     0.00017031    0.00023616   -0.00030123
     atom   66 type  3   force =     0.00013948    0.00016371    0.00029497
     atom   67 type  3   force =     0.00058901    0.00016189   -0.00018959
     atom   68 type  3   force =    -0.00013041    0.00006947   -0.00002857
     atom   69 type  3   force =    -0.00023843    0.00010584    0.00012229
     atom   70 type  3   force =    -0.00004791    0.00035500    0.00002002
     atom   71 type  3   force =     0.00042800    0.00003395    0.00032873
     atom   72 type  3   force =     0.00020520   -0.00002733   -0.00027189
     atom   73 type  3   force =     0.00023416    0.00002644    0.00009980
     atom   74 type  3   force =    -0.00015250   -0.00010966   -0.00009471
     atom   75 type  3   force =     0.00012604   -0.00007870   -0.00025396
     atom   76 type  3   force =    -0.00064817   -0.00012179   -0.00044238
     atom   77 type  3   force =     0.00010504    0.00059194    0.00015186
     atom   78 type  3   force =    -0.00016207   -0.00012451    0.00020848
     atom   79 type  1   force =     0.02944946   -0.01707925    0.01845823
     atom   80 type  1   force =    -0.00356006    0.00058994   -0.00195141
     atom   81 type  1   force =    -0.02944775   -0.01705335    0.01845844
     atom   82 type  1   force =     0.00357418    0.00063502   -0.00200369
     atom   83 type  1   force =    -0.00323007    0.00477241   -0.00135037
     atom   84 type  1   force =     0.00320632    0.00463792   -0.00135623
     atom   85 type  2   force =     0.00168644    0.00072371   -0.00100785
     atom   86 type  2   force =    -0.03164943    0.04267064   -0.07501562
     atom   87 type  2   force =     0.03163764    0.04266587   -0.07501620
     atom   88 type  2   force =    -0.00169188    0.00073664   -0.00100773
     atom   89 type  3   force =    -0.00188355   -0.00001699   -0.00182628
     atom   90 type  3   force =    -0.00555718   -0.00017042    0.02469025
     atom   91 type  3   force =     0.00556432   -0.00014968    0.02465762
     atom   92 type  3   force =     0.00185133   -0.00001157   -0.00182371
     atom   93 type  3   force =    -0.00055025   -0.00116334   -0.00000128
     atom   94 type  3   force =     0.00741553   -0.00049374    0.02947158
     atom   95 type  3   force =    -0.00740857   -0.00048753    0.02952621
     atom   96 type  3   force =     0.00053719   -0.00117311    0.00000251
     atom   97 type  3   force =    -0.00033228   -0.00018922    0.00065451
     atom   98 type  3   force =    -0.01364673   -0.03030186   -0.00095973
     atom   99 type  3   force =     0.00027071   -0.00069295    0.00144981
     atom  100 type  3   force =    -0.01828682    0.00083873    0.00221398
     atom  101 type  3   force =     0.01828540    0.00079815    0.00221283
     atom  102 type  3   force =     0.01367983   -0.03030995   -0.00095077
     atom  103 type  3   force =     0.00032106   -0.00017269    0.00065925
     atom  104 type  3   force =    -0.00025737   -0.00068330    0.00146292
     atom  105 type  1   force =    -0.00000619   -0.00011599   -0.00038436
     atom  106 type  1   force =    -0.00015066   -0.00062855    0.00196467
     atom  107 type  1   force =    -0.00001665   -0.00006701   -0.00040728
     atom  108 type  1   force =     0.00046180    0.00021393    0.00164737
     atom  109 type  1   force =     0.00005281   -0.00011068    0.00015124
     atom  110 type  1   force =    -0.00013306   -0.00005118    0.00030193
     atom  111 type  2   force =    -0.00052503   -0.00105186    0.00181525
     atom  112 type  2   force =    -0.00014237    0.00011530    0.00005291
     atom  113 type  2   force =     0.00010636    0.00012523    0.00004289
     atom  114 type  2   force =     0.00037413    0.00035609    0.00307155
     atom  115 type  3   force =    -0.00041005   -0.00021433   -0.00068533
     atom  116 type  3   force =    -0.00020054    0.00027541   -0.00007015
     atom  117 type  3   force =     0.00025974    0.00020119   -0.00009193
     atom  118 type  3   force =     0.00036139   -0.00040583   -0.00049063
     atom  119 type  3   force =     0.00160825    0.00066697   -0.00081332
     atom  120 type  3   force =    -0.00007732    0.00039649    0.00016889
     atom  121 type  3   force =     0.00008259    0.00039657    0.00017909
     atom  122 type  3   force =    -0.00217376    0.00014238    0.00169242
     atom  123 type  3   force =    -0.00088949    0.00089274   -0.00002396
     atom  124 type  3   force =    -0.00021995   -0.00005114    0.00022244
     atom  125 type  3   force =    -0.00030040   -0.00001624   -0.00032627
     atom  126 type  3   force =    -0.00024983    0.00019662    0.00003206
     atom  127 type  3   force =     0.00020575    0.00021473   -0.00001426
     atom  128 type  3   force =     0.00027113   -0.00005539    0.00020614
     atom  129 type  3   force =     0.00055570    0.00084253   -0.00007827
     atom  130 type  3   force =     0.00057748    0.00000718   -0.00052714
     atom  131 type  1   force =    -0.00023064   -0.00021602   -0.00040981
     atom  132 type  1   force =    -0.00013856   -0.00028884    0.00015342
     atom  133 type  1   force =     0.00020545   -0.00001494   -0.00020837
     atom  134 type  1   force =     0.00039595   -0.00031778   -0.00019846
     atom  135 type  1   force =     0.00007646    0.00005254   -0.00048369
     atom  136 type  1   force =    -0.00007320    0.00046851   -0.00015541
     atom  137 type  2   force =     0.00014316   -0.00034078    0.00006338
     atom  138 type  2   force =     0.00030939    0.00028106   -0.00018688
     atom  139 type  2   force =    -0.00051813   -0.00046929    0.00007010
     atom  140 type  2   force =    -0.00027906    0.00005068   -0.00030051
     atom  141 type  3   force =    -0.00031313   -0.00001591    0.00015112
     atom  142 type  3   force =    -0.00033410    0.00008752   -0.00014410
     atom  143 type  3   force =     0.00003811    0.00014640   -0.00021191
     atom  144 type  3   force =    -0.00006688    0.00027045    0.00005001
     atom  145 type  3   force =     0.00030929    0.00013197   -0.00033090
     atom  146 type  3   force =    -0.00005894    0.00026676    0.00036770
     atom  147 type  3   force =    -0.00001912    0.00020335   -0.00013811
     atom  148 type  3   force =     0.00011252    0.00017522    0.00004899
     atom  149 type  3   force =    -0.00008374    0.00008889    0.00012824
     atom  150 type  3   force =     0.00034971    0.00010940   -0.00030392
     atom  151 type  3   force =    -0.00021666   -0.00000502   -0.00002752
     atom  152 type  3   force =    -0.00001731   -0.00022272   -0.00016819
     atom  153 type  3   force =    -0.00003470   -0.00014271    0.00003872
     atom  154 type  3   force =    -0.00043621    0.00005275   -0.00030886
     atom  155 type  3   force =    -0.00055209    0.00019994    0.00016917
     atom  156 type  3   force =     0.00034292   -0.00018878    0.00025074
     atom  157 type  3   force =    -0.00509285    0.00056030    0.00480080
     atom  158 type  4   force =     0.00311026   -0.00154750   -0.00097187

     Total force =     0.228660     Total SCF correction =     0.001538
 
     init_run     :    720.31s CPU    729.83s WALL (       1 calls)
     electrons    :  88661.01s CPU  89638.28s WALL (       1 calls)
     forces       :    347.45s CPU    352.62s WALL (       1 calls)

     Called by init_run:
     wfcinit      :    689.39s CPU    696.91s WALL (       1 calls)
     potinit      :      8.50s CPU      8.63s WALL (       1 calls)
     hinit0       :     11.94s CPU     12.04s WALL (       1 calls)

     Called by electrons:
     c_bands      :  79205.97s CPU  79940.02s WALL (      42 calls)
     sum_band     :   9006.49s CPU   9159.54s WALL (      42 calls)
     v_of_rho     :     99.55s CPU    103.01s WALL (      43 calls)
     newd         :    319.11s CPU    407.31s WALL (      43 calls)
     mix_rho      :     26.86s CPU     27.01s WALL (      42 calls)

     Called by c_bands:
     init_us_2    :    383.47s CPU    389.36s WALL (    1720 calls)
     cegterg      :  77710.02s CPU  78437.67s WALL (     850 calls)

     Called by *egterg:
     cdiaghg      :  10864.66s CPU  10900.44s WALL (    4663 calls)
     h_psi        :  38785.36s CPU  39134.19s WALL (    4683 calls)
     s_psi        :   7881.63s CPU   7893.16s WALL (    4683 calls)
     g_psi        :     56.32s CPU     56.68s WALL (    3813 calls)

     Called by h_psi:
     h_psi:calbec :   7694.55s CPU   7717.11s WALL (    4683 calls)
     vloc_psi     :  23189.68s CPU  23401.01s WALL (    4683 calls)
     add_vuspsi   :   7801.75s CPU   7835.49s WALL (    4683 calls)

     General routines
     calbec       :  10801.35s CPU  10836.95s WALL (    5603 calls)
     fft          :    103.60s CPU    104.53s WALL (    1088 calls)
     ffts         :      3.75s CPU      3.80s WALL (     170 calls)
     fftw         :  22861.97s CPU  23074.56s WALL ( 3371406 calls)
     interpolate  :      8.74s CPU      8.80s WALL (      86 calls)
 
     Parallel routines
     fft_scatt_xy :   4327.59s CPU   4370.39s WALL ( 3372664 calls)
     fft_scatt_yz :   5406.17s CPU   5456.74s WALL ( 3372664 calls)
 
     PWSCF        :   1d 0h55m CPU   1d 1h12m WALL

 
   This run was terminated on:  13:29:26  27Oct2023            

=------------------------------------------------------------------------------=
   JOB DONE.
=------------------------------------------------------------------------------=
