
     Program PWSCF v.7.2 starts on 18Nov2025 at  0: 5:23 

     This program is part of the open-source Quantum ESPRESSO suite
     for quantum simulation of materials; please cite
         "P. Giannozzi et al., J. Phys.:Condens. Matter 21 395502 (2009);
         "P. Giannozzi et al., J. Phys.:Condens. Matter 29 465901 (2017);
         "P. Giannozzi et al., J. Chem. Phys. 152 154105 (2020);
          URL http://www.quantum-espresso.org", 
     in publications or presentations arising from this work. More details at
     http://www.quantum-espresso.org/quote

     Parallel version (MPI), running on    64 processors

     MPI processes distributed on     4 nodes
     454132 MiB available memory on the printing compute node when the environment starts
 
     Reading input from PWINPUT_atm158_xp

     Current dimensions of program PWSCF are:
     Max number of different atomic species (ntypx) = 10
     Max number of k-points (npk) =  40000
     Max angular momentum in pseudopotentials (lmaxx) =  4
     Presently no symmetry can be used with electric field

     file Ni.pbe-n-rrkjus_psl.1.0.0.UPF: wavefunction(s)  3D renormalized
     file Mn.pbe-spn-rrkjus_psl.0.3.1.UPF: wavefunction(s)  3D renormalized
     file O.pbe-rrkjus.UPF: wavefunction(s)  2S renormalized
     file H.pbe-rrkjus.UPF: wavefunction(s)  1S renormalized

     gamma-point specific algorithms are used
 
     R & G space division:  proc/nbgrp/npool/nimage =      64
     Subspace diagonalization in iterative solution of the eigenvalue problem:
     one sub-group per band group will be used
     custom distributed-memory algorithm (size of sub-group:  7*  7 procs)

 
     Parallelization info
     --------------------
     sticks:   dense  smooth     PW     G-vecs:    dense   smooth      PW
     Min         207      82     20                60552    15302    1896
     Max         210      84     22                60574    15336    1950
     Sum       13325    5345   1333              3876045   980655  122653
 
     Using Slab Decomposition
 


     bravais-lattice index     =            0
     lattice parameter (alat)  =      17.4067  a.u.
     unit-cell volume          =   20529.8182 (a.u.)^3
     number of atoms/cell      =          158
     number of atomic types    =            5
     number of electrons       =      1093.00
     number of Kohn-Sham states=          656
     kinetic-energy cutoff     =      50.0000  Ry
     charge density cutoff     =     500.0000  Ry
     scf convergence threshold =      1.0E-06
     mixing beta               =       0.1000
     number of iterations used =            8  local-TF  mixing
     Exchange-correlation=  SLA  PW   PBE  PBE
                           (   1   4   3   4   0   0   0)

     celldm(1)=  17.406729  celldm(2)=   0.000000  celldm(3)=   0.000000
     celldm(4)=   0.000000  celldm(5)=   0.000000  celldm(6)=   0.000000

     crystal axes: (cart. coord. in units of alat)
               a(1) = (   1.000000   0.000000   0.000000 )  
               a(2) = (  -0.001404   1.105696   0.000000 )  
               a(3) = (   0.000000   0.000000   3.520448 )  

     reciprocal axes: (cart. coord. in units 2 pi/alat)
               b(1) = (  1.000000  0.001270  0.000000 )  
               b(2) = (  0.000000  0.904408  0.000000 )  
               b(3) = (  0.000000  0.000000  0.284055 )  


     PseudoPot. # 1 for Ni read from file:
     ~/PSEUDO/Ni.pbe-n-rrkjus_psl.1.0.0.UPF
     MD5 check sum: Not computed, couldn't open file
     Pseudo is Ultrasoft + core correction, Zval = 10.0
     Generated using "atomic" code by A. Dal Corso  v.5.1.2
     Using radial grid of 1195 points,  6 beta functions with: 
                l(1) =   0
                l(2) =   0
                l(3) =   1
                l(4) =   1
                l(5) =   2
                l(6) =   2
     Q(r) pseudized with 0 coefficients 


     PseudoPot. # 2 for Mn read from file:
     ~/PSEUDO/Mn.pbe-spn-rrkjus_psl.0.3.1.UPF
     MD5 check sum: Not computed, couldn't open file
     Pseudo is Ultrasoft + core correction, Zval = 15.0
     Generated using &quot;atomic&quot; code by A. Dal Corso  v.6.2.2
     Using radial grid of 1187 points,  6 beta functions with: 
                l(1) =   0
                l(2) =   0
                l(3) =   1
                l(4) =   1
                l(5) =   2
                l(6) =   2
     Q(r) pseudized with 0 coefficients 


     PseudoPot. # 3 for P  read from file:
     ~/PSEUDO/P.pbe-n-rrkjus_psl.1.0.0.UPF
     MD5 check sum: Not computed, couldn't open file
     Pseudo is Ultrasoft + core correction, Zval =  5.0
     Generated using "atomic" code by A. Dal Corso  v.5.1
     Using radial grid of 1147 points,  6 beta functions with: 
                l(1) =   0
                l(2) =   0
                l(3) =   1
                l(4) =   1
                l(5) =   2
                l(6) =   2
     Q(r) pseudized with 0 coefficients 


     PseudoPot. # 4 for O  read from file:
     ~/PSEUDO/O.pbe-rrkjus.UPF
     MD5 check sum: Not computed, couldn't open file
     Pseudo is Ultrasoft, Zval =  6.0
     Generated by new atomic code, or converted to UPF format
     Using radial grid of 1269 points,  4 beta functions with: 
                l(1) =   0
                l(2) =   0
                l(3) =   1
                l(4) =   1
     Q(r) pseudized with 0 coefficients 


     PseudoPot. # 5 for H  read from file:
     ~/PSEUDO/H.pbe-rrkjus.UPF
     MD5 check sum: Not computed, couldn't open file
     Pseudo is Ultrasoft, Zval =  1.0
     Generated by new atomic code, or converted to UPF format
     Using radial grid of 1061 points,  2 beta functions with: 
                l(1) =   0
                l(2) =   0
     Q(r) pseudized with 0 coefficients 


     atomic species   valence    mass     pseudopotential
     Ni               10.00    58.69300     Ni( 1.00)
     Mn               15.00    54.93800     Mn( 1.00)
     P                 5.00    30.97300     P ( 1.00)
     O                 6.00    15.99900     O ( 1.00)
     H                 1.00     1.00790     H ( 1.00)

     Starting magnetic structure 
     atomic species   magnetization
     Ni              1.000
     Mn              1.000
     P               1.000
     O               1.000
     H               0.000

     No symmetry found



   Cartesian axes

     site n.     atom                  positions (alat units)
         1        Ni     tau(   1) = (   0.2506570   0.8586301   1.7460606  )
         2        Mn     tau(   2) = (   0.4849727   0.7922569   1.4298438  )
         3        Ni     tau(   3) = (   0.0099166   0.3147980   1.7770697  )
         4        Ni     tau(   4) = (   0.2559633   0.2443239   1.4306739  )
         5        Ni     tau(   5) = (   0.4961466   1.1064648   1.5948314  )
         6        Ni     tau(   6) = (   0.2497854   0.5481636   1.6051322  )
         7        P      tau(   7) = (   0.2072152   1.0031948   1.4309315  )
         8        P      tau(   8) = (   0.4627705   0.6639515   1.7680067  )
         9        P      tau(   9) = (   0.2880368   0.1077753   1.7607118  )
        10        P      tau(  10) = (   0.0387468   0.4409683   1.4352442  )
        11        O      tau(  11) = (   0.1330935   0.9304818   1.5706977  )
        12        O      tau(  12) = (   0.3831504   0.7264978   1.6204600  )
        13        O      tau(  13) = (   0.3628275   0.1744689   1.6127481  )
        14        O      tau(  14) = (   0.1155931   0.3681480   1.5734176  )
        15        O      tau(  15) = (   0.1485558   0.9123257   1.3024039  )
        16        O      tau(  16) = (   0.3999411   0.7624960   1.8844666  )
        17        O      tau(  17) = (   0.3533233   0.2035263   1.8795646  )
        18        O      tau(  18) = (   0.0986482   0.3547482   1.3039728  )
        19        O      tau(  19) = (   0.0982500   0.5998695   1.4410699  )
        20        O      tau(  20) = (   0.3443251   1.0535330   1.7571523  )
        21        O      tau(  21) = (   0.3728385   0.4379153   1.4465920  )
        22        O      tau(  22) = (   0.1208408   0.1132369   1.7503220  )
        23        O      tau(  23) = (   0.1278822   0.6735676   1.7463016  )
        24        O      tau(  24) = (   0.4096499   0.5020876   1.7635143  )
        25        O      tau(  25) = (   0.1476551   0.0545948   1.4347483  )
        26        O      tau(  26) = (   0.3739202   0.9939412   1.4421146  )
        27        Ni     tau(  27) = (   0.2413539   0.8509941   1.1121345  )
        28        Mn     tau(  28) = (   0.4917018   0.7787406   0.7768134  )
        29        Ni     tau(  29) = (   0.0044877   0.2932623   1.1138982  )
        30        Ni     tau(  30) = (   0.2563139   0.2275682   0.7805625  )
        31        Ni     tau(  31) = (   0.4969120   1.0949007   0.9459116  )
        32        Ni     tau(  32) = (   0.2488318   0.5341111   0.9469721  )
        33        P      tau(  33) = (   0.2076029   0.9882917   0.7835381  )
        34        P      tau(  34) = (   0.4577012   0.6460068   1.1076436  )
        35        P      tau(  35) = (   0.2881931   0.0932770   1.1104179  )
        36        P      tau(  36) = (   0.0392916   0.4238898   0.7837243  )
        37        O      tau(  37) = (   0.1306755   0.9148866   0.9233554  )
        38        O      tau(  38) = (   0.3789780   0.7172835   0.9680652  )
        39        O      tau(  39) = (   0.3654852   0.1662865   0.9702638  )
        40        O      tau(  40) = (   0.1163776   0.3546954   0.9254186  )
        41        O      tau(  41) = (   0.1502901   0.8969129   0.6541592  )
        42        O      tau(  42) = (   0.3974525   0.7354243   1.2370031  )
        43        O      tau(  43) = (   0.3483097   0.1789497   1.2412670  )
        44        O      tau(  44) = (   0.0974932   0.3376387   0.6529083  )
        45        O      tau(  45) = (   0.0984699   0.5818903   0.7881021  )
        46        O      tau(  46) = (   0.3459978   1.0405493   1.1018526  )
        47        O      tau(  47) = (   0.3731719   0.4204123   0.7945555  )
        48        O      tau(  48) = (   0.1223503   0.0989699   1.1000566  )
        49        O      tau(  49) = (   0.1235438   0.6536772   1.0980598  )
        50        O      tau(  50) = (   0.4004339   0.4872435   1.1047245  )
        51        O      tau(  51) = (   0.1476543   0.0398268   0.7872561  )
        52        O      tau(  52) = (   0.3728637   0.9843360   0.7931368  )
        53        Ni     tau(  53) = (   0.2406075   0.8410745   0.4603118  )
        54        Mn     tau(  54) = (   0.4909555   0.7688210   0.1249907  )
        55        Ni     tau(  55) = (   0.0037414   0.2833427   0.4620755  )
        56        Ni     tau(  56) = (   0.2555676   0.2176485   0.1287398  )
        57        Ni     tau(  57) = (   0.4961657   1.0849810   0.2940889  )
        58        Ni     tau(  58) = (   0.2480854   0.5241915   0.2951494  )
        59        P      tau(  59) = (   0.2068565   0.9783721   0.1317154  )
        60        P      tau(  60) = (   0.4569549   0.6360871   0.4558210  )
        61        P      tau(  61) = (   0.2874467   0.0833574   0.4585952  )
        62        P      tau(  62) = (   0.0385452   0.4139702   0.1319017  )
        63        O      tau(  63) = (   0.1299291   0.9049669   0.2715327  )
        64        O      tau(  64) = (   0.3782317   0.7073639   0.3162425  )
        65        O      tau(  65) = (   0.3647389   0.1563669   0.3184411  )
        66        O      tau(  66) = (   0.1156313   0.3447757   0.2735959  )
        67        O      tau(  67) = (   0.1495437   0.8869933   0.0023366  )
        68        O      tau(  68) = (   0.3967062   0.7255047   0.5851804  )
        69        O      tau(  69) = (   0.3475634   0.1690300   0.5894443  )
        70        O      tau(  70) = (   0.0967469   0.3277190   0.0010856  )
        71        O      tau(  71) = (   0.0977236   0.5719706   0.1362794  )
        72        O      tau(  72) = (   0.3452514   1.0306297   0.4500300  )
        73        O      tau(  73) = (   0.3724256   0.4104926   0.1427328  )
        74        O      tau(  74) = (   0.1216040   0.0890503   0.4482339  )
        75        O      tau(  75) = (   0.1227974   0.6437575   0.4462371  )
        76        O      tau(  76) = (   0.3996875   0.4773239   0.4529018  )
        77        O      tau(  77) = (   0.1469079   0.0299071   0.1354334  )
        78        O      tau(  78) = (   0.3721173   0.9744163   0.1413141  )
        79        Ni     tau(  79) = (   0.7512968   0.8629757   1.7463792  )
        80        Mn     tau(  80) = (   0.9856283   0.7922987   1.4298132  )
        81        Ni     tau(  81) = (   0.4994156   0.3046718   1.7432553  )
        82        Ni     tau(  82) = (   0.7561331   0.2436078   1.4290244  )
        83        Ni     tau(  83) = (   0.9969098   1.1094576   1.5975923  )
        84        Ni     tau(  84) = (   0.7520413   0.5511724   1.6011549  )
        85        P      tau(  85) = (   0.7080384   1.0032090   1.4301353  )
        86        P      tau(  86) = (   0.9611635   0.6679249   1.7676684  )
        87        P      tau(  87) = (   0.7866251   0.1146576   1.7538485  )
        88        P      tau(  88) = (   0.5392440   0.4429935   1.4323773  )
        89        O      tau(  89) = (   0.6332873   0.9305214   1.5700818  )
        90        O      tau(  90) = (   0.8817828   0.7322621   1.6197895  )
        91        O      tau(  91) = (   0.8630260   0.1746843   1.6073185  )
        92        O      tau(  92) = (   0.6180632   0.3716942   1.5710585  )
        93        O      tau(  93) = (   0.6497195   0.9106468   1.3026397  )
        94        O      tau(  94) = (   0.9019451   0.7695149   1.8836030  )
        95        O      tau(  95) = (   0.8435869   0.2142205   1.8732697  )
        96        O      tau(  96) = (   0.5989220   0.3556149   1.3022932  )
        97        O      tau(  97) = (   0.5988978   0.6014494   1.4382358  )
        98        O      tau(  98) = (   0.8418133   1.0593846   1.7579884  )
        99        O      tau(  99) = (   0.8718788   0.4384067   1.4450747  )
       100        O      tau( 100) = (   0.6185655   0.1172295   1.7419182  )
       101        O      tau( 101) = (   0.6296522   0.6725592   1.7491468  )
       102        O      tau( 102) = (   0.9012154   0.5091499   1.7607365  )
       103        O      tau( 103) = (   0.6461684   0.0538532   1.4316752  )
       104        O      tau( 104) = (   0.8745741   0.9956699   1.4422503  )
       105        Ni     tau( 105) = (   0.7413539   0.8509941   1.1121345  )
       106        Mn     tau( 106) = (   0.9917018   0.7787406   0.7768134  )
       107        Ni     tau( 107) = (   0.5044877   0.2932623   1.1138982  )
       108        Ni     tau( 108) = (   0.7563139   0.2275682   0.7805625  )
       109        Ni     tau( 109) = (   0.9969120   1.0949007   0.9459116  )
       110        Ni     tau( 110) = (   0.7488318   0.5341111   0.9469721  )
       111        P      tau( 111) = (   0.7076029   0.9882917   0.7835381  )
       112        P      tau( 112) = (   0.9577012   0.6460068   1.1076436  )
       113        P      tau( 113) = (   0.7881931   0.0932770   1.1104179  )
       114        P      tau( 114) = (   0.5392916   0.4238898   0.7837243  )
       115        O      tau( 115) = (   0.6306755   0.9148866   0.9233554  )
       116        O      tau( 116) = (   0.8789780   0.7172835   0.9680652  )
       117        O      tau( 117) = (   0.8654852   0.1662865   0.9702638  )
       118        O      tau( 118) = (   0.6163776   0.3546954   0.9254186  )
       119        O      tau( 119) = (   0.6502901   0.8969129   0.6541592  )
       120        O      tau( 120) = (   0.8974525   0.7354243   1.2370031  )
       121        O      tau( 121) = (   0.8483097   0.1789497   1.2412670  )
       122        O      tau( 122) = (   0.5974932   0.3376387   0.6529083  )
       123        O      tau( 123) = (   0.5984699   0.5818903   0.7881021  )
       124        O      tau( 124) = (   0.8459978   1.0405493   1.1018526  )
       125        O      tau( 125) = (   0.8731719   0.4204123   0.7945555  )
       126        O      tau( 126) = (   0.6223503   0.0989699   1.1000566  )
       127        O      tau( 127) = (   0.6235438   0.6536772   1.0980598  )
       128        O      tau( 128) = (   0.9004339   0.4872435   1.1047245  )
       129        O      tau( 129) = (   0.6476543   0.0398268   0.7872561  )
       130        O      tau( 130) = (   0.8728637   0.9843360   0.7931368  )
       131        Ni     tau( 131) = (   0.7406075   0.8410745   0.4603118  )
       132        Mn     tau( 132) = (   0.9909555   0.7688210   0.1249907  )
       133        Ni     tau( 133) = (   0.5037414   0.2833427   0.4620755  )
       134        Ni     tau( 134) = (   0.7555676   0.2176485   0.1287398  )
       135        Ni     tau( 135) = (   0.9961657   1.0849810   0.2940889  )
       136        Ni     tau( 136) = (   0.7480854   0.5241915   0.2951494  )
       137        P      tau( 137) = (   0.7068565   0.9783721   0.1317154  )
       138        P      tau( 138) = (   0.9569549   0.6360871   0.4558210  )
       139        P      tau( 139) = (   0.7874467   0.0833574   0.4585952  )
       140        P      tau( 140) = (   0.5385452   0.4139702   0.1319017  )
       141        O      tau( 141) = (   0.6299291   0.9049669   0.2715327  )
       142        O      tau( 142) = (   0.8782317   0.7073639   0.3162425  )
       143        O      tau( 143) = (   0.8647389   0.1563669   0.3184411  )
       144        O      tau( 144) = (   0.6156313   0.3447757   0.2735959  )
       145        O      tau( 145) = (   0.6495437   0.8869933   0.0023366  )
       146        O      tau( 146) = (   0.8967062   0.7255047   0.5851804  )
       147        O      tau( 147) = (   0.8475634   0.1690300   0.5894443  )
       148        O      tau( 148) = (   0.5967469   0.3277190   0.0010856  )
       149        O      tau( 149) = (   0.5977236   0.5719706   0.1362794  )
       150        O      tau( 150) = (   0.8452514   1.0306297   0.4500300  )
       151        O      tau( 151) = (   0.8724256   0.4104926   0.1427328  )
       152        O      tau( 152) = (   0.6216040   0.0890503   0.4482339  )
       153        O      tau( 153) = (   0.6227974   0.6437575   0.4462371  )
       154        O      tau( 154) = (   0.8996875   0.4773239   0.4529018  )
       155        O      tau( 155) = (   0.6469079   0.0299071   0.1354334  )
       156        O      tau( 156) = (   0.8721173   0.9744163   0.1413141  )
       157        O      tau( 157) = (   0.1278368   0.3974856   1.9116046  )
       158        H      tau( 158) = (   0.2134849   0.3350718   1.9350536  )

     -------------------------------------------------
     Parameters for Dispersion (Grimme-D2) Correction:
     -------------------------------------------------
       atom      VdW radius       C_6     

        Ni         2.952        374.666
        Mn         2.952        374.666
        P          3.222        271.980
        O          2.536         24.284
        H          1.892          4.857

     number of k points=     1  Gaussian smearing, width (Ry)=  0.0100
                       cart. coord. in units 2pi/alat
        k(    1) = (   0.0000000   0.0000000   0.0000000), wk =   1.0000000

     Dense  grid:  1938023 G-vectors     FFT dimensions: ( 125, 144, 450)

     Smooth grid:   490328 G-vectors     FFT dimensions: (  80,  90, 288)

     Estimated max dynamical RAM per process >     326.29 MB

     Estimated total dynamical RAM >      20.39 GB

     Check: negative core charge=   -0.000001
     Generating pointlists ...
     new r_m :   0.0813 (alat units)  1.4151 (a.u.) for type    1
     new r_m :   0.0904 (alat units)  1.5744 (a.u.) for type    2
     new r_m :   0.0681 (alat units)  1.1847 (a.u.) for type    3
     new r_m :   0.0448 (alat units)  0.7793 (a.u.) for type    4
     new r_m :   0.0448 (alat units)  0.7793 (a.u.) for type    5

     Initial potential from superposition of free atoms

     starting charge    1092.8893, renormalised to    1093.0000

     negative rho (up, down):  1.398E-03 4.531E-04
 
     Adding external electric field

     Computed dipole along edir(3) : 
        Dipole                1.6505 Ry au,          4.1952 Debye
        Dipole field          0.0010 Ry au, 
 
        Potential amp.       -0.1114 Ry
        Total length         55.1515 bohr
 
 
     Adding external electric field

     Computed dipole along edir(3) : 
        Dipole                1.6505 Ry au,          4.1952 Debye
        Dipole field          0.0010 Ry au, 
 
        Potential amp.       -0.1114 Ry
        Total length         55.1515 bohr
 
     Starting wfcs are  815 randomized atomic wfcs

     total cpu time spent up to now is       10.9 secs

     Self-consistent Calculation

     iteration #  1     ecut=    50.00 Ry     beta= 0.10
     Davidson diagonalization with overlap
     ethr =  1.00E-02,  avg # of iterations =  6.0

     negative rho (up, down):  3.904E-01 3.679E-06
 
     Adding external electric field

     Computed dipole along edir(3) : 
        Dipole               -3.5578 Ry au,         -9.0431 Debye
        Dipole field         -0.0022 Ry au, 
 
        Potential amp.        0.2402 Ry
        Total length         55.1515 bohr
 
 
     Adding external electric field

     Computed dipole along edir(3) : 
        Dipole               -3.5578 Ry au,         -9.0431 Debye
        Dipole field         -0.0022 Ry au, 
 
        Potential amp.        0.2402 Ry
        Total length         55.1515 bohr
 

     total cpu time spent up to now is       39.3 secs

     total energy              =   -7519.49608627 Ry
     estimated scf accuracy    <     801.24976327 Ry

     total magnetization       =   219.00 Bohr mag/cell
     absolute magnetization    =   307.31 Bohr mag/cell

     iteration #  2     ecut=    50.00 Ry     beta= 0.10
     Davidson diagonalization with overlap
     ethr =  1.00E-02,  avg # of iterations =  2.0

     negative rho (up, down):  3.645E-01 2.219E-06
 
     Adding external electric field

     Computed dipole along edir(3) : 
        Dipole               -2.4612 Ry au,         -6.2559 Debye
        Dipole field         -0.0015 Ry au, 
 
        Potential amp.        0.1662 Ry
        Total length         55.1515 bohr
 
 
     Adding external electric field

     Computed dipole along edir(3) : 
        Dipole               -2.4612 Ry au,         -6.2559 Debye
        Dipole field         -0.0015 Ry au, 
 
        Potential amp.        0.1662 Ry
        Total length         55.1515 bohr
 

     total cpu time spent up to now is       55.6 secs

     total energy              =   -7601.58081532 Ry
     estimated scf accuracy    <     195.35469604 Ry

     total magnetization       =   156.57 Bohr mag/cell
     absolute magnetization    =   205.51 Bohr mag/cell

     iteration #  3     ecut=    50.00 Ry     beta= 0.10
     Davidson diagonalization with overlap
     ethr =  1.00E-02,  avg # of iterations =  1.5

     negative rho (up, down):  3.230E-01 2.095E-06
 
     Adding external electric field

     Computed dipole along edir(3) : 
        Dipole               -2.0866 Ry au,         -5.3035 Debye
        Dipole field         -0.0013 Ry au, 
 
        Potential amp.        0.1409 Ry
        Total length         55.1515 bohr
 
 
     Adding external electric field

     Computed dipole along edir(3) : 
        Dipole               -2.0866 Ry au,         -5.3035 Debye
        Dipole field         -0.0013 Ry au, 
 
        Potential amp.        0.1409 Ry
        Total length         55.1515 bohr
 

     total cpu time spent up to now is       68.2 secs

     total energy              =   -7632.36721507 Ry
     estimated scf accuracy    <     102.96351236 Ry

     total magnetization       =   133.22 Bohr mag/cell
     absolute magnetization    =   184.03 Bohr mag/cell

     iteration #  4     ecut=    50.00 Ry     beta= 0.10
     Davidson diagonalization with overlap
     ethr =  9.42E-03,  avg # of iterations =  1.5

     negative rho (up, down):  2.496E-01 5.991E-07
 
     Adding external electric field

     Computed dipole along edir(3) : 
        Dipole               -1.9104 Ry au,         -4.8557 Debye
        Dipole field         -0.0012 Ry au, 
 
        Potential amp.        0.1290 Ry
        Total length         55.1515 bohr
 
 
     Adding external electric field

     Computed dipole along edir(3) : 
        Dipole               -1.9104 Ry au,         -4.8557 Debye
        Dipole field         -0.0012 Ry au, 
 
        Potential amp.        0.1290 Ry
        Total length         55.1515 bohr
 

     total cpu time spent up to now is       81.2 secs

     total energy              =   -7665.85296697 Ry
     estimated scf accuracy    <      81.53130977 Ry

     total magnetization       =   117.72 Bohr mag/cell
     absolute magnetization    =   169.70 Bohr mag/cell

     iteration #  5     ecut=    50.00 Ry     beta= 0.10
     Davidson diagonalization with overlap
     ethr =  7.46E-03,  avg # of iterations =  1.0

     negative rho (up, down):  1.979E-02 1.574E-07
 
     Adding external electric field

     Computed dipole along edir(3) : 
        Dipole               -1.3739 Ry au,         -3.4920 Debye
        Dipole field         -0.0008 Ry au, 
 
        Potential amp.        0.0928 Ry
        Total length         55.1515 bohr
 
 
     Adding external electric field

     Computed dipole along edir(3) : 
        Dipole               -1.3739 Ry au,         -3.4920 Debye
        Dipole field         -0.0008 Ry au, 
 
        Potential amp.        0.0928 Ry
        Total length         55.1515 bohr
 

     total cpu time spent up to now is       93.1 secs

     total energy              =   -7725.83291547 Ry
     estimated scf accuracy    <      64.00719082 Ry

     total magnetization       =    97.04 Bohr mag/cell
     absolute magnetization    =   151.12 Bohr mag/cell

     iteration #  6     ecut=    50.00 Ry     beta= 0.10
     Davidson diagonalization with overlap
     ethr =  5.86E-03,  avg # of iterations =  1.0

     negative rho (up, down):  3.346E-04 6.882E-04
 
     Adding external electric field

     Computed dipole along edir(3) : 
        Dipole               -1.0102 Ry au,         -2.5678 Debye
        Dipole field         -0.0006 Ry au, 
 
        Potential amp.        0.0682 Ry
        Total length         55.1515 bohr
 
 
     Adding external electric field

     Computed dipole along edir(3) : 
        Dipole               -1.0102 Ry au,         -2.5678 Debye
        Dipole field         -0.0006 Ry au, 
 
        Potential amp.        0.0682 Ry
        Total length         55.1515 bohr
 

     total cpu time spent up to now is      104.7 secs

     total energy              =   -7736.26016742 Ry
     estimated scf accuracy    <      11.27118277 Ry

     total magnetization       =    91.00 Bohr mag/cell
     absolute magnetization    =   122.27 Bohr mag/cell

     iteration #  7     ecut=    50.00 Ry     beta= 0.10
     Davidson diagonalization with overlap
     ethr =  1.03E-03,  avg # of iterations =  6.0

     negative rho (up, down):  3.271E-04 6.881E-04
 
     Adding external electric field

     Computed dipole along edir(3) : 
        Dipole               -1.0168 Ry au,         -2.5844 Debye
        Dipole field         -0.0006 Ry au, 
 
        Potential amp.        0.0686 Ry
        Total length         55.1515 bohr
 
 
     Adding external electric field

     Computed dipole along edir(3) : 
        Dipole               -1.0168 Ry au,         -2.5844 Debye
        Dipole field         -0.0006 Ry au, 
 
        Potential amp.        0.0686 Ry
        Total length         55.1515 bohr
 

     total cpu time spent up to now is      126.7 secs

     total energy              =   -7738.35025148 Ry
     estimated scf accuracy    <      21.09848086 Ry

     total magnetization       =    70.03 Bohr mag/cell
     absolute magnetization    =    87.00 Bohr mag/cell

     iteration #  8     ecut=    50.00 Ry     beta= 0.10
     Davidson diagonalization with overlap
     ethr =  1.03E-03,  avg # of iterations =  1.0

     negative rho (up, down):  3.194E-04 6.655E-04
 
     Adding external electric field

     Computed dipole along edir(3) : 
        Dipole               -1.0165 Ry au,         -2.5836 Debye
        Dipole field         -0.0006 Ry au, 
 
        Potential amp.        0.0686 Ry
        Total length         55.1515 bohr
 
 
     Adding external electric field

     Computed dipole along edir(3) : 
        Dipole               -1.0165 Ry au,         -2.5836 Debye
        Dipole field         -0.0006 Ry au, 
 
        Potential amp.        0.0686 Ry
        Total length         55.1515 bohr
 

     total cpu time spent up to now is      138.4 secs

     total energy              =   -7738.36825447 Ry
     estimated scf accuracy    <      20.27738338 Ry

     total magnetization       =    70.35 Bohr mag/cell
     absolute magnetization    =    86.84 Bohr mag/cell

     iteration #  9     ecut=    50.00 Ry     beta= 0.10
     Davidson diagonalization with overlap
     ethr =  1.03E-03,  avg # of iterations =  1.0

     negative rho (up, down):  2.585E-04 6.139E-04
 
     Adding external electric field

     Computed dipole along edir(3) : 
        Dipole               -1.0019 Ry au,         -2.5466 Debye
        Dipole field         -0.0006 Ry au, 
 
        Potential amp.        0.0676 Ry
        Total length         55.1515 bohr
 
 
     Adding external electric field

     Computed dipole along edir(3) : 
        Dipole               -1.0019 Ry au,         -2.5466 Debye
        Dipole field         -0.0006 Ry au, 
 
        Potential amp.        0.0676 Ry
        Total length         55.1515 bohr
 

     total cpu time spent up to now is      150.3 secs

     total energy              =   -7738.20642190 Ry
     estimated scf accuracy    <      19.57388528 Ry

     total magnetization       =    70.64 Bohr mag/cell
     absolute magnetization    =    86.78 Bohr mag/cell

     iteration # 10     ecut=    50.00 Ry     beta= 0.10
     Davidson diagonalization with overlap
     ethr =  1.03E-03,  avg # of iterations =  1.0

     negative rho (up, down):  4.860E-04 1.042E-03
 
     Adding external electric field

     Computed dipole along edir(3) : 
        Dipole               -0.9970 Ry au,         -2.5341 Debye
        Dipole field         -0.0006 Ry au, 
 
        Potential amp.        0.0673 Ry
        Total length         55.1515 bohr
 
 
     Adding external electric field

     Computed dipole along edir(3) : 
        Dipole               -0.9970 Ry au,         -2.5341 Debye
        Dipole field         -0.0006 Ry au, 
 
        Potential amp.        0.0673 Ry
        Total length         55.1515 bohr
 

     total cpu time spent up to now is      162.2 secs

     total energy              =   -7737.72730444 Ry
     estimated scf accuracy    <      15.49459046 Ry

     total magnetization       =    71.76 Bohr mag/cell
     absolute magnetization    =    86.26 Bohr mag/cell

     iteration # 11     ecut=    50.00 Ry     beta= 0.10
     Davidson diagonalization with overlap
     ethr =  1.03E-03,  avg # of iterations =  2.0

     negative rho (up, down):  2.349E-04 7.070E-04
 
     Adding external electric field

     Computed dipole along edir(3) : 
        Dipole               -1.0097 Ry au,         -2.5665 Debye
        Dipole field         -0.0006 Ry au, 
 
        Potential amp.        0.0682 Ry
        Total length         55.1515 bohr
 
 
     Adding external electric field

     Computed dipole along edir(3) : 
        Dipole               -1.0097 Ry au,         -2.5665 Debye
        Dipole field         -0.0006 Ry au, 
 
        Potential amp.        0.0682 Ry
        Total length         55.1515 bohr
 

     total cpu time spent up to now is      174.7 secs

     total energy              =   -7738.10765964 Ry
     estimated scf accuracy    <       7.08044177 Ry

     total magnetization       =    82.98 Bohr mag/cell
     absolute magnetization    =    92.58 Bohr mag/cell

     iteration # 12     ecut=    50.00 Ry     beta= 0.10
     Davidson diagonalization with overlap
     ethr =  6.48E-04,  avg # of iterations =  1.5

     negative rho (up, down):  3.059E-04 9.372E-04
 
     Adding external electric field

     Computed dipole along edir(3) : 
        Dipole               -0.9608 Ry au,         -2.4422 Debye
        Dipole field         -0.0006 Ry au, 
 
        Potential amp.        0.0649 Ry
        Total length         55.1515 bohr
 
 
     Adding external electric field

     Computed dipole along edir(3) : 
        Dipole               -0.9608 Ry au,         -2.4422 Debye
        Dipole field         -0.0006 Ry au, 
 
        Potential amp.        0.0649 Ry
        Total length         55.1515 bohr
 

     total cpu time spent up to now is      186.7 secs

     total energy              =   -7738.12267669 Ry
     estimated scf accuracy    <       6.64452131 Ry

     total magnetization       =    82.84 Bohr mag/cell
     absolute magnetization    =    92.37 Bohr mag/cell

     iteration # 13     ecut=    50.00 Ry     beta= 0.10
     Davidson diagonalization with overlap
     ethr =  6.08E-04,  avg # of iterations =  1.0

     negative rho (up, down):  1.368E-04 7.698E-04
 
     Adding external electric field

     Computed dipole along edir(3) : 
        Dipole               -1.0187 Ry au,         -2.5894 Debye
        Dipole field         -0.0006 Ry au, 
 
        Potential amp.        0.0688 Ry
        Total length         55.1515 bohr
 
 
     Adding external electric field

     Computed dipole along edir(3) : 
        Dipole               -1.0187 Ry au,         -2.5894 Debye
        Dipole field         -0.0006 Ry au, 
 
        Potential amp.        0.0688 Ry
        Total length         55.1515 bohr
 

     total cpu time spent up to now is      198.0 secs

     total energy              =   -7738.08858820 Ry
     estimated scf accuracy    <       7.58921226 Ry

     total magnetization       =    81.66 Bohr mag/cell
     absolute magnetization    =    91.56 Bohr mag/cell

     iteration # 14     ecut=    50.00 Ry     beta= 0.10
     Davidson diagonalization with overlap
     ethr =  6.08E-04,  avg # of iterations =  1.5

     negative rho (up, down):  5.204E-03 6.447E-03
 
     Adding external electric field

     Computed dipole along edir(3) : 
        Dipole               -1.2702 Ry au,         -3.2285 Debye
        Dipole field         -0.0008 Ry au, 
 
        Potential amp.        0.0858 Ry
        Total length         55.1515 bohr
 
 
     Adding external electric field

     Computed dipole along edir(3) : 
        Dipole               -1.2702 Ry au,         -3.2285 Debye
        Dipole field         -0.0008 Ry au, 
 
        Potential amp.        0.0858 Ry
        Total length         55.1515 bohr
 

     total cpu time spent up to now is      209.8 secs

     total energy              =   -7737.99498465 Ry
     estimated scf accuracy    <       6.08670817 Ry

     total magnetization       =    82.88 Bohr mag/cell
     absolute magnetization    =    91.45 Bohr mag/cell

     iteration # 15     ecut=    50.00 Ry     beta= 0.10
     Davidson diagonalization with overlap
     ethr =  5.57E-04,  avg # of iterations =  2.0

     negative rho (up, down):  1.953E-03 3.147E-03
 
     Adding external electric field

     Computed dipole along edir(3) : 
        Dipole               -1.2138 Ry au,         -3.0852 Debye
        Dipole field         -0.0007 Ry au, 
 
        Potential amp.        0.0820 Ry
        Total length         55.1515 bohr
 
 
     Adding external electric field

     Computed dipole along edir(3) : 
        Dipole               -1.2138 Ry au,         -3.0852 Debye
        Dipole field         -0.0007 Ry au, 
 
        Potential amp.        0.0820 Ry
        Total length         55.1515 bohr
 

     total cpu time spent up to now is      222.7 secs

     total energy              =   -7738.20089423 Ry
     estimated scf accuracy    <       1.96016143 Ry

     total magnetization       =    90.38 Bohr mag/cell
     absolute magnetization    =    95.78 Bohr mag/cell

     iteration # 16     ecut=    50.00 Ry     beta= 0.10
     Davidson diagonalization with overlap
     ethr =  1.79E-04,  avg # of iterations =  2.5

     negative rho (up, down):  7.427E-04 1.340E-03
 
     Adding external electric field

     Computed dipole along edir(3) : 
        Dipole               -1.1799 Ry au,         -2.9989 Debye
        Dipole field         -0.0007 Ry au, 
 
        Potential amp.        0.0797 Ry
        Total length         55.1515 bohr
 
 
     Adding external electric field

     Computed dipole along edir(3) : 
        Dipole               -1.1799 Ry au,         -2.9989 Debye
        Dipole field         -0.0007 Ry au, 
 
        Potential amp.        0.0797 Ry
        Total length         55.1515 bohr
 

     total cpu time spent up to now is      234.9 secs

     total energy              =   -7738.23126644 Ry
     estimated scf accuracy    <       1.41102954 Ry

     total magnetization       =    90.03 Bohr mag/cell
     absolute magnetization    =    95.37 Bohr mag/cell

     iteration # 17     ecut=    50.00 Ry     beta= 0.10
     Davidson diagonalization with overlap
     ethr =  1.29E-04,  avg # of iterations =  1.5

     negative rho (up, down):  5.451E-05 4.069E-04
 
     Adding external electric field

     Computed dipole along edir(3) : 
        Dipole               -0.9871 Ry au,         -2.5090 Debye
        Dipole field         -0.0006 Ry au, 
 
        Potential amp.        0.0666 Ry
        Total length         55.1515 bohr
 
 
     Adding external electric field

     Computed dipole along edir(3) : 
        Dipole               -0.9871 Ry au,         -2.5090 Debye
        Dipole field         -0.0006 Ry au, 
 
        Potential amp.        0.0666 Ry
        Total length         55.1515 bohr
 

     total cpu time spent up to now is      246.7 secs

     total energy              =   -7738.20752670 Ry
     estimated scf accuracy    <       1.26702747 Ry

     total magnetization       =    90.15 Bohr mag/cell
     absolute magnetization    =    95.43 Bohr mag/cell

     iteration # 18     ecut=    50.00 Ry     beta= 0.10
     Davidson diagonalization with overlap
     ethr =  1.16E-04,  avg # of iterations = 12.0

     negative rho (up, down):  9.932E-04 9.267E-04
 
     Adding external electric field

     Computed dipole along edir(3) : 
        Dipole               -1.1138 Ry au,         -2.8310 Debye
        Dipole field         -0.0007 Ry au, 
 
        Potential amp.        0.0752 Ry
        Total length         55.1515 bohr
 
 
     Adding external electric field

     Computed dipole along edir(3) : 
        Dipole               -1.1138 Ry au,         -2.8310 Debye
        Dipole field         -0.0007 Ry au, 
 
        Potential amp.        0.0752 Ry
        Total length         55.1515 bohr
 

     total cpu time spent up to now is      268.9 secs

     total energy              =   -7738.24453480 Ry
     estimated scf accuracy    <       5.41850881 Ry

     total magnetization       =    83.57 Bohr mag/cell
     absolute magnetization    =    88.82 Bohr mag/cell

     iteration # 19     ecut=    50.00 Ry     beta= 0.10
     Davidson diagonalization with overlap
     ethr =  1.16E-04,  avg # of iterations =  1.5

     negative rho (up, down):  3.029E-04 1.266E-05
 
     Adding external electric field

     Computed dipole along edir(3) : 
        Dipole               -0.9264 Ry au,         -2.3546 Debye
        Dipole field         -0.0006 Ry au, 
 
        Potential amp.        0.0625 Ry
        Total length         55.1515 bohr
 
 
     Adding external electric field

     Computed dipole along edir(3) : 
        Dipole               -0.9264 Ry au,         -2.3546 Debye
        Dipole field         -0.0006 Ry au, 
 
        Potential amp.        0.0625 Ry
        Total length         55.1515 bohr
 

     total cpu time spent up to now is      281.5 secs

     total energy              =   -7738.26168239 Ry
     estimated scf accuracy    <       0.65534804 Ry

     total magnetization       =    89.80 Bohr mag/cell
     absolute magnetization    =    93.30 Bohr mag/cell

     iteration # 20     ecut=    50.00 Ry     beta= 0.10
     Davidson diagonalization with overlap
     ethr =  6.00E-05,  avg # of iterations =  2.5

     negative rho (up, down):  2.116E-04 3.517E-05
 
     Adding external electric field

     Computed dipole along edir(3) : 
        Dipole               -0.9780 Ry au,         -2.4858 Debye
        Dipole field         -0.0006 Ry au, 
 
        Potential amp.        0.0660 Ry
        Total length         55.1515 bohr
 
 
     Adding external electric field

     Computed dipole along edir(3) : 
        Dipole               -0.9780 Ry au,         -2.4858 Debye
        Dipole field         -0.0006 Ry au, 
 
        Potential amp.        0.0660 Ry
        Total length         55.1515 bohr
 

     total cpu time spent up to now is      294.5 secs

     total energy              =   -7738.29692017 Ry
     estimated scf accuracy    <       6.50524278 Ry

     total magnetization       =    83.34 Bohr mag/cell
     absolute magnetization    =    86.60 Bohr mag/cell

     iteration # 21     ecut=    50.00 Ry     beta= 0.10
     Davidson diagonalization with overlap
     ethr =  6.00E-05,  avg # of iterations =  1.5

     negative rho (up, down):  3.405E-03 1.988E-03
 
     Adding external electric field

     Computed dipole along edir(3) : 
        Dipole               -1.0542 Ry au,         -2.6796 Debye
        Dipole field         -0.0006 Ry au, 
 
        Potential amp.        0.0712 Ry
        Total length         55.1515 bohr
 
 
     Adding external electric field

     Computed dipole along edir(3) : 
        Dipole               -1.0542 Ry au,         -2.6796 Debye
        Dipole field         -0.0006 Ry au, 
 
        Potential amp.        0.0712 Ry
        Total length         55.1515 bohr
 

     total cpu time spent up to now is      306.3 secs

     total energy              =   -7738.23094903 Ry
     estimated scf accuracy    <       2.68783341 Ry

     total magnetization       =    85.62 Bohr mag/cell
     absolute magnetization    =    88.52 Bohr mag/cell

     iteration # 22     ecut=    50.00 Ry     beta= 0.10
     Davidson diagonalization with overlap
     ethr =  6.00E-05,  avg # of iterations =  2.0

     negative rho (up, down):  9.229E-06 4.075E-07
 
     Adding external electric field

     Computed dipole along edir(3) : 
        Dipole               -0.9595 Ry au,         -2.4387 Debye
        Dipole field         -0.0006 Ry au, 
 
        Potential amp.        0.0648 Ry
        Total length         55.1515 bohr
 
 
     Adding external electric field

     Computed dipole along edir(3) : 
        Dipole               -0.9595 Ry au,         -2.4387 Debye
        Dipole field         -0.0006 Ry au, 
 
        Potential amp.        0.0648 Ry
        Total length         55.1515 bohr
 

     total cpu time spent up to now is      318.7 secs

     total energy              =   -7738.24470695 Ry
     estimated scf accuracy    <       0.44482087 Ry

     total magnetization       =    88.63 Bohr mag/cell
     absolute magnetization    =    91.33 Bohr mag/cell

     iteration # 23     ecut=    50.00 Ry     beta= 0.10
     Davidson diagonalization with overlap
     ethr =  4.07E-05,  avg # of iterations =  2.0

     negative rho (up, down):  1.023E-04 3.524E-06
 
     Adding external electric field

     Computed dipole along edir(3) : 
        Dipole               -0.9083 Ry au,         -2.3087 Debye
        Dipole field         -0.0006 Ry au, 
 
        Potential amp.        0.0613 Ry
        Total length         55.1515 bohr
 
 
     Adding external electric field

     Computed dipole along edir(3) : 
        Dipole               -0.9083 Ry au,         -2.3087 Debye
        Dipole field         -0.0006 Ry au, 
 
        Potential amp.        0.0613 Ry
        Total length         55.1515 bohr
 

     total cpu time spent up to now is      331.0 secs

     total energy              =   -7738.35720566 Ry
     estimated scf accuracy    <       3.54041483 Ry

     total magnetization       =    85.01 Bohr mag/cell
     absolute magnetization    =    88.23 Bohr mag/cell

     iteration # 24     ecut=    50.00 Ry     beta= 0.10
     Davidson diagonalization with overlap
     ethr =  4.07E-05,  avg # of iterations =  1.5

     negative rho (up, down):  4.134E-04 3.226E-05
 
     Adding external electric field

     Computed dipole along edir(3) : 
        Dipole               -0.9677 Ry au,         -2.4596 Debye
        Dipole field         -0.0006 Ry au, 
 
        Potential amp.        0.0653 Ry
        Total length         55.1515 bohr
 
 
     Adding external electric field

     Computed dipole along edir(3) : 
        Dipole               -0.9677 Ry au,         -2.4596 Debye
        Dipole field         -0.0006 Ry au, 
 
        Potential amp.        0.0653 Ry
        Total length         55.1515 bohr
 

     total cpu time spent up to now is      343.0 secs

     total energy              =   -7738.25702656 Ry
     estimated scf accuracy    <       6.37163821 Ry

     total magnetization       =    83.30 Bohr mag/cell
     absolute magnetization    =    86.44 Bohr mag/cell

     iteration # 25     ecut=    50.00 Ry     beta= 0.10
     Davidson diagonalization with overlap
     ethr =  4.07E-05,  avg # of iterations =  2.0

     negative rho (up, down):  2.769E-03 1.646E-03
 
     Adding external electric field

     Computed dipole along edir(3) : 
        Dipole               -0.9774 Ry au,         -2.4843 Debye
        Dipole field         -0.0006 Ry au, 
 
        Potential amp.        0.0660 Ry
        Total length         55.1515 bohr
 
 
     Adding external electric field

     Computed dipole along edir(3) : 
        Dipole               -0.9774 Ry au,         -2.4843 Debye
        Dipole field         -0.0006 Ry au, 
 
        Potential amp.        0.0660 Ry
        Total length         55.1515 bohr
 

     total cpu time spent up to now is      355.1 secs

     total energy              =   -7738.28103452 Ry
     estimated scf accuracy    <       1.91325728 Ry

     total magnetization       =    86.67 Bohr mag/cell
     absolute magnetization    =    89.25 Bohr mag/cell

     iteration # 26     ecut=    50.00 Ry     beta= 0.10
     Davidson diagonalization with overlap
     ethr =  4.07E-05,  avg # of iterations =  2.0

     negative rho (up, down):  3.474E-03 2.228E-03
 
     Adding external electric field

     Computed dipole along edir(3) : 
        Dipole               -0.9231 Ry au,         -2.3462 Debye
        Dipole field         -0.0006 Ry au, 
 
        Potential amp.        0.0623 Ry
        Total length         55.1515 bohr
 
 
     Adding external electric field

     Computed dipole along edir(3) : 
        Dipole               -0.9231 Ry au,         -2.3462 Debye
        Dipole field         -0.0006 Ry au, 
 
        Potential amp.        0.0623 Ry
        Total length         55.1515 bohr
 

     total cpu time spent up to now is      367.9 secs

     total energy              =   -7738.28743544 Ry
     estimated scf accuracy    <       0.52137763 Ry

     total magnetization       =    88.78 Bohr mag/cell
     absolute magnetization    =    90.72 Bohr mag/cell

     iteration # 27     ecut=    50.00 Ry     beta= 0.10
     Davidson diagonalization with overlap
     ethr =  4.07E-05,  avg # of iterations =  2.0

     negative rho (up, down):  3.825E-03 3.019E-03
 
     Adding external electric field

     Computed dipole along edir(3) : 
        Dipole               -0.8958 Ry au,         -2.2769 Debye
        Dipole field         -0.0005 Ry au, 
 
        Potential amp.        0.0605 Ry
        Total length         55.1515 bohr
 
 
     Adding external electric field

     Computed dipole along edir(3) : 
        Dipole               -0.8958 Ry au,         -2.2769 Debye
        Dipole field         -0.0005 Ry au, 
 
        Potential amp.        0.0605 Ry
        Total length         55.1515 bohr
 

     total cpu time spent up to now is      379.9 secs

     total energy              =   -7738.31088908 Ry
     estimated scf accuracy    <       0.58097971 Ry

     total magnetization       =    88.04 Bohr mag/cell
     absolute magnetization    =    90.13 Bohr mag/cell

     iteration # 28     ecut=    50.00 Ry     beta= 0.10
     Davidson diagonalization with overlap
     ethr =  4.07E-05,  avg # of iterations =  2.0

     negative rho (up, down):  4.204E-03 2.840E-03
 
     Adding external electric field

     Computed dipole along edir(3) : 
        Dipole               -0.9370 Ry au,         -2.3817 Debye
        Dipole field         -0.0006 Ry au, 
 
        Potential amp.        0.0633 Ry
        Total length         55.1515 bohr
 
 
     Adding external electric field

     Computed dipole along edir(3) : 
        Dipole               -0.9370 Ry au,         -2.3817 Debye
        Dipole field         -0.0006 Ry au, 
 
        Potential amp.        0.0633 Ry
        Total length         55.1515 bohr
 

     total cpu time spent up to now is      392.7 secs

     total energy              =   -7738.30066599 Ry
     estimated scf accuracy    <       0.67758439 Ry

     total magnetization       =    88.72 Bohr mag/cell
     absolute magnetization    =    90.71 Bohr mag/cell

     iteration # 29     ecut=    50.00 Ry     beta= 0.10
     Davidson diagonalization with overlap
     ethr =  4.07E-05,  avg # of iterations =  1.5

     negative rho (up, down):  3.750E-03 2.266E-03
 
     Adding external electric field

     Computed dipole along edir(3) : 
        Dipole               -0.9892 Ry au,         -2.5144 Debye
        Dipole field         -0.0006 Ry au, 
 
        Potential amp.        0.0668 Ry
        Total length         55.1515 bohr
 
 
     Adding external electric field

     Computed dipole along edir(3) : 
        Dipole               -0.9892 Ry au,         -2.5144 Debye
        Dipole field         -0.0006 Ry au, 
 
        Potential amp.        0.0668 Ry
        Total length         55.1515 bohr
 

     total cpu time spent up to now is      404.4 secs

     total energy              =   -7738.29350577 Ry
     estimated scf accuracy    <       0.52160789 Ry

     total magnetization       =    88.95 Bohr mag/cell
     absolute magnetization    =    90.68 Bohr mag/cell

     iteration # 30     ecut=    50.00 Ry     beta= 0.10
     Davidson diagonalization with overlap
     ethr =  4.07E-05,  avg # of iterations =  2.0

     negative rho (up, down):  2.600E-03 1.444E-03
 
     Adding external electric field

     Computed dipole along edir(3) : 
        Dipole               -1.0862 Ry au,         -2.7609 Debye
        Dipole field         -0.0007 Ry au, 
 
        Potential amp.        0.0733 Ry
        Total length         55.1515 bohr
 
 
     Adding external electric field

     Computed dipole along edir(3) : 
        Dipole               -1.0862 Ry au,         -2.7609 Debye
        Dipole field         -0.0007 Ry au, 
 
        Potential amp.        0.0733 Ry
        Total length         55.1515 bohr
 

     total cpu time spent up to now is      417.0 secs

     total energy              =   -7738.30607212 Ry
     estimated scf accuracy    <       0.41001558 Ry

     total magnetization       =    89.14 Bohr mag/cell
     absolute magnetization    =    90.87 Bohr mag/cell

     iteration # 31     ecut=    50.00 Ry     beta= 0.10
     Davidson diagonalization with overlap
     ethr =  3.75E-05,  avg # of iterations =  2.0

     negative rho (up, down):  2.488E-03 1.347E-03
 
     Adding external electric field

     Computed dipole along edir(3) : 
        Dipole               -1.1329 Ry au,         -2.8795 Debye
        Dipole field         -0.0007 Ry au, 
 
        Potential amp.        0.0765 Ry
        Total length         55.1515 bohr
 
 
     Adding external electric field

     Computed dipole along edir(3) : 
        Dipole               -1.1329 Ry au,         -2.8795 Debye
        Dipole field         -0.0007 Ry au, 
 
        Potential amp.        0.0765 Ry
        Total length         55.1515 bohr
 

     total cpu time spent up to now is      429.9 secs

     total energy              =   -7738.30491623 Ry
     estimated scf accuracy    <       0.42273961 Ry

     total magnetization       =    89.34 Bohr mag/cell
     absolute magnetization    =    91.29 Bohr mag/cell

     iteration # 32     ecut=    50.00 Ry     beta= 0.10
     Davidson diagonalization with overlap
     ethr =  3.75E-05,  avg # of iterations =  2.0

     negative rho (up, down):  1.897E-03 7.881E-04
 
     Adding external electric field

     Computed dipole along edir(3) : 
        Dipole               -1.1276 Ry au,         -2.8661 Debye
        Dipole field         -0.0007 Ry au, 
 
        Potential amp.        0.0761 Ry
        Total length         55.1515 bohr
 
 
     Adding external electric field

     Computed dipole along edir(3) : 
        Dipole               -1.1276 Ry au,         -2.8661 Debye
        Dipole field         -0.0007 Ry au, 
 
        Potential amp.        0.0761 Ry
        Total length         55.1515 bohr
 

     total cpu time spent up to now is      442.4 secs

     total energy              =   -7738.30549901 Ry
     estimated scf accuracy    <       0.44782994 Ry

     total magnetization       =    89.14 Bohr mag/cell
     absolute magnetization    =    91.28 Bohr mag/cell

     iteration # 33     ecut=    50.00 Ry     beta= 0.10
     Davidson diagonalization with overlap
     ethr =  3.75E-05,  avg # of iterations =  1.5

     negative rho (up, down):  3.088E-03 1.644E-03
 
     Adding external electric field

     Computed dipole along edir(3) : 
        Dipole               -1.0275 Ry au,         -2.6117 Debye
        Dipole field         -0.0006 Ry au, 
 
        Potential amp.        0.0694 Ry
        Total length         55.1515 bohr
 
 
     Adding external electric field

     Computed dipole along edir(3) : 
        Dipole               -1.0275 Ry au,         -2.6117 Debye
        Dipole field         -0.0006 Ry au, 
 
        Potential amp.        0.0694 Ry
        Total length         55.1515 bohr
 

     total cpu time spent up to now is      453.8 secs

     total energy              =   -7738.27129611 Ry
     estimated scf accuracy    <       0.47468859 Ry

     total magnetization       =    89.14 Bohr mag/cell
     absolute magnetization    =    91.27 Bohr mag/cell

     iteration # 34     ecut=    50.00 Ry     beta= 0.10
     Davidson diagonalization with overlap
     ethr =  3.75E-05,  avg # of iterations =  2.0

     negative rho (up, down):  3.241E-03 2.570E-03
 
     Adding external electric field

     Computed dipole along edir(3) : 
        Dipole               -1.0427 Ry au,         -2.6502 Debye
        Dipole field         -0.0006 Ry au, 
 
        Potential amp.        0.0704 Ry
        Total length         55.1515 bohr
 
 
     Adding external electric field

     Computed dipole along edir(3) : 
        Dipole               -1.0427 Ry au,         -2.6502 Debye
        Dipole field         -0.0006 Ry au, 
 
        Potential amp.        0.0704 Ry
        Total length         55.1515 bohr
 

     total cpu time spent up to now is      465.9 secs

     total energy              =   -7738.32811450 Ry
     estimated scf accuracy    <       0.33629723 Ry

     total magnetization       =    89.51 Bohr mag/cell
     absolute magnetization    =    91.75 Bohr mag/cell

     iteration # 35     ecut=    50.00 Ry     beta= 0.10
     Davidson diagonalization with overlap
     ethr =  3.08E-05,  avg # of iterations =  1.5

     negative rho (up, down):  1.591E-03 1.055E-03
 
     Adding external electric field

     Computed dipole along edir(3) : 
        Dipole               -1.1673 Ry au,         -2.9670 Debye
        Dipole field         -0.0007 Ry au, 
 
        Potential amp.        0.0788 Ry
        Total length         55.1515 bohr
 
 
     Adding external electric field

     Computed dipole along edir(3) : 
        Dipole               -1.1673 Ry au,         -2.9670 Debye
        Dipole field         -0.0007 Ry au, 
 
        Potential amp.        0.0788 Ry
        Total length         55.1515 bohr
 

     total cpu time spent up to now is      477.2 secs

     total energy              =   -7738.31599001 Ry
     estimated scf accuracy    <       0.39652179 Ry

     total magnetization       =    89.49 Bohr mag/cell
     absolute magnetization    =    91.31 Bohr mag/cell

     iteration # 36     ecut=    50.00 Ry     beta= 0.10
     Davidson diagonalization with overlap
     ethr =  3.08E-05,  avg # of iterations =  1.5

     negative rho (up, down):  2.395E-03 1.469E-03
 
     Adding external electric field

     Computed dipole along edir(3) : 
        Dipole               -1.0836 Ry au,         -2.7542 Debye
        Dipole field         -0.0007 Ry au, 
 
        Potential amp.        0.0732 Ry
        Total length         55.1515 bohr
 
 
     Adding external electric field

     Computed dipole along edir(3) : 
        Dipole               -1.0836 Ry au,         -2.7542 Debye
        Dipole field         -0.0007 Ry au, 
 
        Potential amp.        0.0732 Ry
        Total length         55.1515 bohr
 

     total cpu time spent up to now is      488.7 secs

     total energy              =   -7738.26251991 Ry
     estimated scf accuracy    <       0.40954797 Ry

     total magnetization       =    89.23 Bohr mag/cell
     absolute magnetization    =    91.48 Bohr mag/cell

     iteration # 37     ecut=    50.00 Ry     beta= 0.10
     Davidson diagonalization with overlap
     ethr =  3.08E-05,  avg # of iterations =  2.0

     negative rho (up, down):  2.677E-03 2.256E-03
 
     Adding external electric field

     Computed dipole along edir(3) : 
        Dipole               -0.9620 Ry au,         -2.4451 Debye
        Dipole field         -0.0006 Ry au, 
 
        Potential amp.        0.0650 Ry
        Total length         55.1515 bohr
 
 
     Adding external electric field

     Computed dipole along edir(3) : 
        Dipole               -0.9620 Ry au,         -2.4451 Debye
        Dipole field         -0.0006 Ry au, 
 
        Potential amp.        0.0650 Ry
        Total length         55.1515 bohr
 

     total cpu time spent up to now is      500.9 secs

     total energy              =   -7738.30252579 Ry
     estimated scf accuracy    <       0.31280748 Ry

     total magnetization       =    88.98 Bohr mag/cell
     absolute magnetization    =    91.82 Bohr mag/cell

     iteration # 38     ecut=    50.00 Ry     beta= 0.10
     Davidson diagonalization with overlap
     ethr =  2.86E-05,  avg # of iterations =  2.0

     negative rho (up, down):  2.980E-03 2.636E-03
 
     Adding external electric field

     Computed dipole along edir(3) : 
        Dipole               -0.8362 Ry au,         -2.1254 Debye
        Dipole field         -0.0005 Ry au, 
 
        Potential amp.        0.0565 Ry
        Total length         55.1515 bohr
 
 
     Adding external electric field

     Computed dipole along edir(3) : 
        Dipole               -0.8362 Ry au,         -2.1254 Debye
        Dipole field         -0.0005 Ry au, 
 
        Potential amp.        0.0565 Ry
        Total length         55.1515 bohr
 

     total cpu time spent up to now is      513.5 secs

     total energy              =   -7738.30396087 Ry
     estimated scf accuracy    <       0.23859239 Ry

     total magnetization       =    88.99 Bohr mag/cell
     absolute magnetization    =    91.49 Bohr mag/cell

     iteration # 39     ecut=    50.00 Ry     beta= 0.10
     Davidson diagonalization with overlap
     ethr =  2.18E-05,  avg # of iterations =  2.0

     negative rho (up, down):  1.815E-03 1.651E-03
 
     Adding external electric field

     Computed dipole along edir(3) : 
        Dipole               -0.8168 Ry au,         -2.0762 Debye
        Dipole field         -0.0005 Ry au, 
 
        Potential amp.        0.0552 Ry
        Total length         55.1515 bohr
 
 
     Adding external electric field

     Computed dipole along edir(3) : 
        Dipole               -0.8168 Ry au,         -2.0762 Debye
        Dipole field         -0.0005 Ry au, 
 
        Potential amp.        0.0552 Ry
        Total length         55.1515 bohr
 

     total cpu time spent up to now is      525.6 secs

     total energy              =   -7738.30174726 Ry
     estimated scf accuracy    <       0.18383154 Ry

     total magnetization       =    88.86 Bohr mag/cell
     absolute magnetization    =    91.43 Bohr mag/cell

     iteration # 40     ecut=    50.00 Ry     beta= 0.10
     Davidson diagonalization with overlap
     ethr =  1.68E-05,  avg # of iterations =  2.0

     negative rho (up, down):  3.585E-03 3.012E-03
 
     Adding external electric field

     Computed dipole along edir(3) : 
        Dipole               -1.0590 Ry au,         -2.6918 Debye
        Dipole field         -0.0006 Ry au, 
 
        Potential amp.        0.0715 Ry
        Total length         55.1515 bohr
 
 
     Adding external electric field

     Computed dipole along edir(3) : 
        Dipole               -1.0590 Ry au,         -2.6918 Debye
        Dipole field         -0.0006 Ry au, 
 
        Potential amp.        0.0715 Ry
        Total length         55.1515 bohr
 

     total cpu time spent up to now is      538.8 secs

     total energy              =   -7738.32089892 Ry
     estimated scf accuracy    <       0.33262588 Ry

     total magnetization       =    89.40 Bohr mag/cell
     absolute magnetization    =    92.04 Bohr mag/cell

     iteration # 41     ecut=    50.00 Ry     beta= 0.10
     Davidson diagonalization with overlap
     ethr =  1.68E-05,  avg # of iterations =  2.0

     negative rho (up, down):  3.199E-03 2.757E-03
 
     Adding external electric field

     Computed dipole along edir(3) : 
        Dipole               -1.1001 Ry au,         -2.7962 Debye
        Dipole field         -0.0007 Ry au, 
 
        Potential amp.        0.0743 Ry
        Total length         55.1515 bohr
 
 
     Adding external electric field

     Computed dipole along edir(3) : 
        Dipole               -1.1001 Ry au,         -2.7962 Debye
        Dipole field         -0.0007 Ry au, 
 
        Potential amp.        0.0743 Ry
        Total length         55.1515 bohr
 

     total cpu time spent up to now is      550.7 secs

     total energy              =   -7738.32375839 Ry
     estimated scf accuracy    <       0.30898291 Ry

     total magnetization       =    89.49 Bohr mag/cell
     absolute magnetization    =    91.33 Bohr mag/cell

     iteration # 42     ecut=    50.00 Ry     beta= 0.10
     Davidson diagonalization with overlap
     ethr =  1.68E-05,  avg # of iterations =  1.0

     negative rho (up, down):  3.325E-03 2.558E-03
 
     Adding external electric field

     Computed dipole along edir(3) : 
        Dipole               -1.0220 Ry au,         -2.5978 Debye
        Dipole field         -0.0006 Ry au, 
 
        Potential amp.        0.0690 Ry
        Total length         55.1515 bohr
 
 
     Adding external electric field

     Computed dipole along edir(3) : 
        Dipole               -1.0220 Ry au,         -2.5978 Debye
        Dipole field         -0.0006 Ry au, 
 
        Potential amp.        0.0690 Ry
        Total length         55.1515 bohr
 

     total cpu time spent up to now is      561.3 secs

     total energy              =   -7738.32657179 Ry
     estimated scf accuracy    <       0.31158075 Ry

     total magnetization       =    89.35 Bohr mag/cell
     absolute magnetization    =    91.33 Bohr mag/cell

     iteration # 43     ecut=    50.00 Ry     beta= 0.10
     Davidson diagonalization with overlap
     ethr =  1.68E-05,  avg # of iterations =  2.0

     negative rho (up, down):  3.180E-03 2.390E-03
 
     Adding external electric field

     Computed dipole along edir(3) : 
        Dipole               -0.9985 Ry au,         -2.5379 Debye
        Dipole field         -0.0006 Ry au, 
 
        Potential amp.        0.0674 Ry
        Total length         55.1515 bohr
 
 
     Adding external electric field

     Computed dipole along edir(3) : 
        Dipole               -0.9985 Ry au,         -2.5379 Debye
        Dipole field         -0.0006 Ry au, 
 
        Potential amp.        0.0674 Ry
        Total length         55.1515 bohr
 

     total cpu time spent up to now is      574.1 secs

     total energy              =   -7738.32875440 Ry
     estimated scf accuracy    <       0.32121487 Ry

     total magnetization       =    89.60 Bohr mag/cell
     absolute magnetization    =    91.02 Bohr mag/cell

     iteration # 44     ecut=    50.00 Ry     beta= 0.10
     Davidson diagonalization with overlap
     ethr =  1.68E-05,  avg # of iterations =  1.0

     negative rho (up, down):  4.664E-03 4.002E-03
 
     Adding external electric field

     Computed dipole along edir(3) : 
        Dipole               -1.1733 Ry au,         -2.9821 Debye
        Dipole field         -0.0007 Ry au, 
 
        Potential amp.        0.0792 Ry
        Total length         55.1515 bohr
 
 
     Adding external electric field

     Computed dipole along edir(3) : 
        Dipole               -1.1733 Ry au,         -2.9821 Debye
        Dipole field         -0.0007 Ry au, 
 
        Potential amp.        0.0792 Ry
        Total length         55.1515 bohr
 

     total cpu time spent up to now is      584.9 secs

     total energy              =   -7738.33791084 Ry
     estimated scf accuracy    <       0.31299533 Ry

     total magnetization       =    89.60 Bohr mag/cell
     absolute magnetization    =    90.99 Bohr mag/cell

     iteration # 45     ecut=    50.00 Ry     beta= 0.10
     Davidson diagonalization with overlap
     ethr =  1.68E-05,  avg # of iterations = 15.0

     negative rho (up, down):  2.814E-03 2.167E-03
 
     Adding external electric field

     Computed dipole along edir(3) : 
        Dipole               -0.9929 Ry au,         -2.5238 Debye
        Dipole field         -0.0006 Ry au, 
 
        Potential amp.        0.0670 Ry
        Total length         55.1515 bohr
 
 
     Adding external electric field

     Computed dipole along edir(3) : 
        Dipole               -0.9929 Ry au,         -2.5238 Debye
        Dipole field         -0.0006 Ry au, 
 
        Potential amp.        0.0670 Ry
        Total length         55.1515 bohr
 

     total cpu time spent up to now is      608.8 secs

     total energy              =   -7738.32753554 Ry
     estimated scf accuracy    <       0.36574695 Ry

     total magnetization       =    89.44 Bohr mag/cell
     absolute magnetization    =    90.86 Bohr mag/cell

     iteration # 46     ecut=    50.00 Ry     beta= 0.10
     Davidson diagonalization with overlap
     ethr =  1.68E-05,  avg # of iterations =  2.0

     negative rho (up, down):  4.941E-03 4.566E-03
 
     Adding external electric field

     Computed dipole along edir(3) : 
        Dipole               -1.1905 Ry au,         -3.0259 Debye
        Dipole field         -0.0007 Ry au, 
 
        Potential amp.        0.0804 Ry
        Total length         55.1515 bohr
 
 
     Adding external electric field

     Computed dipole along edir(3) : 
        Dipole               -1.1905 Ry au,         -3.0259 Debye
        Dipole field         -0.0007 Ry au, 
 
        Potential amp.        0.0804 Ry
        Total length         55.1515 bohr
 

     total cpu time spent up to now is      621.4 secs

     total energy              =   -7738.34028535 Ry
     estimated scf accuracy    <       0.33775445 Ry

     total magnetization       =    89.46 Bohr mag/cell
     absolute magnetization    =    90.78 Bohr mag/cell

     iteration # 47     ecut=    50.00 Ry     beta= 0.10
     Davidson diagonalization with overlap
     ethr =  1.68E-05,  avg # of iterations =  1.5

     negative rho (up, down):  3.661E-03 3.245E-03
 
     Adding external electric field

     Computed dipole along edir(3) : 
        Dipole               -1.0079 Ry au,         -2.5617 Debye
        Dipole field         -0.0006 Ry au, 
 
        Potential amp.        0.0680 Ry
        Total length         55.1515 bohr
 
 
     Adding external electric field

     Computed dipole along edir(3) : 
        Dipole               -1.0079 Ry au,         -2.5617 Debye
        Dipole field         -0.0006 Ry au, 
 
        Potential amp.        0.0680 Ry
        Total length         55.1515 bohr
 

     total cpu time spent up to now is      633.5 secs

     total energy              =   -7738.33120326 Ry
     estimated scf accuracy    <       0.41671898 Ry

     total magnetization       =    89.31 Bohr mag/cell
     absolute magnetization    =    90.61 Bohr mag/cell

     iteration # 48     ecut=    50.00 Ry     beta= 0.10
     Davidson diagonalization with overlap
     ethr =  1.68E-05,  avg # of iterations =  2.0

     negative rho (up, down):  2.316E-03 7.458E-04
 
     Adding external electric field

     Computed dipole along edir(3) : 
        Dipole               -0.5015 Ry au,         -1.2747 Debye
        Dipole field         -0.0003 Ry au, 
 
        Potential amp.        0.0339 Ry
        Total length         55.1515 bohr
 
 
     Adding external electric field

     Computed dipole along edir(3) : 
        Dipole               -0.5015 Ry au,         -1.2747 Debye
        Dipole field         -0.0003 Ry au, 
 
        Potential amp.        0.0339 Ry
        Total length         55.1515 bohr
 

     total cpu time spent up to now is      645.4 secs

     total energy              =   -7738.27021439 Ry
     estimated scf accuracy    <       0.33458311 Ry

     total magnetization       =    89.46 Bohr mag/cell
     absolute magnetization    =    90.90 Bohr mag/cell

     iteration # 49     ecut=    50.00 Ry     beta= 0.10
     Davidson diagonalization with overlap
     ethr =  1.68E-05,  avg # of iterations =  3.0

     negative rho (up, down):  1.418E-03 1.040E-03
 
     Adding external electric field

     Computed dipole along edir(3) : 
        Dipole               -1.0617 Ry au,         -2.6985 Debye
        Dipole field         -0.0006 Ry au, 
 
        Potential amp.        0.0717 Ry
        Total length         55.1515 bohr
 
 
     Adding external electric field

     Computed dipole along edir(3) : 
        Dipole               -1.0617 Ry au,         -2.6985 Debye
        Dipole field         -0.0006 Ry au, 
 
        Potential amp.        0.0717 Ry
        Total length         55.1515 bohr
 

     total cpu time spent up to now is      658.5 secs

     total energy              =   -7738.29254152 Ry
     estimated scf accuracy    <       0.16682773 Ry

     total magnetization       =    88.74 Bohr mag/cell
     absolute magnetization    =    90.25 Bohr mag/cell

     iteration # 50     ecut=    50.00 Ry     beta= 0.10
     Davidson diagonalization with overlap
     ethr =  1.53E-05,  avg # of iterations =  3.5

     negative rho (up, down):  8.421E-04 4.007E-04
 
     Adding external electric field

     Computed dipole along edir(3) : 
        Dipole               -0.7940 Ry au,         -2.0182 Debye
        Dipole field         -0.0005 Ry au, 
 
        Potential amp.        0.0536 Ry
        Total length         55.1515 bohr
 
 
     Adding external electric field

     Computed dipole along edir(3) : 
        Dipole               -0.7940 Ry au,         -2.0182 Debye
        Dipole field         -0.0005 Ry au, 
 
        Potential amp.        0.0536 Ry
        Total length         55.1515 bohr
 

     total cpu time spent up to now is      673.0 secs

     total energy              =   -7738.33238222 Ry
     estimated scf accuracy    <       0.40868275 Ry

     total magnetization       =    89.48 Bohr mag/cell
     absolute magnetization    =    90.63 Bohr mag/cell

     iteration # 51     ecut=    50.00 Ry     beta= 0.10
     Davidson diagonalization with overlap
     ethr =  1.53E-05,  avg # of iterations =  2.0

     negative rho (up, down):  7.396E-04 3.828E-04
 
     Adding external electric field

     Computed dipole along edir(3) : 
        Dipole               -0.8730 Ry au,         -2.2190 Debye
        Dipole field         -0.0005 Ry au, 
 
        Potential amp.        0.0589 Ry
        Total length         55.1515 bohr
 
 
     Adding external electric field

     Computed dipole along edir(3) : 
        Dipole               -0.8730 Ry au,         -2.2190 Debye
        Dipole field         -0.0005 Ry au, 
 
        Potential amp.        0.0589 Ry
        Total length         55.1515 bohr
 

     total cpu time spent up to now is      685.1 secs

     total energy              =   -7738.33921798 Ry
     estimated scf accuracy    <       0.33808433 Ry

     total magnetization       =    89.47 Bohr mag/cell
     absolute magnetization    =    90.65 Bohr mag/cell

     iteration # 52     ecut=    50.00 Ry     beta= 0.10
     Davidson diagonalization with overlap
     ethr =  1.53E-05,  avg # of iterations =  1.0

     negative rho (up, down):  2.059E-03 1.168E-03
 
     Adding external electric field

     Computed dipole along edir(3) : 
        Dipole               -0.6047 Ry au,         -1.5371 Debye
        Dipole field         -0.0004 Ry au, 
 
        Potential amp.        0.0408 Ry
        Total length         55.1515 bohr
 
 
     Adding external electric field

     Computed dipole along edir(3) : 
        Dipole               -0.6047 Ry au,         -1.5371 Debye
        Dipole field         -0.0004 Ry au, 
 
        Potential amp.        0.0408 Ry
        Total length         55.1515 bohr
 

     total cpu time spent up to now is      696.4 secs

     total energy              =   -7738.31992589 Ry
     estimated scf accuracy    <       0.36809685 Ry

     total magnetization       =    89.46 Bohr mag/cell
     absolute magnetization    =    90.64 Bohr mag/cell

     iteration # 53     ecut=    50.00 Ry     beta= 0.10
     Davidson diagonalization with overlap
     ethr =  1.53E-05,  avg # of iterations = 11.0

     negative rho (up, down):  2.159E-03 1.245E-03
 
     Adding external electric field

     Computed dipole along edir(3) : 
        Dipole               -0.6312 Ry au,         -1.6044 Debye
        Dipole field         -0.0004 Ry au, 
 
        Potential amp.        0.0426 Ry
        Total length         55.1515 bohr
 
 
     Adding external electric field

     Computed dipole along edir(3) : 
        Dipole               -0.6312 Ry au,         -1.6044 Debye
        Dipole field         -0.0004 Ry au, 
 
        Potential amp.        0.0426 Ry
        Total length         55.1515 bohr
 

     total cpu time spent up to now is      712.9 secs

     total energy              =   -7738.30941162 Ry
     estimated scf accuracy    <       0.25726355 Ry

     total magnetization       =    89.56 Bohr mag/cell
     absolute magnetization    =    90.55 Bohr mag/cell

     iteration # 54     ecut=    50.00 Ry     beta= 0.10
     Davidson diagonalization with overlap
     ethr =  1.53E-05,  avg # of iterations =  2.0

     negative rho (up, down):  2.710E-03 1.677E-03
 
     Adding external electric field

     Computed dipole along edir(3) : 
        Dipole               -0.6823 Ry au,         -1.7341 Debye
        Dipole field         -0.0004 Ry au, 
 
        Potential amp.        0.0461 Ry
        Total length         55.1515 bohr
 
 
     Adding external electric field

     Computed dipole along edir(3) : 
        Dipole               -0.6823 Ry au,         -1.7341 Debye
        Dipole field         -0.0004 Ry au, 
 
        Potential amp.        0.0461 Ry
        Total length         55.1515 bohr
 

     total cpu time spent up to now is      724.6 secs

     total energy              =   -7738.30429408 Ry
     estimated scf accuracy    <       0.16652275 Ry

     total magnetization       =    89.57 Bohr mag/cell
     absolute magnetization    =    90.47 Bohr mag/cell

     iteration # 55     ecut=    50.00 Ry     beta= 0.10
     Davidson diagonalization with overlap
     ethr =  1.52E-05,  avg # of iterations =  1.0

     negative rho (up, down):  2.782E-03 1.657E-03
 
     Adding external electric field

     Computed dipole along edir(3) : 
        Dipole               -0.8002 Ry au,         -2.0340 Debye
        Dipole field         -0.0005 Ry au, 
 
        Potential amp.        0.0540 Ry
        Total length         55.1515 bohr
 
 
     Adding external electric field

     Computed dipole along edir(3) : 
        Dipole               -0.8002 Ry au,         -2.0340 Debye
        Dipole field         -0.0005 Ry au, 
 
        Potential amp.        0.0540 Ry
        Total length         55.1515 bohr
 

     total cpu time spent up to now is      735.6 secs

     total energy              =   -7738.30200849 Ry
     estimated scf accuracy    <       0.11148644 Ry

     total magnetization       =    89.46 Bohr mag/cell
     absolute magnetization    =    90.36 Bohr mag/cell

     iteration # 56     ecut=    50.00 Ry     beta= 0.10
     Davidson diagonalization with overlap
     ethr =  1.02E-05,  avg # of iterations =  2.0

     negative rho (up, down):  2.409E-03 1.310E-03
 
     Adding external electric field

     Computed dipole along edir(3) : 
        Dipole               -0.7019 Ry au,         -1.7841 Debye
        Dipole field         -0.0004 Ry au, 
 
        Potential amp.        0.0474 Ry
        Total length         55.1515 bohr
 
 
     Adding external electric field

     Computed dipole along edir(3) : 
        Dipole               -0.7019 Ry au,         -1.7841 Debye
        Dipole field         -0.0004 Ry au, 
 
        Potential amp.        0.0474 Ry
        Total length         55.1515 bohr
 

     total cpu time spent up to now is      747.8 secs

     total energy              =   -7738.30082358 Ry
     estimated scf accuracy    <       0.05090852 Ry

     total magnetization       =    89.12 Bohr mag/cell
     absolute magnetization    =    90.15 Bohr mag/cell

     iteration # 57     ecut=    50.00 Ry     beta= 0.10
     Davidson diagonalization with overlap
     c_bands:  2 eigenvalues not converged
     ethr =  4.66E-06,  avg # of iterations = 21.0

     negative rho (up, down):  8.384E-04 6.171E-04
 
     Adding external electric field

     Computed dipole along edir(3) : 
        Dipole               -0.9244 Ry au,         -2.3497 Debye
        Dipole field         -0.0006 Ry au, 
 
        Potential amp.        0.0624 Ry
        Total length         55.1515 bohr
 
 
     Adding external electric field

     Computed dipole along edir(3) : 
        Dipole               -0.9244 Ry au,         -2.3497 Debye
        Dipole field         -0.0006 Ry au, 
 
        Potential amp.        0.0624 Ry
        Total length         55.1515 bohr
 

     total cpu time spent up to now is      775.8 secs

     total energy              =   -7738.30795498 Ry
     estimated scf accuracy    <       0.09961099 Ry

     total magnetization       =    88.30 Bohr mag/cell
     absolute magnetization    =    89.35 Bohr mag/cell

     iteration # 58     ecut=    50.00 Ry     beta= 0.10
     Davidson diagonalization with overlap
     ethr =  4.66E-06,  avg # of iterations =  3.0

     negative rho (up, down):  3.276E-04 2.729E-04
 
     Adding external electric field

     Computed dipole along edir(3) : 
        Dipole               -0.8222 Ry au,         -2.0898 Debye
        Dipole field         -0.0005 Ry au, 
 
        Potential amp.        0.0555 Ry
        Total length         55.1515 bohr
 
 
[...]
    -5.9696  -5.9382  -5.9295  -5.9065  -5.8853  -5.8770  -5.8642  -5.8406
    -5.8256  -5.7789  -5.7501  -5.7402  -5.7274  -5.6935  -5.6683  -5.6524
    -5.6386  -5.6283  -5.5852  -5.5674  -5.5622  -5.5450  -5.5370  -5.5248
    -5.5142  -5.4871  -5.4739  -5.4427  -5.4000  -5.3655  -5.3310  -5.3149
    -5.2797  -5.2603  -5.2341  -5.1635  -5.1457  -5.1414  -5.1256  -5.1031
    -5.0640  -5.0103  -4.9640  -4.9370  -4.8975  -4.8882  -4.8588  -4.8464
    -4.8200  -4.7923  -4.7809  -4.7405  -4.7242  -4.6911  -4.6373  -4.6019
    -4.5421  -4.4742  -4.4412  -4.4218  -4.4017  -4.3907  -4.3649  -4.3516
    -4.3273  -4.2786  -4.2530  -4.2416  -4.2039  -4.1902  -4.1079  -4.1033
    -4.0872  -4.0439  -4.0372  -4.0173  -3.9551  -3.9318  -3.9189  -3.8793
    -3.8567  -3.8202  -3.8109  -3.7935  -3.7740  -3.7419  -3.7047  -3.6932
    -3.6862  -3.6690  -3.6592  -3.5864  -3.5769  -3.5752  -3.5608  -3.5446
    -3.5330  -3.5158  -3.5069  -3.4817  -3.4478  -3.4418  -3.4274  -3.4062
    -3.3842  -3.3735  -3.3693  -3.3537  -3.3374  -3.3058  -3.2855  -3.2566
    -3.2450  -3.2131  -3.1912  -3.1681  -3.1441  -3.1170  -3.1001  -3.0822
    -3.0741  -3.0635  -3.0528  -3.0347  -3.0183  -3.0013  -2.9852  -2.9371
    -2.9254  -2.9135  -2.9017  -2.8901  -2.8685  -2.8458  -2.8122  -2.7896
    -2.7848  -2.7597  -2.7516  -2.7276  -2.7213  -2.7130  -2.7075  -2.6939
    -2.6729  -2.6657  -2.6620  -2.6368  -2.6275  -2.6148  -2.6064  -2.5789
    -2.5728  -2.5727  -2.5384  -2.5260  -2.5061  -2.4827  -2.4705  -2.4584
    -2.4517  -2.4107  -2.4023  -2.3717  -2.3563  -2.3434  -2.3161  -2.2796
    -2.2741  -2.2689  -2.2243  -2.2107  -2.1881  -2.1761  -2.1523  -2.1396
    -2.1079  -2.0867  -2.0713  -2.0667  -2.0507  -2.0379  -2.0272  -2.0213
    -1.9944  -1.9515  -1.9376  -1.9180  -1.9057  -1.8884  -1.8833  -1.8662
    -1.8389  -1.8335  -1.8288  -1.8215  -1.7918  -1.7148  -1.7078  -1.6780
    -1.6706  -1.6519  -1.6332  -1.6271  -1.6154  -1.6063  -1.5893  -1.5807
    -1.5515  -1.5483  -1.5022  -1.4892  -1.4644  -1.4542  -1.4480  -1.4224
    -1.4031  -1.3928  -1.3831  -1.3621  -1.3572  -1.3308  -1.3051  -1.2969
    -1.2323  -1.2241  -1.1707  -1.1478  -1.1318  -1.1306  -1.0944  -1.0571
    -1.0344  -0.9940  -0.9279  -0.8542  -0.7283  -0.7177  -0.6208  -0.5734
    -0.5223  -0.5082  -0.3557  -0.2313   0.1802   0.2158   0.2377   0.2479
     0.2981   0.3090   0.3212   0.3299   0.3472   0.3588   0.3665   0.3697
     0.3771   0.3870   0.3994   0.4006   0.4055   0.4157   0.4202   0.4270
     0.4351   0.4402   0.4634   0.4663   0.4767   0.4836   0.4898   0.4931
     0.4985   0.4988   0.5094   0.5158   0.5231   0.5330   0.5375   0.5394
     0.5418   0.5655   0.5694   0.5738   0.5975   0.6004   0.6168   0.6199
     0.6266   0.6346   0.6437   0.6470   0.6534   0.6633   0.6647   0.6791
     0.6822   0.6856   0.6995   0.7046   0.7143   0.7156   0.7213   0.7339
     0.7434   0.7506   0.7659   0.7667   0.7782   0.7850   0.7945   0.8095
     0.8113   0.8276   0.8495   0.8578   0.8645   0.8679   0.8706   0.8777
     0.8846   0.9050   0.9096   0.9147   0.9214   0.9532   0.9672   0.9819
     0.9870   1.0355   1.0857   1.1126   1.1235   1.6872   1.7364   1.7482
     1.7749   1.8010   1.8116   1.8179   1.8238   1.8421   1.9098   1.9201
     1.9344   1.9711   1.9812   2.0067   2.0421   2.0466   2.0854   2.0918
     2.1377   2.1446   2.1747   2.1918   2.1964   2.2000   2.2111   2.2345
     2.2436   2.2758   2.2858   2.3051   2.3136   2.3254   2.3443   2.3574
     2.3729   2.3814   2.3873   2.4084   2.4176   2.4218   2.4400   2.4901
     2.5275   2.5326   2.5396   2.5488   2.5536   2.5781   2.5962   2.6168
     2.6621   2.6809   2.6983   2.7074   2.7274   2.8027   2.8053   2.8714
     2.8754   2.8901   3.7080   3.7215   3.7252   3.7839   3.7866   3.7984
     3.9067   3.9332   3.9590   3.9599   3.9831   4.0009   4.0118   4.0383
     4.0542   4.0606   4.1462   4.1484   4.1603   4.1817   4.6609   4.7171
     4.7955   4.8571   4.8835   4.9132   4.9378   4.9696   5.0428   5.0980
     5.1181   5.1489   5.4248   6.2430   6.3750   6.6143   6.6585   6.7599
     6.8100   6.8860   6.8915   6.9222   7.0224   7.0825   7.0922   7.1349
     7.2665   7.3480   7.3556   7.4355   7.4817   7.5350   7.5874   7.6323
     7.6396   7.6800   7.7366   7.7607   7.8098   7.8840   7.9014   7.9090
     8.0162   8.0283   8.0653   8.0915   8.1144   8.1785   8.1895   8.2092
     8.2635   8.2853   8.3036   8.3329   8.3795   8.4258   8.4299   8.4496
     8.4667   8.4790   8.4966   8.5260   8.5549   8.5735   8.5997   8.6218
     8.6645   8.6843   8.7230   8.7513   8.7778   8.7825   8.8294   8.8610

     the Fermi energy is     1.6606 ev

!    total energy              =   -7738.31677546 Ry
     estimated scf accuracy    <       0.00000059 Ry
     smearing contrib. (-TS)   =      -0.02220468 Ry
     internal energy E=F+TS    =   -7738.29457077 Ry

     The total energy is F=E-TS. E is the sum of the following terms:
     one-electron contribution =  -94718.73876827 Ry
     hartree contribution      =   47976.65456740 Ry
     xc contribution           =   -2218.71846674 Ry
     ewald contribution        =   41224.31561233 Ry
     Dispersion Correction     =      -1.80757753 Ry
     electric field correction =       0.00006204 Ry

     total magnetization       =    88.65 Bohr mag/cell
     absolute magnetization    =    90.03 Bohr mag/cell

     convergence has been achieved in  90 iterations

     negative rho (up, down):  1.053E-03 5.886E-04

     Forces acting on atoms (cartesian axes, Ry/au):

     atom    1 type  1   force =     0.00007605    0.00066021    0.00013934
     atom    2 type  2   force =     0.00039161   -0.00002115   -0.00059355
     atom    3 type  1   force =     0.00086074    0.00040624   -0.00010529
     atom    4 type  1   force =    -0.00032785   -0.00012594    0.00023217
     atom    5 type  1   force =     0.00086228   -0.00004974   -0.00031735
     atom    6 type  1   force =    -0.00008102    0.00018907   -0.00079959
     atom    7 type  3   force =    -0.00044239    0.00009828    0.00048876
     atom    8 type  3   force =     0.00013215   -0.00034377    0.00000144
     atom    9 type  3   force =    -0.00073390   -0.00048664   -0.00006628
     atom   10 type  3   force =     0.00011542   -0.00009486   -0.00021362
     atom   11 type  4   force =    -0.00072335   -0.00010939    0.00039495
     atom   12 type  4   force =    -0.00000931   -0.00025964    0.00041006
     atom   13 type  4   force =    -0.00063023   -0.00029770    0.00064528
     atom   14 type  4   force =     0.00041568   -0.00006324    0.00009312
     atom   15 type  4   force =     0.00041904    0.00005213    0.00006924
     atom   16 type  4   force =     0.00001051    0.00026993    0.00022523
     atom   17 type  4   force =     0.00032365    0.00055527    0.00103960
     atom   18 type  4   force =     0.00010985    0.00008311   -0.00017418
     atom   19 type  4   force =    -0.00032728    0.00033172   -0.00007735
     atom   20 type  4   force =     0.00008868    0.00033275   -0.00017834
     atom   21 type  4   force =     0.00000659   -0.00027156    0.00020020
     atom   22 type  4   force =    -0.00037727   -0.00011325    0.00048417
     atom   23 type  4   force =    -0.00028137    0.00016630    0.00030924
     atom   24 type  4   force =     0.00075908   -0.00047544   -0.00050115
     atom   25 type  4   force =     0.00041789   -0.00024957   -0.00080511
     atom   26 type  4   force =     0.00019697    0.00025132    0.00046685
     atom   27 type  1   force =    -0.00647474   -0.00838920   -0.00402125
     atom   28 type  2   force =    -0.01216831   -0.00010125   -0.00227242
     atom   29 type  1   force =     0.00433681   -0.00248298    0.00315836
     atom   30 type  1   force =     0.00238584    0.00412361   -0.00191189
     atom   31 type  1   force =     0.00174524   -0.00488457   -0.00046678
     atom   32 type  1   force =    -0.00129387    0.00122602    0.00165752
     atom   33 type  3   force =    -0.00710830   -0.00083825   -0.00042440
     atom   34 type  3   force =    -0.00621441    0.00320232   -0.00197027
     atom   35 type  3   force =     0.00409132   -0.00002896   -0.00409192
     atom   36 type  3   force =     0.00105121   -0.00131877    0.00300110
     atom   37 type  4   force =     0.00874680    0.00532595   -0.00770554
     atom   38 type  4   force =     0.00362863   -0.00106942    0.02075299
     atom   39 type  4   force =    -0.00114055    0.00367828    0.01013762
     atom   40 type  4   force =    -0.00160996   -0.00229578   -0.00887323
     atom   41 type  4   force =     0.00214820    0.00860891    0.00666047
     atom   42 type  4   force =    -0.00684420   -0.00314382   -0.01942616
     atom   43 type  4   force =     0.00948559    0.00736609   -0.00642272
     atom   44 type  4   force =     0.00719063   -0.00298230    0.00613112
     atom   45 type  4   force =     0.00223007    0.00578861   -0.00058810
     atom   46 type  4   force =     0.00337966    0.00091052    0.00501057
     atom   47 type  4   force =    -0.01314662    0.00023601    0.00331802
     atom   48 type  4   force =    -0.01455638    0.00256109   -0.00333275
     atom   49 type  4   force =     0.01312113    0.00288852   -0.00440093
     atom   50 type  4   force =    -0.00410097   -0.00392093    0.00000630
     atom   51 type  4   force =    -0.00438670    0.00263959   -0.00064373
     atom   52 type  4   force =     0.01626116   -0.00323405    0.00422050
     atom   53 type  1   force =    -0.00756919   -0.00728502   -0.00842827
     atom   54 type  2   force =     0.01574335    0.01713689   -0.00966087
     atom   55 type  1   force =     0.00576693   -0.00468422   -0.00586802
     atom   56 type  1   force =    -0.02049134    0.01933636    0.02002304
     atom   57 type  1   force =     0.00443907   -0.00763875   -0.00133218
     atom   58 type  1   force =    -0.00388937   -0.00521319   -0.00068793
     atom   59 type  3   force =    -0.03903933   -0.03835637   -0.05602063
     atom   60 type  3   force =    -0.00486019   -0.00127426   -0.00115536
     atom   61 type  3   force =     0.00273442   -0.00100956   -0.01012748
     atom   62 type  3   force =     0.02908986   -0.04950089   -0.06056619
     atom   63 type  4   force =     0.00630571    0.00353909    0.02093356
     atom   64 type  4   force =     0.00454107    0.00224424    0.01468313
     atom   65 type  4   force =    -0.00070410    0.00289380    0.01282595
     atom   66 type  4   force =     0.00010724    0.00219060    0.01613767
     atom   67 type  4   force =     0.00107291   -0.00061306    0.03919154
     atom   68 type  4   force =    -0.00562997   -0.00400851   -0.01730358
     atom   69 type  4   force =     0.00776811    0.00446228   -0.00268237
     atom   70 type  4   force =     0.00173253   -0.00732962    0.03551677
     atom   71 type  4   force =    -0.00915444    0.03908545    0.00098832
     atom   72 type  4   force =     0.00222666   -0.00036911    0.00793676
     atom   73 type  4   force =    -0.03000715    0.00086541    0.00767713
     atom   74 type  4   force =    -0.01339959    0.00144386   -0.00042213
     atom   75 type  4   force =     0.01177200    0.00349322   -0.00251166
     atom   76 type  4   force =    -0.00234410   -0.00274320    0.00254756
     atom   77 type  4   force =     0.00921067    0.02573909   -0.00253375
     atom   78 type  4   force =     0.03343834   -0.00639042    0.00621163
     atom   79 type  1   force =    -0.00011959    0.00046926   -0.00028732
     atom   80 type  2   force =     0.00014006   -0.00034024   -0.00038063
     atom   81 type  1   force =     0.00052807    0.00008200   -0.00035055
     atom   82 type  1   force =    -0.00035189    0.00017703    0.00029378
     atom   83 type  1   force =     0.00087030   -0.00005606    0.00014663
     atom   84 type  1   force =    -0.00053974   -0.00005424   -0.00089902
     atom   85 type  3   force =    -0.00034772   -0.00009089    0.00032512
     atom   86 type  3   force =    -0.00021067   -0.00003959    0.00013695
     atom   87 type  3   force =     0.00019678    0.00010806    0.00048613
     atom   88 type  3   force =     0.00065717    0.00009817   -0.00029964
     atom   89 type  4   force =    -0.00061395   -0.00042892    0.00035083
     atom   90 type  4   force =     0.00058897    0.00035138    0.00008802
     atom   91 type  4   force =    -0.00042282    0.00045478    0.00062467
     atom   92 type  4   force =     0.00017766    0.00033902    0.00007096
     atom   93 type  4   force =     0.00007850    0.00060555   -0.00025755
     atom   94 type  4   force =    -0.00000706    0.00068141    0.00031861
     atom   95 type  4   force =    -0.00012874    0.00068215    0.00065216
     atom   96 type  4   force =     0.00009260    0.00042112   -0.00012976
     atom   97 type  4   force =    -0.00067685    0.00026719   -0.00051252
     atom   98 type  4   force =    -0.00020356    0.00001198   -0.00008252
     atom   99 type  4   force =     0.00058357    0.00014318   -0.00004397
     atom  100 type  4   force =    -0.00023626    0.00033718    0.00015955
     atom  101 type  4   force =     0.00037385   -0.00009567   -0.00039195
     atom  102 type  4   force =     0.00057996   -0.00059589   -0.00049740
     atom  103 type  4   force =     0.00052128    0.00003493   -0.00049492
     atom  104 type  4   force =    -0.00027500   -0.00008491    0.00069289
     atom  105 type  1   force =    -0.00576412   -0.00913226   -0.00428359
     atom  106 type  2   force =    -0.01208466   -0.00013292   -0.00216685
     atom  107 type  1   force =     0.00276611   -0.00386266    0.00035903
     atom  108 type  1   force =     0.00243086    0.00409565   -0.00188738
     atom  109 type  1   force =     0.00187386   -0.00492321   -0.00047444
     atom  110 type  1   force =    -0.00086039    0.00124886    0.00176249
     atom  111 type  3   force =    -0.00707766   -0.00082142   -0.00046542
     atom  112 type  3   force =    -0.00679694    0.00249016   -0.00019821
     atom  113 type  3   force =     0.00401038   -0.00063079   -0.00539123
     atom  114 type  3   force =     0.00114202   -0.00127154    0.00291548
     atom  115 type  4   force =     0.00872165    0.00505107   -0.00761391
     atom  116 type  4   force =     0.00360418   -0.00109898    0.02030038
     atom  117 type  4   force =    -0.00124151    0.00352333    0.01020802
     atom  118 type  4   force =    -0.00156243   -0.00238622   -0.00896585
     atom  119 type  4   force =     0.00218514    0.00855443    0.00649520
     atom  120 type  4   force =    -0.00549316   -0.00353981   -0.01964300
     atom  121 type  4   force =     0.00982514    0.00661878   -0.00835082
     atom  122 type  4   force =     0.00700468   -0.00297000    0.00610964
     atom  123 type  4   force =     0.00201452    0.00581640   -0.00056215
     atom  124 type  4   force =     0.00312333    0.00134256    0.00508268
     atom  125 type  4   force =    -0.01300873    0.00021248    0.00324433
     atom  126 type  4   force =    -0.01455571    0.00263055   -0.00348296
     atom  127 type  4   force =     0.01245161    0.00263202   -0.00461359
     atom  128 type  4   force =    -0.00400718   -0.00405923   -0.00043730
     atom  129 type  4   force =    -0.00438961    0.00262523   -0.00055625
     atom  130 type  4   force =     0.01634959   -0.00324854    0.00418264
     atom  131 type  1   force =    -0.00749306   -0.00732246   -0.00847764
     atom  132 type  2   force =     0.01572671    0.01713370   -0.00962871
     atom  133 type  1   force =     0.00576120   -0.00468870   -0.00589807
     atom  134 type  1   force =    -0.02051566    0.01933344    0.02001674
     atom  135 type  1   force =     0.00445006   -0.00763301   -0.00130020
     atom  136 type  1   force =    -0.00389404   -0.00521523   -0.00069888
     atom  137 type  3   force =    -0.03903332   -0.03834972   -0.05602553
     atom  138 type  3   force =    -0.00485458   -0.00127726   -0.00114958
     atom  139 type  3   force =     0.00272532   -0.00101119   -0.01013458
     atom  140 type  3   force =     0.02908350   -0.04950051   -0.06056639
     atom  141 type  4   force =     0.00624178    0.00355920    0.02100352
     atom  142 type  4   force =     0.00445082    0.00224877    0.01471094
     atom  143 type  4   force =    -0.00062867    0.00279987    0.01286920
     atom  144 type  4   force =     0.00014862    0.00228173    0.01634167
     atom  145 type  4   force =     0.00121806   -0.00061167    0.03920349
     atom  146 type  4   force =    -0.00538156   -0.00400886   -0.01732480
     atom  147 type  4   force =     0.00775997    0.00451665   -0.00284442
     atom  148 type  4   force =     0.00162458   -0.00736664    0.03557463
     atom  149 type  4   force =    -0.00936204    0.03908229    0.00098793
     atom  150 type  4   force =     0.00202468   -0.00037345    0.00794025
     atom  151 type  4   force =    -0.02989715    0.00086760    0.00768116
     atom  152 type  4   force =    -0.01350697    0.00144819   -0.00042971
     atom  153 type  4   force =     0.01194178    0.00360577   -0.00252441
     atom  154 type  4   force =    -0.00238195   -0.00262028    0.00246244
     atom  155 type  4   force =     0.00911255    0.02576252   -0.00259194
     atom  156 type  4   force =     0.03340684   -0.00619890    0.00604696
     atom  157 type  4   force =     0.00904468   -0.00591100    0.00198981
     atom  158 type  5   force =    -0.01055765    0.00689348   -0.00276231

     Total force =     0.237660     Total SCF correction =     0.003832
 
     init_run     :      7.58s CPU      8.25s WALL (       1 calls)
     electrons    :   1127.51s CPU   1182.82s WALL (       1 calls)
     forces       :      3.86s CPU      4.19s WALL (       1 calls)
     force_london :      0.09s CPU      0.09s WALL (       1 calls)

     Called by init_run:
     wfcinit      :      4.31s CPU      4.50s WALL (       1 calls)
     potinit      :      0.66s CPU      0.88s WALL (       1 calls)
     hinit0       :      1.31s CPU      1.40s WALL (       1 calls)

     Called by electrons:
     c_bands      :    887.92s CPU    916.79s WALL (      90 calls)
     sum_band     :    150.23s CPU    164.55s WALL (      90 calls)
     v_of_rho     :     20.91s CPU     22.09s WALL (      91 calls)
     newd         :     43.98s CPU     54.96s WALL (      91 calls)
     mix_rho      :     23.36s CPU     23.51s WALL (      90 calls)
     energy_londo :      0.09s CPU      0.09s WALL (       1 calls)

     Called by c_bands:
     init_us_2    :      2.77s CPU      2.84s WALL (     364 calls)
     init_us_2:cp :      2.77s CPU      2.84s WALL (     364 calls)
     regterg      :    868.73s CPU    897.38s WALL (     184 calls)

     Called by *egterg:
     rdiaghg      :    237.89s CPU    251.59s WALL (     662 calls)
     h_psi        :    346.56s CPU    353.56s WALL (     664 calls)
     s_psi        :     64.35s CPU     64.38s WALL (     664 calls)
     g_psi        :      0.45s CPU      0.46s WALL (     478 calls)

     Called by h_psi:
     h_psi:calbec :     86.23s CPU     91.75s WALL (     664 calls)
     vloc_psi     :    194.56s CPU    195.40s WALL (     664 calls)
     add_vuspsi   :     64.92s CPU     65.53s WALL (     664 calls)

     General routines
     calbec       :    127.26s CPU    135.31s WALL (     852 calls)
     fft          :     18.03s CPU     19.53s WALL (    1651 calls)
     ffts         :     14.85s CPU     14.89s WALL (   11219 calls)
     fftw         :    219.70s CPU    220.54s WALL (  307706 calls)
     interpolate  :      1.68s CPU      1.79s WALL (     182 calls)
 
     Parallel routines
 
     PWSCF        :  19m 1.46s CPU  19m58.11s WALL

 
   This run was terminated on:   0:25:22  18Nov2025            

=------------------------------------------------------------------------------=
   JOB DONE.
=------------------------------------------------------------------------------=
