
     Program PWSCF v.7.2 starts on 19Nov2025 at 23:44:14 

     This program is part of the open-source Quantum ESPRESSO suite
     for quantum simulation of materials; please cite
         "P. Giannozzi et al., J. Phys.:Condens. Matter 21 395502 (2009);
         "P. Giannozzi et al., J. Phys.:Condens. Matter 29 465901 (2017);
         "P. Giannozzi et al., J. Chem. Phys. 152 154105 (2020);
          URL http://www.quantum-espresso.org", 
     in publications or presentations arising from this work. More details at
     http://www.quantum-espresso.org/quote

     Parallel version (MPI), running on    64 processors

     MPI processes distributed on     4 nodes
     381367 MiB available memory on the printing compute node when the environment starts
 
     Reading input from PWINPUT_atm158_ym

     Current dimensions of program PWSCF are:
     Max number of different atomic species (ntypx) = 10
     Max number of k-points (npk) =  40000
     Max angular momentum in pseudopotentials (lmaxx) =  4
     Presently no symmetry can be used with electric field

     file Ni.pbe-n-rrkjus_psl.1.0.0.UPF: wavefunction(s)  3D renormalized
     file Mn.pbe-spn-rrkjus_psl.0.3.1.UPF: wavefunction(s)  3D renormalized
     file O.pbe-rrkjus.UPF: wavefunction(s)  2S renormalized
     file H.pbe-rrkjus.UPF: wavefunction(s)  1S renormalized

     gamma-point specific algorithms are used
 
     R & G space division:  proc/nbgrp/npool/nimage =      64
     Subspace diagonalization in iterative solution of the eigenvalue problem:
     one sub-group per band group will be used
     custom distributed-memory algorithm (size of sub-group:  7*  7 procs)

 
     Parallelization info
     --------------------
     sticks:   dense  smooth     PW     G-vecs:    dense   smooth      PW
     Min         207      82     20                60552    15302    1896
     Max         210      84     22                60574    15336    1950
     Sum       13325    5345   1333              3876045   980655  122653
 
     Using Slab Decomposition
 


     bravais-lattice index     =            0
     lattice parameter (alat)  =      17.4067  a.u.
     unit-cell volume          =   20529.8182 (a.u.)^3
     number of atoms/cell      =          158
     number of atomic types    =            5
     number of electrons       =      1093.00
     number of Kohn-Sham states=          656
     kinetic-energy cutoff     =      50.0000  Ry
     charge density cutoff     =     500.0000  Ry
     scf convergence threshold =      1.0E-06
     mixing beta               =       0.5000
     number of iterations used =            8  local-TF  mixing
     Exchange-correlation=  SLA  PW   PBE  PBE
                           (   1   4   3   4   0   0   0)

     celldm(1)=  17.406729  celldm(2)=   0.000000  celldm(3)=   0.000000
     celldm(4)=   0.000000  celldm(5)=   0.000000  celldm(6)=   0.000000

     crystal axes: (cart. coord. in units of alat)
               a(1) = (   1.000000   0.000000   0.000000 )  
               a(2) = (  -0.001404   1.105696   0.000000 )  
               a(3) = (   0.000000   0.000000   3.520448 )  

     reciprocal axes: (cart. coord. in units 2 pi/alat)
               b(1) = (  1.000000  0.001270  0.000000 )  
               b(2) = (  0.000000  0.904408  0.000000 )  
               b(3) = (  0.000000  0.000000  0.284055 )  


     PseudoPot. # 1 for Ni read from file:
     ~/PSEUDO/Ni.pbe-n-rrkjus_psl.1.0.0.UPF
     MD5 check sum: Not computed, couldn't open file
     Pseudo is Ultrasoft + core correction, Zval = 10.0
     Generated using "atomic" code by A. Dal Corso  v.5.1.2
     Using radial grid of 1195 points,  6 beta functions with: 
                l(1) =   0
                l(2) =   0
                l(3) =   1
                l(4) =   1
                l(5) =   2
                l(6) =   2
     Q(r) pseudized with 0 coefficients 


     PseudoPot. # 2 for Mn read from file:
     ~/PSEUDO/Mn.pbe-spn-rrkjus_psl.0.3.1.UPF
     MD5 check sum: Not computed, couldn't open file
     Pseudo is Ultrasoft + core correction, Zval = 15.0
     Generated using &quot;atomic&quot; code by A. Dal Corso  v.6.2.2
     Using radial grid of 1187 points,  6 beta functions with: 
                l(1) =   0
                l(2) =   0
                l(3) =   1
                l(4) =   1
                l(5) =   2
                l(6) =   2
     Q(r) pseudized with 0 coefficients 


     PseudoPot. # 3 for P  read from file:
     ~/PSEUDO/P.pbe-n-rrkjus_psl.1.0.0.UPF
     MD5 check sum: Not computed, couldn't open file
     Pseudo is Ultrasoft + core correction, Zval =  5.0
     Generated using "atomic" code by A. Dal Corso  v.5.1
     Using radial grid of 1147 points,  6 beta functions with: 
                l(1) =   0
                l(2) =   0
                l(3) =   1
                l(4) =   1
                l(5) =   2
                l(6) =   2
     Q(r) pseudized with 0 coefficients 


     PseudoPot. # 4 for O  read from file:
     ~/PSEUDO/O.pbe-rrkjus.UPF
     MD5 check sum: Not computed, couldn't open file
     Pseudo is Ultrasoft, Zval =  6.0
     Generated by new atomic code, or converted to UPF format
     Using radial grid of 1269 points,  4 beta functions with: 
                l(1) =   0
                l(2) =   0
                l(3) =   1
                l(4) =   1
     Q(r) pseudized with 0 coefficients 


     PseudoPot. # 5 for H  read from file:
     ~/PSEUDO/H.pbe-rrkjus.UPF
     MD5 check sum: Not computed, couldn't open file
     Pseudo is Ultrasoft, Zval =  1.0
     Generated by new atomic code, or converted to UPF format
     Using radial grid of 1061 points,  2 beta functions with: 
                l(1) =   0
                l(2) =   0
     Q(r) pseudized with 0 coefficients 


     atomic species   valence    mass     pseudopotential
     Ni               10.00    58.69300     Ni( 1.00)
     Mn               15.00    54.93800     Mn( 1.00)
     P                 5.00    30.97300     P ( 1.00)
     O                 6.00    15.99900     O ( 1.00)
     H                 1.00     1.00790     H ( 1.00)

     Starting magnetic structure 
     atomic species   magnetization
     Ni              1.000
     Mn              1.000
     P               1.000
     O               1.000
     H               0.000

     No symmetry found



   Cartesian axes

     site n.     atom                  positions (alat units)
         1        Ni     tau(   1) = (   0.2506570   0.8586301   1.7460606  )
         2        Mn     tau(   2) = (   0.4849727   0.7922569   1.4298438  )
         3        Ni     tau(   3) = (   0.0099166   0.3147980   1.7770697  )
         4        Ni     tau(   4) = (   0.2559633   0.2443239   1.4306739  )
         5        Ni     tau(   5) = (   0.4961466   1.1064648   1.5948314  )
         6        Ni     tau(   6) = (   0.2497854   0.5481636   1.6051322  )
         7        P      tau(   7) = (   0.2072152   1.0031948   1.4309315  )
         8        P      tau(   8) = (   0.4627705   0.6639515   1.7680067  )
         9        P      tau(   9) = (   0.2880368   0.1077753   1.7607118  )
        10        P      tau(  10) = (   0.0387468   0.4409683   1.4352442  )
        11        O      tau(  11) = (   0.1330935   0.9304818   1.5706977  )
        12        O      tau(  12) = (   0.3831504   0.7264978   1.6204600  )
        13        O      tau(  13) = (   0.3628275   0.1744689   1.6127481  )
        14        O      tau(  14) = (   0.1155931   0.3681480   1.5734176  )
        15        O      tau(  15) = (   0.1485558   0.9123257   1.3024039  )
        16        O      tau(  16) = (   0.3999411   0.7624960   1.8844666  )
        17        O      tau(  17) = (   0.3533233   0.2035263   1.8795646  )
        18        O      tau(  18) = (   0.0986482   0.3547482   1.3039728  )
        19        O      tau(  19) = (   0.0982500   0.5998695   1.4410699  )
        20        O      tau(  20) = (   0.3443251   1.0535330   1.7571523  )
        21        O      tau(  21) = (   0.3728385   0.4379153   1.4465920  )
        22        O      tau(  22) = (   0.1208408   0.1132369   1.7503220  )
        23        O      tau(  23) = (   0.1278822   0.6735676   1.7463016  )
        24        O      tau(  24) = (   0.4096499   0.5020876   1.7635143  )
        25        O      tau(  25) = (   0.1476551   0.0545948   1.4347483  )
        26        O      tau(  26) = (   0.3739202   0.9939412   1.4421146  )
        27        Ni     tau(  27) = (   0.2413539   0.8509941   1.1121345  )
        28        Mn     tau(  28) = (   0.4917018   0.7787406   0.7768134  )
        29        Ni     tau(  29) = (   0.0044877   0.2932623   1.1138982  )
        30        Ni     tau(  30) = (   0.2563139   0.2275682   0.7805625  )
        31        Ni     tau(  31) = (   0.4969120   1.0949007   0.9459116  )
        32        Ni     tau(  32) = (   0.2488318   0.5341111   0.9469721  )
        33        P      tau(  33) = (   0.2076029   0.9882917   0.7835381  )
        34        P      tau(  34) = (   0.4577012   0.6460068   1.1076436  )
        35        P      tau(  35) = (   0.2881931   0.0932770   1.1104179  )
        36        P      tau(  36) = (   0.0392916   0.4238898   0.7837243  )
        37        O      tau(  37) = (   0.1306755   0.9148866   0.9233554  )
        38        O      tau(  38) = (   0.3789780   0.7172835   0.9680652  )
        39        O      tau(  39) = (   0.3654852   0.1662865   0.9702638  )
        40        O      tau(  40) = (   0.1163776   0.3546954   0.9254186  )
        41        O      tau(  41) = (   0.1502901   0.8969129   0.6541592  )
        42        O      tau(  42) = (   0.3974525   0.7354243   1.2370031  )
        43        O      tau(  43) = (   0.3483097   0.1789497   1.2412670  )
        44        O      tau(  44) = (   0.0974932   0.3376387   0.6529083  )
        45        O      tau(  45) = (   0.0984699   0.5818903   0.7881021  )
        46        O      tau(  46) = (   0.3459978   1.0405493   1.1018526  )
        47        O      tau(  47) = (   0.3731719   0.4204123   0.7945555  )
        48        O      tau(  48) = (   0.1223503   0.0989699   1.1000566  )
        49        O      tau(  49) = (   0.1235438   0.6536772   1.0980598  )
        50        O      tau(  50) = (   0.4004339   0.4872435   1.1047245  )
        51        O      tau(  51) = (   0.1476543   0.0398268   0.7872561  )
        52        O      tau(  52) = (   0.3728637   0.9843360   0.7931368  )
        53        Ni     tau(  53) = (   0.2406075   0.8410745   0.4603118  )
        54        Mn     tau(  54) = (   0.4909555   0.7688210   0.1249907  )
        55        Ni     tau(  55) = (   0.0037414   0.2833427   0.4620755  )
        56        Ni     tau(  56) = (   0.2555676   0.2176485   0.1287398  )
        57        Ni     tau(  57) = (   0.4961657   1.0849810   0.2940889  )
        58        Ni     tau(  58) = (   0.2480854   0.5241915   0.2951494  )
        59        P      tau(  59) = (   0.2068565   0.9783721   0.1317154  )
        60        P      tau(  60) = (   0.4569549   0.6360871   0.4558210  )
        61        P      tau(  61) = (   0.2874467   0.0833574   0.4585952  )
        62        P      tau(  62) = (   0.0385452   0.4139702   0.1319017  )
        63        O      tau(  63) = (   0.1299291   0.9049669   0.2715327  )
        64        O      tau(  64) = (   0.3782317   0.7073639   0.3162425  )
        65        O      tau(  65) = (   0.3647389   0.1563669   0.3184411  )
        66        O      tau(  66) = (   0.1156313   0.3447757   0.2735959  )
        67        O      tau(  67) = (   0.1495437   0.8869933   0.0023366  )
        68        O      tau(  68) = (   0.3967062   0.7255047   0.5851804  )
        69        O      tau(  69) = (   0.3475634   0.1690300   0.5894443  )
        70        O      tau(  70) = (   0.0967469   0.3277190   0.0010856  )
        71        O      tau(  71) = (   0.0977236   0.5719706   0.1362794  )
        72        O      tau(  72) = (   0.3452514   1.0306297   0.4500300  )
        73        O      tau(  73) = (   0.3724256   0.4104926   0.1427328  )
        74        O      tau(  74) = (   0.1216040   0.0890503   0.4482339  )
        75        O      tau(  75) = (   0.1227974   0.6437575   0.4462371  )
        76        O      tau(  76) = (   0.3996875   0.4773239   0.4529018  )
        77        O      tau(  77) = (   0.1469079   0.0299071   0.1354334  )
        78        O      tau(  78) = (   0.3721173   0.9744163   0.1413141  )
        79        Ni     tau(  79) = (   0.7512968   0.8629757   1.7463792  )
        80        Mn     tau(  80) = (   0.9856283   0.7922987   1.4298132  )
        81        Ni     tau(  81) = (   0.4994156   0.3046718   1.7432553  )
        82        Ni     tau(  82) = (   0.7561331   0.2436078   1.4290244  )
        83        Ni     tau(  83) = (   0.9969098   1.1094576   1.5975923  )
        84        Ni     tau(  84) = (   0.7520413   0.5511724   1.6011549  )
        85        P      tau(  85) = (   0.7080384   1.0032090   1.4301353  )
        86        P      tau(  86) = (   0.9611635   0.6679249   1.7676684  )
        87        P      tau(  87) = (   0.7866251   0.1146576   1.7538485  )
        88        P      tau(  88) = (   0.5392440   0.4429935   1.4323773  )
        89        O      tau(  89) = (   0.6332873   0.9305214   1.5700818  )
        90        O      tau(  90) = (   0.8817828   0.7322621   1.6197895  )
        91        O      tau(  91) = (   0.8630260   0.1746843   1.6073185  )
        92        O      tau(  92) = (   0.6180632   0.3716942   1.5710585  )
        93        O      tau(  93) = (   0.6497195   0.9106468   1.3026397  )
        94        O      tau(  94) = (   0.9019451   0.7695149   1.8836030  )
        95        O      tau(  95) = (   0.8435869   0.2142205   1.8732697  )
        96        O      tau(  96) = (   0.5989220   0.3556149   1.3022932  )
        97        O      tau(  97) = (   0.5988978   0.6014494   1.4382358  )
        98        O      tau(  98) = (   0.8418133   1.0593846   1.7579884  )
        99        O      tau(  99) = (   0.8718788   0.4384067   1.4450747  )
       100        O      tau( 100) = (   0.6185655   0.1172295   1.7419182  )
       101        O      tau( 101) = (   0.6296522   0.6725592   1.7491468  )
       102        O      tau( 102) = (   0.9012154   0.5091499   1.7607365  )
       103        O      tau( 103) = (   0.6461684   0.0538532   1.4316752  )
       104        O      tau( 104) = (   0.8745741   0.9956699   1.4422503  )
       105        Ni     tau( 105) = (   0.7413539   0.8509941   1.1121345  )
       106        Mn     tau( 106) = (   0.9917018   0.7787406   0.7768134  )
       107        Ni     tau( 107) = (   0.5044877   0.2932623   1.1138982  )
       108        Ni     tau( 108) = (   0.7563139   0.2275682   0.7805625  )
       109        Ni     tau( 109) = (   0.9969120   1.0949007   0.9459116  )
       110        Ni     tau( 110) = (   0.7488318   0.5341111   0.9469721  )
       111        P      tau( 111) = (   0.7076029   0.9882917   0.7835381  )
       112        P      tau( 112) = (   0.9577012   0.6460068   1.1076436  )
       113        P      tau( 113) = (   0.7881931   0.0932770   1.1104179  )
       114        P      tau( 114) = (   0.5392916   0.4238898   0.7837243  )
       115        O      tau( 115) = (   0.6306755   0.9148866   0.9233554  )
       116        O      tau( 116) = (   0.8789780   0.7172835   0.9680652  )
       117        O      tau( 117) = (   0.8654852   0.1662865   0.9702638  )
       118        O      tau( 118) = (   0.6163776   0.3546954   0.9254186  )
       119        O      tau( 119) = (   0.6502901   0.8969129   0.6541592  )
       120        O      tau( 120) = (   0.8974525   0.7354243   1.2370031  )
       121        O      tau( 121) = (   0.8483097   0.1789497   1.2412670  )
       122        O      tau( 122) = (   0.5974932   0.3376387   0.6529083  )
       123        O      tau( 123) = (   0.5984699   0.5818903   0.7881021  )
       124        O      tau( 124) = (   0.8459978   1.0405493   1.1018526  )
       125        O      tau( 125) = (   0.8731719   0.4204123   0.7945555  )
       126        O      tau( 126) = (   0.6223503   0.0989699   1.1000566  )
       127        O      tau( 127) = (   0.6235438   0.6536772   1.0980598  )
       128        O      tau( 128) = (   0.9004339   0.4872435   1.1047245  )
       129        O      tau( 129) = (   0.6476543   0.0398268   0.7872561  )
       130        O      tau( 130) = (   0.8728637   0.9843360   0.7931368  )
       131        Ni     tau( 131) = (   0.7406075   0.8410745   0.4603118  )
       132        Mn     tau( 132) = (   0.9909555   0.7688210   0.1249907  )
       133        Ni     tau( 133) = (   0.5037414   0.2833427   0.4620755  )
       134        Ni     tau( 134) = (   0.7555676   0.2176485   0.1287398  )
       135        Ni     tau( 135) = (   0.9961657   1.0849810   0.2940889  )
       136        Ni     tau( 136) = (   0.7480854   0.5241915   0.2951494  )
       137        P      tau( 137) = (   0.7068565   0.9783721   0.1317154  )
       138        P      tau( 138) = (   0.9569549   0.6360871   0.4558210  )
       139        P      tau( 139) = (   0.7874467   0.0833574   0.4585952  )
       140        P      tau( 140) = (   0.5385452   0.4139702   0.1319017  )
       141        O      tau( 141) = (   0.6299291   0.9049669   0.2715327  )
       142        O      tau( 142) = (   0.8782317   0.7073639   0.3162425  )
       143        O      tau( 143) = (   0.8647389   0.1563669   0.3184411  )
       144        O      tau( 144) = (   0.6156313   0.3447757   0.2735959  )
       145        O      tau( 145) = (   0.6495437   0.8869933   0.0023366  )
       146        O      tau( 146) = (   0.8967062   0.7255047   0.5851804  )
       147        O      tau( 147) = (   0.8475634   0.1690300   0.5894443  )
       148        O      tau( 148) = (   0.5967469   0.3277190   0.0010856  )
       149        O      tau( 149) = (   0.5977236   0.5719706   0.1362794  )
       150        O      tau( 150) = (   0.8452514   1.0306297   0.4500300  )
       151        O      tau( 151) = (   0.8724256   0.4104926   0.1427328  )
       152        O      tau( 152) = (   0.6216040   0.0890503   0.4482339  )
       153        O      tau( 153) = (   0.6227974   0.6437575   0.4462371  )
       154        O      tau( 154) = (   0.8996875   0.4773239   0.4529018  )
       155        O      tau( 155) = (   0.6469079   0.0299071   0.1354334  )
       156        O      tau( 156) = (   0.8721173   0.9744163   0.1413141  )
       157        O      tau( 157) = (   0.1278368   0.3974856   1.9116046  )
       158        H      tau( 158) = (   0.2123993   0.3339862   1.9350536  )

     -------------------------------------------------
     Parameters for Dispersion (Grimme-D2) Correction:
     -------------------------------------------------
       atom      VdW radius       C_6     

        Ni         2.952        374.666
        Mn         2.952        374.666
        P          3.222        271.980
        O          2.536         24.284
        H          1.892          4.857

     number of k points=     1  Gaussian smearing, width (Ry)=  0.0100
                       cart. coord. in units 2pi/alat
        k(    1) = (   0.0000000   0.0000000   0.0000000), wk =   1.0000000

     Dense  grid:  1938023 G-vectors     FFT dimensions: ( 125, 144, 450)

     Smooth grid:   490328 G-vectors     FFT dimensions: (  80,  90, 288)

     Estimated max dynamical RAM per process >     326.29 MB

     Estimated total dynamical RAM >      20.39 GB

     Check: negative core charge=   -0.000001
     Generating pointlists ...
     new r_m :   0.0813 (alat units)  1.4151 (a.u.) for type    1
     new r_m :   0.0904 (alat units)  1.5744 (a.u.) for type    2
     new r_m :   0.0681 (alat units)  1.1847 (a.u.) for type    3
     new r_m :   0.0447 (alat units)  0.7778 (a.u.) for type    4
     new r_m :   0.0447 (alat units)  0.7778 (a.u.) for type    5

     Initial potential from superposition of free atoms

     starting charge    1092.8893, renormalised to    1093.0000

     negative rho (up, down):  1.399E-03 4.531E-04
 
     Adding external electric field

     Computed dipole along edir(3) : 
        Dipole                1.6505 Ry au,          4.1952 Debye
        Dipole field          0.0010 Ry au, 
 
        Potential amp.       -0.1114 Ry
        Total length         55.1515 bohr
 
 
     Adding external electric field

     Computed dipole along edir(3) : 
        Dipole                1.6505 Ry au,          4.1952 Debye
        Dipole field          0.0010 Ry au, 
 
        Potential amp.       -0.1114 Ry
        Total length         55.1515 bohr
 
     Starting wfcs are  815 randomized atomic wfcs

     total cpu time spent up to now is       10.5 secs

     Self-consistent Calculation

     iteration #  1     ecut=    50.00 Ry     beta= 0.50
     Davidson diagonalization with overlap
     ethr =  1.00E-02,  avg # of iterations =  6.0

     negative rho (up, down):  2.596E+00 2.143E-05
 
     Adding external electric field

     Computed dipole along edir(3) : 
        Dipole              -24.0684 Ry au,        -61.1758 Debye
        Dipole field         -0.0147 Ry au, 
 
        Potential amp.        1.6250 Ry
        Total length         55.1515 bohr
 
 
     Adding external electric field

     Computed dipole along edir(3) : 
        Dipole              -24.0684 Ry au,        -61.1758 Debye
        Dipole field         -0.0147 Ry au, 
 
        Potential amp.        1.6250 Ry
        Total length         55.1515 bohr
 

     total cpu time spent up to now is       38.7 secs

     total energy              =   -7551.28134060 Ry
     estimated scf accuracy    <     801.35925642 Ry

     total magnetization       =   219.00 Bohr mag/cell
     absolute magnetization    =   307.28 Bohr mag/cell

     iteration #  2     ecut=    50.00 Ry     beta= 0.50
     Davidson diagonalization with overlap
     ethr =  1.00E-02,  avg # of iterations =  8.0

     negative rho (up, down):  2.446E+00 6.696E-05
 
     Adding external electric field

     Computed dipole along edir(3) : 
        Dipole                0.5943 Ry au,          1.5107 Debye
        Dipole field          0.0004 Ry au, 
 
        Potential amp.       -0.0401 Ry
        Total length         55.1515 bohr
 
 
     Adding external electric field

     Computed dipole along edir(3) : 
        Dipole                0.5943 Ry au,          1.5107 Debye
        Dipole field          0.0004 Ry au, 
 
        Potential amp.       -0.0401 Ry
        Total length         55.1515 bohr
 

     total cpu time spent up to now is       66.3 secs

     total energy              =   -7632.11102786 Ry
     estimated scf accuracy    <    9300.85554469 Ry

     total magnetization       =   131.26 Bohr mag/cell
     absolute magnetization    =   169.44 Bohr mag/cell

     iteration #  3     ecut=    50.00 Ry     beta= 0.50
     Davidson diagonalization with overlap
     ethr =  1.00E-02,  avg # of iterations =  7.5

     negative rho (up, down):  1.708E+00 3.375E-04
 
     Adding external electric field

     Computed dipole along edir(3) : 
        Dipole               -1.8191 Ry au,         -4.6237 Debye
        Dipole field         -0.0011 Ry au, 
 
        Potential amp.        0.1228 Ry
        Total length         55.1515 bohr
 
 
     Adding external electric field

     Computed dipole along edir(3) : 
        Dipole               -1.8191 Ry au,         -4.6237 Debye
        Dipole field         -0.0011 Ry au, 
 
        Potential amp.        0.1228 Ry
        Total length         55.1515 bohr
 

     total cpu time spent up to now is       85.7 secs

     total energy              =   -7705.85795770 Ry
     estimated scf accuracy    <     663.45806821 Ry

     total magnetization       =   124.41 Bohr mag/cell
     absolute magnetization    =   166.37 Bohr mag/cell

     iteration #  4     ecut=    50.00 Ry     beta= 0.50
     Davidson diagonalization with overlap
     ethr =  1.00E-02,  avg # of iterations =  2.0

     negative rho (up, down):  1.056E+00 1.344E-04
 
     Adding external electric field

     Computed dipole along edir(3) : 
        Dipole               -2.2373 Ry au,         -5.6865 Debye
        Dipole field         -0.0014 Ry au, 
 
        Potential amp.        0.1511 Ry
        Total length         55.1515 bohr
 
 
     Adding external electric field

     Computed dipole along edir(3) : 
        Dipole               -2.2373 Ry au,         -5.6865 Debye
        Dipole field         -0.0014 Ry au, 
 
        Potential amp.        0.1511 Ry
        Total length         55.1515 bohr
 

     total cpu time spent up to now is       98.4 secs

     total energy              =   -7722.44188157 Ry
     estimated scf accuracy    <      75.14076179 Ry

     total magnetization       =    92.93 Bohr mag/cell
     absolute magnetization    =   137.82 Bohr mag/cell

     iteration #  5     ecut=    50.00 Ry     beta= 0.50
     Davidson diagonalization with overlap
     ethr =  6.87E-03,  avg # of iterations =  1.5

     negative rho (up, down):  6.107E-01 3.320E-06
 
     Adding external electric field

     Computed dipole along edir(3) : 
        Dipole               -2.6693 Ry au,         -6.7847 Debye
        Dipole field         -0.0016 Ry au, 
 
        Potential amp.        0.1802 Ry
        Total length         55.1515 bohr
 
 
     Adding external electric field

     Computed dipole along edir(3) : 
        Dipole               -2.6693 Ry au,         -6.7847 Debye
        Dipole field         -0.0016 Ry au, 
 
        Potential amp.        0.1802 Ry
        Total length         55.1515 bohr
 

     total cpu time spent up to now is      111.1 secs

     total energy              =   -7729.08400861 Ry
     estimated scf accuracy    <      91.18494306 Ry

     total magnetization       =    91.00 Bohr mag/cell
     absolute magnetization    =   125.04 Bohr mag/cell

     iteration #  6     ecut=    50.00 Ry     beta= 0.50
     Davidson diagonalization with overlap
     ethr =  6.87E-03,  avg # of iterations =  1.0

     negative rho (up, down):  2.589E-01 3.141E-06
 
     Adding external electric field

     Computed dipole along edir(3) : 
        Dipole               -2.9910 Ry au,         -7.6024 Debye
        Dipole field         -0.0018 Ry au, 
 
        Potential amp.        0.2019 Ry
        Total length         55.1515 bohr
 
 
     Adding external electric field

     Computed dipole along edir(3) : 
        Dipole               -2.9910 Ry au,         -7.6024 Debye
        Dipole field         -0.0018 Ry au, 
 
        Potential amp.        0.2019 Ry
        Total length         55.1515 bohr
 

     total cpu time spent up to now is      123.2 secs

     total energy              =   -7733.03794776 Ry
     estimated scf accuracy    <      55.83624891 Ry

     total magnetization       =    91.00 Bohr mag/cell
     absolute magnetization    =   116.95 Bohr mag/cell

     iteration #  7     ecut=    50.00 Ry     beta= 0.50
     Davidson diagonalization with overlap
     ethr =  5.11E-03,  avg # of iterations =  1.5

     negative rho (up, down):  3.066E-03 4.188E-05
 
     Adding external electric field

     Computed dipole along edir(3) : 
        Dipole               -3.4654 Ry au,         -8.8081 Debye
        Dipole field         -0.0021 Ry au, 
 
        Potential amp.        0.2340 Ry
        Total length         55.1515 bohr
 
 
     Adding external electric field

     Computed dipole along edir(3) : 
        Dipole               -3.4654 Ry au,         -8.8081 Debye
        Dipole field         -0.0021 Ry au, 
 
        Potential amp.        0.2340 Ry
        Total length         55.1515 bohr
 

     total cpu time spent up to now is      136.0 secs

     total energy              =   -7736.04404211 Ry
     estimated scf accuracy    <      38.57823649 Ry

     total magnetization       =    86.69 Bohr mag/cell
     absolute magnetization    =   105.19 Bohr mag/cell

     iteration #  8     ecut=    50.00 Ry     beta= 0.50
     Davidson diagonalization with overlap
     ethr =  3.53E-03,  avg # of iterations =  1.0

     negative rho (up, down):  7.757E-05 6.806E-04
 
     Adding external electric field

     Computed dipole along edir(3) : 
        Dipole               -3.6193 Ry au,         -9.1994 Debye
        Dipole field         -0.0022 Ry au, 
 
        Potential amp.        0.2444 Ry
        Total length         55.1515 bohr
 
 
     Adding external electric field

     Computed dipole along edir(3) : 
        Dipole               -3.6193 Ry au,         -9.1994 Debye
        Dipole field         -0.0022 Ry au, 
 
        Potential amp.        0.2444 Ry
        Total length         55.1515 bohr
 

     total cpu time spent up to now is      149.6 secs

     total energy              =   -7737.33881409 Ry
     estimated scf accuracy    <      35.45916587 Ry

     total magnetization       =    86.58 Bohr mag/cell
     absolute magnetization    =    97.49 Bohr mag/cell

     iteration #  9     ecut=    50.00 Ry     beta= 0.50
     Davidson diagonalization with overlap
     ethr =  3.24E-03,  avg # of iterations =  1.0

     negative rho (up, down):  6.903E-05 1.432E-03
 
     Adding external electric field

     Computed dipole along edir(3) : 
        Dipole               -3.6135 Ry au,         -9.1845 Debye
        Dipole field         -0.0022 Ry au, 
 
        Potential amp.        0.2440 Ry
        Total length         55.1515 bohr
 
 
     Adding external electric field

     Computed dipole along edir(3) : 
        Dipole               -3.6135 Ry au,         -9.1845 Debye
        Dipole field         -0.0022 Ry au, 
 
        Potential amp.        0.2440 Ry
        Total length         55.1515 bohr
 

     total cpu time spent up to now is      162.1 secs

     total energy              =   -7738.01572093 Ry
     estimated scf accuracy    <       5.67657163 Ry

     total magnetization       =    86.83 Bohr mag/cell
     absolute magnetization    =    94.63 Bohr mag/cell

     iteration # 10     ecut=    50.00 Ry     beta= 0.50
     Davidson diagonalization with overlap
     ethr =  5.19E-04,  avg # of iterations =  7.0

     negative rho (up, down):  7.838E-05 2.119E-03
 
     Adding external electric field

     Computed dipole along edir(3) : 
        Dipole               -3.6749 Ry au,         -9.3408 Debye
        Dipole field         -0.0022 Ry au, 
 
        Potential amp.        0.2481 Ry
        Total length         55.1515 bohr
 
 
     Adding external electric field

     Computed dipole along edir(3) : 
        Dipole               -3.6749 Ry au,         -9.3408 Debye
        Dipole field         -0.0022 Ry au, 
 
        Potential amp.        0.2481 Ry
        Total length         55.1515 bohr
 

     total cpu time spent up to now is      180.9 secs

     total energy              =   -7738.30082142 Ry
     estimated scf accuracy    <       1.44274249 Ry

     total magnetization       =    88.93 Bohr mag/cell
     absolute magnetization    =    95.00 Bohr mag/cell

     iteration # 11     ecut=    50.00 Ry     beta= 0.50
     Davidson diagonalization with overlap
     ethr =  1.32E-04,  avg # of iterations = 10.5

     negative rho (up, down):  5.326E-07 1.062E-04
 
     Adding external electric field

     Computed dipole along edir(3) : 
        Dipole               -3.5002 Ry au,         -8.8965 Debye
        Dipole field         -0.0021 Ry au, 
 
        Potential amp.        0.2363 Ry
        Total length         55.1515 bohr
 
 
     Adding external electric field

     Computed dipole along edir(3) : 
        Dipole               -3.5002 Ry au,         -8.8965 Debye
        Dipole field         -0.0021 Ry au, 
 
        Potential amp.        0.2363 Ry
        Total length         55.1515 bohr
 

     total cpu time spent up to now is      203.8 secs

     total energy              =   -7738.36938846 Ry
     estimated scf accuracy    <       6.52471422 Ry

     total magnetization       =    86.12 Bohr mag/cell
     absolute magnetization    =    90.32 Bohr mag/cell

     iteration # 12     ecut=    50.00 Ry     beta= 0.50
     Davidson diagonalization with overlap
     ethr =  1.32E-04,  avg # of iterations =  1.0

     negative rho (up, down):  2.352E-06 1.684E-04
 
     Adding external electric field

     Computed dipole along edir(3) : 
        Dipole               -3.4741 Ry au,         -8.8302 Debye
        Dipole field         -0.0021 Ry au, 
 
        Potential amp.        0.2346 Ry
        Total length         55.1515 bohr
 
 
     Adding external electric field

     Computed dipole along edir(3) : 
        Dipole               -3.4741 Ry au,         -8.8302 Debye
        Dipole field         -0.0021 Ry au, 
 
        Potential amp.        0.2346 Ry
        Total length         55.1515 bohr
 

     total cpu time spent up to now is      216.4 secs

     total energy              =   -7738.33332755 Ry
     estimated scf accuracy    <      13.70781605 Ry

     total magnetization       =    85.95 Bohr mag/cell
     absolute magnetization    =    88.87 Bohr mag/cell

     iteration # 13     ecut=    50.00 Ry     beta= 0.50
     Davidson diagonalization with overlap
     ethr =  1.32E-04,  avg # of iterations =  1.5

     negative rho (up, down):  5.225E-06 1.598E-04
 
     Adding external electric field

     Computed dipole along edir(3) : 
        Dipole               -3.5336 Ry au,         -8.9814 Debye
        Dipole field         -0.0022 Ry au, 
 
        Potential amp.        0.2386 Ry
        Total length         55.1515 bohr
 
 
     Adding external electric field

     Computed dipole along edir(3) : 
        Dipole               -3.5336 Ry au,         -8.9814 Debye
        Dipole field         -0.0022 Ry au, 
 
        Potential amp.        0.2386 Ry
        Total length         55.1515 bohr
 

     total cpu time spent up to now is      230.3 secs

     total energy              =   -7738.38531259 Ry
     estimated scf accuracy    <      10.87351785 Ry

     total magnetization       =    85.11 Bohr mag/cell
     absolute magnetization    =    88.81 Bohr mag/cell

     iteration # 14     ecut=    50.00 Ry     beta= 0.50
     Davidson diagonalization with overlap
     ethr =  1.32E-04,  avg # of iterations =  1.0

     negative rho (up, down):  6.945E-06 1.907E-04
 
     Adding external electric field

     Computed dipole along edir(3) : 
        Dipole               -3.5201 Ry au,         -8.9473 Debye
        Dipole field         -0.0022 Ry au, 
 
        Potential amp.        0.2377 Ry
        Total length         55.1515 bohr
 
 
     Adding external electric field

     Computed dipole along edir(3) : 
        Dipole               -3.5201 Ry au,         -8.9473 Debye
        Dipole field         -0.0022 Ry au, 
 
        Potential amp.        0.2377 Ry
        Total length         55.1515 bohr
 

     total cpu time spent up to now is      243.1 secs

     total energy              =   -7738.39299213 Ry
     estimated scf accuracy    <      12.10765870 Ry

     total magnetization       =    85.32 Bohr mag/cell
     absolute magnetization    =    89.15 Bohr mag/cell

     iteration # 15     ecut=    50.00 Ry     beta= 0.50
     Davidson diagonalization with overlap
     ethr =  1.32E-04,  avg # of iterations =  1.0

     negative rho (up, down):  4.393E-06 3.970E-04
 
     Adding external electric field

     Computed dipole along edir(3) : 
        Dipole               -3.4000 Ry au,         -8.6420 Debye
        Dipole field         -0.0021 Ry au, 
 
        Potential amp.        0.2296 Ry
        Total length         55.1515 bohr
 
 
     Adding external electric field

     Computed dipole along edir(3) : 
        Dipole               -3.4000 Ry au,         -8.6420 Debye
        Dipole field         -0.0021 Ry au, 
 
        Potential amp.        0.2296 Ry
        Total length         55.1515 bohr
 

     total cpu time spent up to now is      255.7 secs

     total energy              =   -7738.35672326 Ry
     estimated scf accuracy    <      14.70376387 Ry

     total magnetization       =    85.14 Bohr mag/cell
     absolute magnetization    =    88.95 Bohr mag/cell

     iteration # 16     ecut=    50.00 Ry     beta= 0.50
     Davidson diagonalization with overlap
     ethr =  1.32E-04,  avg # of iterations =  1.0

     negative rho (up, down):  5.485E-06 6.581E-04
 
     Adding external electric field

     Computed dipole along edir(3) : 
        Dipole               -3.3430 Ry au,         -8.4970 Debye
        Dipole field         -0.0020 Ry au, 
 
        Potential amp.        0.2257 Ry
        Total length         55.1515 bohr
 
 
     Adding external electric field

     Computed dipole along edir(3) : 
        Dipole               -3.3430 Ry au,         -8.4970 Debye
        Dipole field         -0.0020 Ry au, 
 
        Potential amp.        0.2257 Ry
        Total length         55.1515 bohr
 

     total cpu time spent up to now is      268.1 secs

     total energy              =   -7738.35376184 Ry
     estimated scf accuracy    <      12.16728125 Ry

     total magnetization       =    85.18 Bohr mag/cell
     absolute magnetization    =    88.44 Bohr mag/cell

     iteration # 17     ecut=    50.00 Ry     beta= 0.50
     Davidson diagonalization with overlap
     ethr =  1.32E-04,  avg # of iterations =  1.0

     negative rho (up, down):  3.935E-06 4.056E-04
 
     Adding external electric field

     Computed dipole along edir(3) : 
        Dipole               -3.2364 Ry au,         -8.2262 Debye
        Dipole field         -0.0020 Ry au, 
 
        Potential amp.        0.2185 Ry
        Total length         55.1515 bohr
 
 
     Adding external electric field

     Computed dipole along edir(3) : 
        Dipole               -3.2364 Ry au,         -8.2262 Debye
        Dipole field         -0.0020 Ry au, 
 
        Potential amp.        0.2185 Ry
        Total length         55.1515 bohr
 

     total cpu time spent up to now is      280.6 secs

     total energy              =   -7738.36598148 Ry
     estimated scf accuracy    <       9.27623741 Ry

     total magnetization       =    85.01 Bohr mag/cell
     absolute magnetization    =    87.83 Bohr mag/cell

     iteration # 18     ecut=    50.00 Ry     beta= 0.50
     Davidson diagonalization with overlap
     ethr =  1.32E-04,  avg # of iterations =  1.0

     negative rho (up, down):  3.040E-03 4.455E-03
 
     Adding external electric field

     Computed dipole along edir(3) : 
        Dipole               -2.6286 Ry au,         -6.6814 Debye
        Dipole field         -0.0016 Ry au, 
 
        Potential amp.        0.1775 Ry
        Total length         55.1515 bohr
 
 
     Adding external electric field

     Computed dipole along edir(3) : 
        Dipole               -2.6286 Ry au,         -6.6814 Debye
        Dipole field         -0.0016 Ry au, 
 
        Potential amp.        0.1775 Ry
        Total length         55.1515 bohr
 

     total cpu time spent up to now is      293.5 secs

     total energy              =   -7738.31017821 Ry
     estimated scf accuracy    <       6.77437906 Ry

     total magnetization       =    85.76 Bohr mag/cell
     absolute magnetization    =    88.54 Bohr mag/cell

     iteration # 19     ecut=    50.00 Ry     beta= 0.50
     Davidson diagonalization with overlap
     ethr =  1.32E-04,  avg # of iterations =  2.0

     negative rho (up, down):  3.503E-02 5.312E-02
 
     Adding external electric field

     Computed dipole along edir(3) : 
        Dipole               -1.9640 Ry au,         -4.9921 Debye
        Dipole field         -0.0012 Ry au, 
 
        Potential amp.        0.1326 Ry
        Total length         55.1515 bohr
 
 
     Adding external electric field

     Computed dipole along edir(3) : 
        Dipole               -1.9640 Ry au,         -4.9921 Debye
        Dipole field         -0.0012 Ry au, 
 
        Potential amp.        0.1326 Ry
        Total length         55.1515 bohr
 

     total cpu time spent up to now is      307.9 secs

     total energy              =   -7738.22103395 Ry
     estimated scf accuracy    <       3.44510910 Ry

     total magnetization       =    85.29 Bohr mag/cell
     absolute magnetization    =    87.25 Bohr mag/cell

     iteration # 20     ecut=    50.00 Ry     beta= 0.50
     Davidson diagonalization with overlap
     ethr =  1.32E-04,  avg # of iterations =  1.5

     negative rho (up, down):  3.008E-02 4.366E-02
 
     Adding external electric field

     Computed dipole along edir(3) : 
        Dipole               -1.7367 Ry au,         -4.4143 Debye
        Dipole field         -0.0011 Ry au, 
 
        Potential amp.        0.1173 Ry
        Total length         55.1515 bohr
 
 
     Adding external electric field

     Computed dipole along edir(3) : 
        Dipole               -1.7367 Ry au,         -4.4143 Debye
        Dipole field         -0.0011 Ry au, 
 
        Potential amp.        0.1173 Ry
        Total length         55.1515 bohr
 

     total cpu time spent up to now is      321.6 secs

     total energy              =   -7738.26000083 Ry
     estimated scf accuracy    <       1.69260009 Ry

     total magnetization       =    85.91 Bohr mag/cell
     absolute magnetization    =    86.90 Bohr mag/cell

     iteration # 21     ecut=    50.00 Ry     beta= 0.50
     Davidson diagonalization with overlap
     ethr =  1.32E-04,  avg # of iterations =  2.0

     negative rho (up, down):  1.267E-02 1.770E-02
 
     Adding external electric field

     Computed dipole along edir(3) : 
        Dipole               -1.7725 Ry au,         -4.5052 Debye
        Dipole field         -0.0011 Ry au, 
 
        Potential amp.        0.1197 Ry
        Total length         55.1515 bohr
 
 
     Adding external electric field

     Computed dipole along edir(3) : 
        Dipole               -1.7725 Ry au,         -4.5052 Debye
        Dipole field         -0.0011 Ry au, 
 
        Potential amp.        0.1197 Ry
        Total length         55.1515 bohr
 

     total cpu time spent up to now is      335.5 secs

     total energy              =   -7738.29587451 Ry
     estimated scf accuracy    <       0.68525223 Ry

     total magnetization       =    86.74 Bohr mag/cell
     absolute magnetization    =    87.71 Bohr mag/cell

     iteration # 22     ecut=    50.00 Ry     beta= 0.50
     Davidson diagonalization with overlap
     ethr =  6.27E-05,  avg # of iterations =  2.0

     negative rho (up, down):  2.626E-03 3.929E-03
 
     Adding external electric field

     Computed dipole along edir(3) : 
        Dipole               -1.8250 Ry au,         -4.6388 Debye
        Dipole field         -0.0011 Ry au, 
 
        Potential amp.        0.1232 Ry
        Total length         55.1515 bohr
 
 
     Adding external electric field

     Computed dipole along edir(3) : 
        Dipole               -1.8250 Ry au,         -4.6388 Debye
        Dipole field         -0.0011 Ry au, 
 
        Potential amp.        0.1232 Ry
        Total length         55.1515 bohr
 

     total cpu time spent up to now is      349.6 secs

     total energy              =   -7738.31059784 Ry
     estimated scf accuracy    <       0.39181335 Ry

     total magnetization       =    88.51 Bohr mag/cell
     absolute magnetization    =    89.59 Bohr mag/cell

     iteration # 23     ecut=    50.00 Ry     beta= 0.50
     Davidson diagonalization with overlap
     ethr =  3.58E-05,  avg # of iterations = 18.5

     negative rho (up, down):  3.095E-05 9.190E-05
 
     Adding external electric field

     Computed dipole along edir(3) : 
        Dipole               -1.8409 Ry au,         -4.6790 Debye
        Dipole field         -0.0011 Ry au, 
 
        Potential amp.        0.1243 Ry
        Total length         55.1515 bohr
 
 
     Adding external electric field

     Computed dipole along edir(3) : 
        Dipole               -1.8409 Ry au,         -4.6790 Debye
        Dipole field         -0.0011 Ry au, 
 
        Potential amp.        0.1243 Ry
        Total length         55.1515 bohr
 

     total cpu time spent up to now is      381.3 secs

     total energy              =   -7738.32218608 Ry
     estimated scf accuracy    <       0.21180074 Ry

     total magnetization       =    88.51 Bohr mag/cell
     absolute magnetization    =    89.77 Bohr mag/cell

     iteration # 24     ecut=    50.00 Ry     beta= 0.50
     Davidson diagonalization with overlap
     ethr =  1.94E-05,  avg # of iterations = 13.0
 
     Adding external electric field

     Computed dipole along edir(3) : 
        Dipole               -1.7198 Ry au,         -4.3712 Debye
        Dipole field         -0.0011 Ry au, 
 
        Potential amp.        0.1161 Ry
        Total length         55.1515 bohr
 
 
     Adding external electric field

     Computed dipole along edir(3) : 
        Dipole               -1.7198 Ry au,         -4.3712 Debye
        Dipole field         -0.0011 Ry au, 
 
        Potential amp.        0.1161 Ry
        Total length         55.1515 bohr
 

     total cpu time spent up to now is      410.7 secs

     total energy              =   -7738.32714076 Ry
     estimated scf accuracy    <       0.09459396 Ry

     total magnetization       =    89.05 Bohr mag/cell
     absolute magnetization    =    90.42 Bohr mag/cell

     iteration # 25     ecut=    50.00 Ry     beta= 0.50
     Davidson diagonalization with overlap
     ethr =  8.65E-06,  avg # of iterations = 12.5
 
     Adding external electric field

     Computed dipole along edir(3) : 
        Dipole               -1.6937 Ry au,         -4.3049 Debye
        Dipole field         -0.0010 Ry au, 
 
        Potential amp.        0.1144 Ry
        Total length         55.1515 bohr
 
 
     Adding external electric field

     Computed dipole along edir(3) : 
        Dipole               -1.6937 Ry au,         -4.3049 Debye
        Dipole field         -0.0010 Ry au, 
 
        Potential amp.        0.1144 Ry
        Total length         55.1515 bohr
 

     total cpu time spent up to now is      437.0 secs

     total energy              =   -7738.32891166 Ry
     estimated scf accuracy    <       0.08963056 Ry

     total magnetization       =    88.65 Bohr mag/cell
     absolute magnetization    =    90.06 Bohr mag/cell

     iteration # 26     ecut=    50.00 Ry     beta= 0.50
     Davidson diagonalization with overlap
     ethr =  8.20E-06,  avg # of iterations =  2.0
 
     Adding external electric field

     Computed dipole along edir(3) : 
        Dipole               -1.6705 Ry au,         -4.2460 Debye
        Dipole field         -0.0010 Ry au, 
 
        Potential amp.        0.1128 Ry
        Total length         55.1515 bohr
 
 
     Adding external electric field

     Computed dipole along edir(3) : 
        Dipole               -1.6705 Ry au,         -4.2460 Debye
        Dipole field         -0.0010 Ry au, 
 
        Potential amp.        0.1128 Ry
        Total length         55.1515 bohr
 

     total cpu time spent up to now is      451.3 secs

     total energy              =   -7738.32815823 Ry
     estimated scf accuracy    <       0.09622547 Ry

     total magnetization       =    89.12 Bohr mag/cell
     absolute magnetization    =    90.55 Bohr mag/cell

     iteration # 27     ecut=    50.00 Ry     beta= 0.50
     Davidson diagonalization with overlap
     ethr =  8.20E-06,  avg # of iterations =  1.5
 
     Adding external electric field

     Computed dipole along edir(3) : 
        Dipole               -1.6582 Ry au,         -4.2147 Debye
        Dipole field         -0.0010 Ry au, 
 
        Potential amp.        0.1120 Ry
        Total length         55.1515 bohr
 
 
     Adding external electric field

     Computed dipole along edir(3) : 
        Dipole               -1.6582 Ry au,         -4.2147 Debye
        Dipole field         -0.0010 Ry au, 
 
        Potential amp.        0.1120 Ry
        Total length         55.1515 bohr
 

     total cpu time spent up to now is      464.5 secs

     total energy              =   -7738.32610141 Ry
     estimated scf accuracy    <       0.14027873 Ry

     total magnetization       =    88.68 Bohr mag/cell
     absolute magnetization    =    90.11 Bohr mag/cell

     iteration # 28     ecut=    50.00 Ry     beta= 0.50
     Davidson diagonalization with overlap
     ethr =  8.20E-06,  avg # of iterations =  2.0
 
     Adding external electric field

     Computed dipole along edir(3) : 
        Dipole               -1.6007 Ry au,         -4.0685 Debye
        Dipole field         -0.0010 Ry au, 
 
        Potential amp.        0.1081 Ry
        Total length         55.1515 bohr
 
 
     Adding external electric field

     Computed dipole along edir(3) : 
        Dipole               -1.6007 Ry au,         -4.0685 Debye
        Dipole field         -0.0010 Ry au, 
 
        Potential amp.        0.1081 Ry
        Total length         55.1515 bohr
 

     total cpu time spent up to now is      478.8 secs

     total energy              =   -7738.32789483 Ry
     estimated scf accuracy    <       0.06663125 Ry

     total magnetization       =    88.78 Bohr mag/cell
     absolute magnetization    =    90.21 Bohr mag/cell

     iteration # 29     ecut=    50.00 Ry     beta= 0.50
     Davidson diagonalization with overlap
     ethr =  6.10E-06,  avg # of iterations =  2.0
 
     Adding external electric field

     Computed dipole along edir(3) : 
        Dipole               -1.6517 Ry au,         -4.1982 Debye
        Dipole field         -0.0010 Ry au, 
 
        Potential amp.        0.1115 Ry
        Total length         55.1515 bohr
 
 
     Adding external electric field

     Computed dipole along edir(3) : 
        Dipole               -1.6517 Ry au,         -4.1982 Debye
        Dipole field         -0.0010 Ry au, 
 
        Potential amp.        0.1115 Ry
        Total length         55.1515 bohr
 

     total cpu time spent up to now is      492.7 secs

     total energy              =   -7738.32838340 Ry
     estimated scf accuracy    <       0.14402096 Ry

     total magnetization       =    88.80 Bohr mag/cell
     absolute magnetization    =    90.23 Bohr mag/cell

     iteration # 30     ecut=    50.00 Ry     beta= 0.50
     Davidson diagonalization with overlap
     ethr =  6.10E-06,  avg # of iterations =  1.5
 
     Adding external electric field

     Computed dipole along edir(3) : 
        Dipole               -1.6448 Ry au,         -4.1808 Debye
        Dipole field         -0.0010 Ry au, 
 
        Potential amp.        0.1111 Ry
        Total length         55.1515 bohr
 
 
     Adding external electric field

     Computed dipole along edir(3) : 
        Dipole               -1.6448 Ry au,         -4.1808 Debye
        Dipole field         -0.0010 Ry au, 
 
        Potential amp.        0.1111 Ry
        Total length         55.1515 bohr
 

     total cpu time spent up to now is      506.2 secs

     total energy              =   -7738.32887123 Ry
     estimated scf accuracy    <       0.13089859 Ry

     total magnetization       =    88.78 Bohr mag/cell
     absolute magnetization    =    90.18 Bohr mag/cell

     iteration # 31     ecut=    50.00 Ry     beta= 0.50
     Davidson diagonalization with overlap
     ethr =  6.10E-06,  avg # of iterations =  2.0
 
     Adding external electric field

     Computed dipole along edir(3) : 
        Dipole               -1.6308 Ry au,         -4.1451 Debye
        Dipole field         -0.0010 Ry au, 
 
        Potential amp.        0.1101 Ry
        Total length         55.1515 bohr
 
 
     Adding external electric field

     Computed dipole along edir(3) : 
        Dipole               -1.6308 Ry au,         -4.1451 Debye
        Dipole field         -0.0010 Ry au, 
 
        Potential amp.        0.1101 Ry
        Total length         55.1515 bohr
 

     total cpu time spent up to now is      521.2 secs

     total energy              =   -7738.32904590 Ry
     estimated scf accuracy    <       0.15362110 Ry

     total magnetization       =    88.75 Bohr mag/cell
     absolute magnetization    =    90.17 Bohr mag/cell

     iteration # 32     ecut=    50.00 Ry     beta= 0.50
     Davidson diagonalization with overlap
     ethr =  6.10E-06,  avg # of iterations =  1.0

     negative rho (up, down):  2.004E-07 8.970E-07
 
     Adding external electric field

     Computed dipole along edir(3) : 
        Dipole               -1.6652 Ry au,         -4.2324 Debye
        Dipole field         -0.0010 Ry au, 
 
        Potential amp.        0.1124 Ry
        Total length         55.1515 bohr
 
 
     Adding external electric field

     Computed dipole along edir(3) : 
        Dipole               -1.6652 Ry au,         -4.2324 Debye
        Dipole field         -0.0010 Ry au, 
 
        Potential amp.        0.1124 Ry
        Total length         55.1515 bohr
 

     total cpu time spent up to now is      534.5 secs

     total energy              =   -7738.32818362 Ry
     estimated scf accuracy    <       0.18561514 Ry

     total magnetization       =    88.63 Bohr mag/cell
     absolute magnetization    =    90.04 Bohr mag/cell

     iteration # 33     ecut=    50.00 Ry     beta= 0.50
     Davidson diagonalization with overlap
     ethr =  6.10E-06,  avg # of iterations =  2.0
 
     Adding external electric field

     Computed dipole along edir(3) : 
        Dipole               -1.6364 Ry au,         -4.1594 Debye
        Dipole field         -0.0010 Ry au, 
 
        Potential amp.        0.1105 Ry
        Total length         55.1515 bohr
 
 
     Adding external electric field

     Computed dipole along edir(3) : 
        Dipole               -1.6364 Ry au,         -4.1594 Debye
        Dipole field         -0.0010 Ry au, 
 
        Potential amp.        0.1105 Ry
        Total length         55.1515 bohr
 

     total cpu time spent up to now is      549.4 secs

     total energy              =   -7738.32899199 Ry
     estimated scf accuracy    <       0.14099033 Ry

     total magnetization       =    88.84 Bohr mag/cell
     absolute magnetization    =    90.22 Bohr mag/cell

     iteration # 34     ecut=    50.00 Ry     beta= 0.50
     Davidson diagonalization with overlap
     ethr =  6.10E-06,  avg # of iterations =  1.0

     negative rho (up, down):  2.076E-07 2.892E-07
 
     Adding external electric field

     Computed dipole along edir(3) : 
        Dipole               -1.6134 Ry au,         -4.1008 Debye
        Dipole field         -0.0010 Ry au, 
 
        Potential amp.        0.1089 Ry
        Total length         55.1515 bohr
 
 
     Adding external electric field

     Computed dipole along edir(3) : 
        Dipole               -1.6134 Ry au,         -4.1008 Debye
        Dipole field         -0.0010 Ry au, 
 
        Potential amp.        0.1089 Ry
        Total length         55.1515 bohr
 

     total cpu time spent up to now is      562.3 secs

     total energy              =   -7738.32749840 Ry
     estimated scf accuracy    <       0.15894941 Ry

     total magnetization       =    88.81 Bohr mag/cell
     absolute magnetization    =    90.20 Bohr mag/cell

     iteration # 35     ecut=    50.00 Ry     beta= 0.50
     Davidson diagonalization with overlap
     ethr =  6.10E-06,  avg # of iterations =  2.0

     negative rho (up, down):  1.826E-05 2.395E-05
 
     Adding external electric field

     Computed dipole along edir(3) : 
        Dipole               -1.6294 Ry au,         -4.1415 Debye
        Dipole field         -0.0010 Ry au, 
 
        Potential amp.        0.1100 Ry
        Total length         55.1515 bohr
 
 
     Adding external electric field

     Computed dipole along edir(3) : 
        Dipole               -1.6294 Ry au,         -4.1415 Debye
        Dipole field         -0.0010 Ry au, 
 
        Potential amp.        0.1100 Ry
        Total length         55.1515 bohr
 

     total cpu time spent up to now is      577.9 secs

     total energy              =   -7738.32670009 Ry
     estimated scf accuracy    <       0.20589790 Ry

     total magnetization       =    88.56 Bohr mag/cell
     absolute magnetization    =    89.96 Bohr mag/cell

     iteration # 36     ecut=    50.00 Ry     beta= 0.50
     Davidson diagonalization with overlap
     ethr =  6.10E-06,  avg # of iterations =  2.0

     negative rho (up, down):  3.223E-05 5.491E-05
 
     Adding external electric field

     Computed dipole along edir(3) : 
        Dipole               -1.5901 Ry au,         -4.0417 Debye
        Dipole field         -0.0010 Ry au, 
 
        Potential amp.        0.1074 Ry
        Total length         55.1515 bohr
 
 
     Adding external electric field

     Computed dipole along edir(3) : 
        Dipole               -1.5901 Ry au,         -4.0417 Debye
        Dipole field         -0.0010 Ry au, 
 
        Potential amp.        0.1074 Ry
        Total length         55.1515 bohr
 

     total cpu time spent up to now is      592.9 secs

     total energy              =   -7738.32659011 Ry
     estimated scf accuracy    <       0.26552378 Ry

     total magnetization       =    88.66 Bohr mag/cell
     absolute magnetization    =    90.05 Bohr mag/cell

     iteration # 37     ecut=    50.00 Ry     beta= 0.50
     Davidson diagonalization with overlap
     ethr =  6.10E-06,  avg # of iterations =  2.0

     negative rho (up, down):  1.007E-03 8.686E-04
 
     Adding external electric field

     Computed dipole along edir(3) : 
        Dipole               -1.5808 Ry au,         -4.0180 Debye
        Dipole field         -0.0010 Ry au, 
 
        Potential amp.        0.1067 Ry
        Total length         55.1515 bohr
 
 
     Adding external electric field

     Computed dipole along edir(3) : 
        Dipole               -1.5808 Ry au,         -4.0180 Debye
        Dipole field         -0.0010 Ry au, 
 
        Potential amp.        0.1067 Ry
        Total length         55.1515 bohr
 

     total cpu time spent up to now is      607.3 secs

     total energy              =   -7738.32428591 Ry
     estimated scf accuracy    <       0.39150389 Ry

     total magnetization       =    88.29 Bohr mag/cell
     absolute magnetization    =    89.68 Bohr mag/cell

     iteration # 38     ecut=    50.00 Ry     beta= 0.50
     Davidson diagonalization with overlap
     ethr =  6.10E-06,  avg # of iterations =  4.5

     negative rho (up, down):  2.345E-05 3.649E-05
 
     Adding external electric field

     Computed dipole along edir(3) : 
        Dipole               -1.6192 Ry au,         -4.1157 Debye
        Dipole field         -0.0010 Ry au, 
 
        Potential amp.        0.1093 Ry
        Total length         55.1515 bohr
 
 
     Adding external electric field

     Computed dipole along edir(3) : 
        Dipole               -1.6192 Ry au,         -4.1157 Debye
        Dipole field         -0.0010 Ry au, 
 
        Potential amp.        0.1093 Ry
        Total length         55.1515 bohr
 

     total cpu time spent up to now is      623.0 secs

     total energy              =   -7738.32579850 Ry
     estimated scf accuracy    <       0.39779313 Ry

     total magnetization       =    88.59 Bohr mag/cell
     absolute magnetization    =    89.97 Bohr mag/cell

     iteration # 39     ecut=    50.00 Ry     beta= 0.50
     Davidson diagonalization with overlap
     ethr =  6.10E-06,  avg # of iterations =  2.0

     negative rho (up, down):  8.840E-04 1.201E-03
 
     Adding external electric field

     Computed dipole along edir(3) : 
        Dipole               -1.6319 Ry au,         -4.1479 Debye
        Dipole field         -0.0010 Ry au, 
 
        Potential amp.        0.1102 Ry
        Total length         55.1515 bohr
 
 
     Adding external electric field

     Computed dipole along edir(3) : 
        Dipole               -1.6319 Ry au,         -4.1479 Debye
        Dipole field         -0.0010 Ry au, 
 
        Potential amp.        0.1102 Ry
        Total length         55.1515 bohr
 

     total cpu time spent up to now is      637.6 secs

     total energy              =   -7738.32516899 Ry
     estimated scf accuracy    <       0.19759190 Ry

     total magnetization       =    88.83 Bohr mag/cell
     absolute magnetization    =    90.20 Bohr mag/cell

     iteration # 40     ecut=    50.00 Ry     beta= 0.50
     Davidson diagonalization with overlap
     ethr =  6.10E-06,  avg # of iterations =  2.0

     negative rho (up, down):  4.774E-04 8.625E-04
 
     Adding external electric field

     Computed dipole along edir(3) : 
        Dipole               -1.5964 Ry au,         -4.0576 Debye
        Dipole field         -0.0010 Ry au, 
 
        Potential amp.        0.1078 Ry
        Total length         55.1515 bohr
 
 
     Adding external electric field

     Computed dipole along edir(3) : 
        Dipole               -1.5964 Ry au,         -4.0576 Debye
        Dipole field         -0.0010 Ry au, 
 
        Potential amp.        0.1078 Ry
        Total length         55.1515 bohr
 

     total cpu time spent up to now is      652.3 secs

     total energy              =   -7738.32581003 Ry
     estimated scf accuracy    <       0.34479347 Ry

     total magnetization       =    88.67 Bohr mag/cell
     absolute magnetization    =    90.01 Bohr mag/cell

     iteration # 41     ecut=    50.00 Ry     beta= 0.50
     Davidson diagonalization with overlap
     ethr =  6.10E-06,  avg # of iterations =  2.0

     negative rho (up, down):  5.763E-04 1.046E-03
 
     Adding external electric field

     Computed dipole along edir(3) : 
        Dipole               -1.5784 Ry au,         -4.0120 Debye
        Dipole field         -0.0010 Ry au, 
 
        Potential amp.        0.1066 Ry
        Total length         55.1515 bohr
 
 
     Adding external electric field

     Computed dipole along edir(3) : 
        Dipole               -1.5784 Ry au,         -4.0120 Debye
        Dipole field         -0.0010 Ry au, 
 
        Potential amp.        0.1066 Ry
        Total length         55.1515 bohr
 

     total cpu time spent up to now is      666.6 secs

     total energy              =   -7738.32493987 Ry
     estimated scf accuracy    <       0.35187137 Ry

     total magnetization       =    88.45 Bohr mag/cell
     absolute magnetization    =    89.79 Bohr mag/cell

     iteration # 42     ecut=    50.00 Ry     beta= 0.50
     Davidson diagonalization with overlap
     ethr =  6.10E-06,  avg # of iterations =  2.0

     negative rho (up, down):  8.801E-08 2.204E-07
 
     Adding external electric field

     Computed dipole along edir(3) : 
        Dipole               -1.5253 Ry au,         -3.8768 Debye
        Dipole field         -0.0009 Ry au, 
 
        Potential amp.        0.1030 Ry
        Total length         55.1515 bohr
 
 
     Adding external electric field

     Computed dipole along edir(3) : 
        Dipole               -1.5253 Ry au,         -3.8768 Debye
        Dipole field         -0.0009 Ry au, 
 
        Potential amp.        0.1030 Ry
        Total length         55.1515 bohr
 

     total cpu time spent up to now is      680.9 secs

     total energy              =   -7738.32947044 Ry
     estimated scf accuracy    <       0.33859930 Ry

     total magnetization       =    88.58 Bohr mag/cell
     absolute magnetization    =    89.91 Bohr mag/cell

     iteration # 43     ecut=    50.00 Ry     beta= 0.50
     Davidson diagonalization with overlap
     c_bands:  5 eigenvalues not converged
     ethr =  6.10E-06,  avg # of iterations = 12.0
 
     Adding external electric field

     Computed dipole along edir(3) : 
        Dipole               -1.5246 Ry au,         -3.8752 Debye
        Dipole field         -0.0009 Ry au, 
 
        Potential amp.        0.1029 Ry
        Total length         55.1515 bohr
 
 
     Adding external electric field

     Computed dipole along edir(3) : 
        Dipole               -1.5246 Ry au,         -3.8752 Debye
        Dipole field         -0.0009 Ry au, 
 
        Potential amp.        0.1029 Ry
        Total length         55.1515 bohr
 

     total cpu time spent up to now is      702.3 secs

     total energy              =   -7738.33050149 Ry
     estimated scf accuracy    <       0.07351777 Ry

     total magnetization       =    88.41 Bohr mag/cell
     absolute magnetization    =    89.81 Bohr mag/cell

     iteration # 44     ecut=    50.00 Ry     beta= 0.50
     Davidson diagonalization with overlap
     ethr =  6.10E-06,  avg # of iterations =  9.5
 
     Adding external electric field

     Computed dipole along edir(3) : 
        Dipole               -1.5020 Ry au,         -3.8178 Debye
        Dipole field         -0.0009 Ry au, 
 
        Potential amp.        0.1014 Ry
        Total length         55.1515 bohr
 
 
     Adding external electric field

     Computed dipole along edir(3) : 
        Dipole               -1.5020 Ry au,         -3.8178 Debye
        Dipole field         -0.0009 Ry au, 
 
        Potential amp.        0.1014 Ry
        Total length         55.1515 bohr
 

     total cpu time spent up to now is      720.4 secs

     total energy              =   -7738.33147136 Ry
     estimated scf accuracy    <       0.08879485 Ry

     total magnetization       =    88.67 Bohr mag/cell
     absolute magnetization    =    90.06 Bohr mag/cell

     iteration # 45     ecut=    50.00 Ry     beta= 0.50
     Davidson diagonalization with overlap
     ethr =  6.10E-06,  avg # of iterations =  1.5
 
     Adding external electric field

     Computed dipole along edir(3) : 
        Dipole               -1.5087 Ry au,         -3.8348 Debye
        Dipole field         -0.0009 Ry au, 
 
        Potential amp.        0.1019 Ry
        Total length         55.1515 bohr
 
 
     Adding external electric field

     Computed dipole along edir(3) : 
        Dipole               -1.5087 Ry au,         -3.8348 Debye
        Dipole field         -0.0009 Ry au, 
 
        Potential amp.        0.1019 Ry
        Total length         55.1515 bohr
 

     total cpu time spent up to now is      733.2 secs

     total energy              =   -7738.33226201 Ry
     estimated scf accuracy    <       0.09991892 Ry

     total magnetization       =    88.68 Bohr mag/cell
     absolute magnetization    =    90.07 Bohr mag/cell

     iteration # 46     ecut=    50.00 Ry     beta= 0.50
     Davidson diagonalization with overlap
     ethr =  6.10E-06,  avg # of iterations =  2.0
 
     Adding external electric field

     Computed dipole along edir(3) : 
        Dipole               -1.4488 Ry au,         -3.6824 Debye
        Dipole field         -0.0009 Ry au, 
 
        Potential amp.        0.0978 Ry
        Total length         55.1515 bohr
 
 
     Adding external electric field

     Computed dipole along edir(3) : 
        Dipole               -1.4488 Ry au,         -3.6824 Debye
        Dipole field         -0.0009 Ry au, 
 
        Potential amp.        0.0978 Ry
        Total length         55.1515 bohr
 

     total cpu time spent up to now is      746.3 secs

     total energy              =   -7738.33243520 Ry
     estimated scf accuracy    <       0.09708688 Ry

     total magnetization       =    88.64 Bohr mag/cell
     absolute magnetization    =    90.03 Bohr mag/cell

     iteration # 47     ecut=    50.00 Ry     beta= 0.50
     Davidson diagonalization with overlap
     ethr =  6.10E-06,  avg # of iterations =  2.0
 
     Adding external electric field

     Computed dipole along edir(3) : 
        Dipole               -1.4202 Ry au,         -3.6098 Debye
        Dipole field         -0.0009 Ry au, 
 
        Potential amp.        0.0959 Ry
        Total length         55.1515 bohr
 
 
     Adding external electric field

     Computed dipole along edir(3) : 
        Dipole               -1.4202 Ry au,         -3.6098 Debye
        Dipole field         -0.0009 Ry au, 
 
        Potential amp.        0.0959 Ry
        Total length         55.1515 bohr
 

     total cpu time spent up to now is      760.0 secs

     total energy              =   -7738.33356977 Ry
     estimated scf accuracy    <       0.08361092 Ry

     total magnetization       =    88.78 Bohr mag/cell
     absolute magnetization    =    90.17 Bohr mag/cell

     iteration # 48     ecut=    50.00 Ry     beta= 0.50
     Davidson diagonalization with overlap
     ethr =  6.10E-06,  avg # of iterations =  2.0
 
     Adding external electric field

     Computed dipole along edir(3) : 
        Dipole               -1.3717 Ry au,         -3.4864 Debye
        Dipole field         -0.0008 Ry au, 
 
        Potential amp.        0.0926 Ry
        Total length         55.1515 bohr
 
 
     Adding external electric field

     Computed dipole along edir(3) : 
        Dipole               -1.3717 Ry au,         -3.4864 Debye
        Dipole field         -0.0008 Ry au, 
 
        Potential amp.        0.0926 Ry
        Total length         55.1515 bohr
 

     total cpu time spent up to now is      774.5 secs

     total energy              =   -7738.33466394 Ry
     estimated scf accuracy    <       0.06378890 Ry

     total magnetization       =    88.81 Bohr mag/cell
     absolute magnetization    =    90.21 Bohr mag/cell

     iteration # 49     ecut=    50.00 Ry     beta= 0.50
     Davidson diagonalization with overlap
     ethr =  5.84E-06,  avg # of iterations =  3.5
 
     Adding external electric field

     Computed dipole along edir(3) : 
        Dipole               -1.3427 Ry au,         -3.4128 Debye
        Dipole field         -0.0008 Ry au, 
 
        Potential amp.        0.0907 Ry
        Total length         55.1515 bohr
 
 
     Adding external electric field

     Computed dipole along edir(3) : 
        Dipole               -1.3427 Ry au,         -3.4128 Debye
        Dipole field         -0.0008 Ry au, 
 
        Potential amp.        0.0907 Ry
        Total length         55.1515 bohr
 

     total cpu time spent up to now is      789.3 secs

     total energy              =   -7738.33311149 Ry
     estimated scf accuracy    <       0.05256018 Ry

     total magnetization       =    88.65 Bohr mag/cell
     absolute magnetization    =    90.06 Bohr mag/cell

     iteration # 50     ecut=    50.00 Ry     beta= 0.50
     Davidson diagonalization with overlap
     ethr =  4.81E-06,  avg # of iterations =  2.0
 
     Adding external electric field

     Computed dipole along edir(3) : 
        Dipole               -1.2753 Ry au,         -3.2416 Debye
        Dipole field         -0.0008 Ry au, 
 
        Potential amp.        0.0861 Ry
        Total length         55.1515 bohr
 
 
     Adding external electric field

     Computed dipole along edir(3) : 
        Dipole               -1.2753 Ry au,         -3.2416 Debye
        Dipole field         -0.0008 Ry au, 
 
        Potential amp.        0.0861 Ry
        Total length         55.1515 bohr
 

     total cpu time spent up to now is      802.8 secs

     total energy              =   -7738.33350657 Ry
     estimated scf accuracy    <       0.06359927 Ry

     total magnetization       =    88.68 Bohr mag/cell
     absolute magnetization    =    90.07 Bohr mag/cell

     iteration # 51     ecut=    50.00 Ry     beta= 0.50
     Davidson diagonalization with overlap
     ethr =  4.81E-06,  avg # of iterations =  2.0
 
     Adding external electric field

     Computed dipole along edir(3) : 
        Dipole               -1.2733 Ry au,         -3.2364 Debye
        Dipole field         -0.0008 Ry au, 
 
        Potential amp.        0.0860 Ry
        Total length         55.1515 bohr
 
 
     Adding external electric field

     Computed dipole along edir(3) : 
        Dipole               -1.2733 Ry au,         -3.2364 Debye
        Dipole field         -0.0008 Ry au, 
 
        Potential amp.        0.0860 Ry
        Total length         55.1515 bohr
 

     total cpu time spent up to now is      816.1 secs

     total energy              =   -7738.33445156 Ry
     estimated scf accuracy    <       0.06663775 Ry

     total magnetization       =    88.76 Bohr mag/cell
     absolute magnetization    =    90.15 Bohr mag/cell

     iteration # 52     ecut=    50.00 Ry     beta= 0.50
     Davidson diagonalization with overlap
     ethr =  4.81E-06,  avg # of iterations =  2.0
 
     Adding external electric field

     Computed dipole along edir(3) : 
        Dipole               -1.3358 Ry au,         -3.3954 Debye
        Dipole field         -0.0008 Ry au, 
 
        Potential amp.        0.0902 Ry
        Total length         55.1515 bohr
 
 
     Adding external electric field

     Computed dipole along edir(3) : 
        Dipole               -1.3358 Ry au,         -3.3954 Debye
        Dipole field         -0.0008 Ry au, 
 
        Potential amp.        0.0902 Ry
        Total length         55.1515 bohr
 

     total cpu time spent up to now is      829.6 secs

     total energy              =   -7738.33436666 Ry
     estimated scf accuracy    <       0.05863934 Ry

     total magnetization       =    88.77 Bohr mag/cell
     absolute magnetization    =    90.17 Bohr mag/cell

     iteration # 53     ecut=    50.00 Ry     beta= 0.50
     Davidson diagonalization with overlap
     ethr =  4.81E-06,  avg # of iterations =  2.0
 
     Adding external electric field

     Computed dipole along edir(3) : 
        Dipole               -1.3371 Ry au,         -3.3984 Debye
        Dipole field         -0.0008 Ry au, 
 
        Potential amp.        0.0903 Ry
        Total length         55.1515 bohr
 
 
     Adding external electric field

     Computed dipole along edir(3) : 
        Dipole               -1.3371 Ry au,         -3.3984 Debye
        Dipole field         -0.0008 Ry au, 
 
        Potential amp.        0.0903 Ry
        Total length         55.1515 bohr
 

     total cpu time spent up to now is      843.2 secs

     total energy              =   -7738.33393169 Ry
     estimated scf accuracy    <       0.06398676 Ry

     total magnetization       =    88.77 Bohr mag/cell
     absolute magnetization    =    90.17 Bohr mag/cell

     iteration # 54     ecut=    50.00 Ry     beta= 0.50
     Davidson diagonalization with overlap
     ethr =  4.81E-06,  avg # of iterations =  2.0
 
     Adding external electric field

     Computed dipole along edir(3) : 
        Dipole               -1.3594 Ry au,         -3.4552 Debye
        Dipole field         -0.0008 Ry au, 
 
        Potential amp.        0.0918 Ry
        Total length         55.1515 bohr
 
 
     Adding external electric field

     Computed dipole along edir(3) : 
        Dipole               -1.3594 Ry au,         -3.4552 Debye
        Dipole field         -0.0008 Ry au, 
 
        Potential amp.        0.0918 Ry
        Total length         55.1515 bohr
 

     total cpu time spent up to now is      857.1 secs

     total energy              =   -7738.33146572 Ry
     estimated scf accuracy    <       0.06211869 Ry

     total magnetization       =    88.76 Bohr mag/cell
     absolute magnetization    =    90.15 Bohr mag/cell

     iteration # 55     ecut=    50.00 Ry     beta= 0.50
     Davidson diagonalization with overlap
     ethr =  4.81E-06,  avg # of iterations =  1.5
 
     Adding external electric field

     Computed dipole along edir(3) : 
        Dipole               -1.3797 Ry au,         -3.5070 Debye
        Dipole field         -0.0008 Ry au, 
 
        Potential amp.        0.0932 Ry
        Total length         55.1515 bohr
 
 
     Adding external electric field

     Computed dipole along edir(3) : 
        Dipole               -1.3797 Ry au,         -3.5070 Debye
        Dipole field         -0.0008 Ry au, 
 
        Potential amp.        0.0932 Ry
        Total length         55.1515 bohr
 

     total cpu time spent up to now is      869.9 secs

     total energy              =   -7738.33002188 Ry
     estimated scf accuracy    <       0.05816900 Ry

     total magnetization       =    88.86 Bohr mag/cell
     absolute magnetization    =    90.24 Bohr mag/cell

     iteration # 56     ecut=    50.00 Ry     beta= 0.50
     Davidson diagonalization with overlap
     ethr =  4.81E-06,  avg # of iterations =  2.0

     negative rho (up, down):  4.175E-06 1.164E-05
 
     Adding external electric field

     Computed dipole along edir(3) : 
        Dipole               -1.4022 Ry au,         -3.5641 Debye
        Dipole field         -0.0009 Ry au, 
 
        Potential amp.        0.0947 Ry
        Total length         55.1515 bohr
 
 
     Adding external electric field

     Computed dipole along edir(3) : 
        Dipole               -1.4022 Ry au,         -3.5641 Debye
        Dipole field         -0.0009 Ry au, 
 
        Potential amp.        0.0947 Ry
        Total length         55.1515 bohr
 

     total cpu time spent up to now is      883.2 secs

     total energy              =   -7738.32749392 Ry
     estimated scf accuracy    <       0.06030584 Ry

     total magnetization       =    88.75 Bohr mag/cell
     absolute magnetization    =    90.13 Bohr mag/cell

     iteration # 57     ecut=    50.00 Ry     beta= 0.50
     Davidson diagonalization with overlap
     ethr =  4.81E-06,  avg # of iterations =  2.5

     negative rho (up, down):  7.189E-07 1.574E-06
 
     Adding external electric field

     Computed dipole along edir(3) : 
        Dipole               -1.2424 Ry au,         -3.1580 Debye
        Dipole field         -0.0008 Ry au, 
 
        Potential amp.        0.0839 Ry
        Total length         55.1515 bohr
 
 
     Adding external electric field

     Computed dipole along edir(3) : 
        Dipole               -1.2424 Ry au,         -3.1580 Debye
        Dipole field         -0.0008 Ry au, 
 
        Potential amp.        0.0839 Ry
        Total length         55.1515 bohr
 

     total cpu time spent up to now is      897.3 secs

     total energy              =   -7738.32574357 Ry
     estimated scf accuracy    <       0.06743041 Ry

     total magnetization       =    88.85 Bohr mag/cell
     absolute magnetization    =    90.23 Bohr mag/cell

     iteration # 58     ecut=    50.00 Ry     beta= 0.50
     Davidson diagonalization with overlap
     ethr =  4.81E-06,  avg # of iterations =  2.5

     negative rho (up, down):  4.362E-08 4.556E-08
 
     Adding external electric field

     Computed dipole along edir(3) : 
        Dipole               -1.0105 Ry au,         -2.5684 Debye
        Dipole field         -0.0006 Ry au, 
 
        Potential amp.        0.0682 Ry
        Total length         55.1515 bohr
 
 
     Adding external electric field

     Computed dipole along edir(3) : 
        Dipole               -1.0105 Ry au,         -2.5684 Debye
        Dipole field         -0.0006 Ry au, 
 
        Potential amp.        0.0682 Ry
        Total length         55.1515 bohr
 

     total cpu time spent up to now is      911.2 secs

     total energy              =   -7738.32441606 Ry
     estimated scf accuracy    <       0.07213437 Ry

     total magnetization       =    88.93 Bohr mag/cell
     absolute magnetization    =    90.30 Bohr mag/cell

     iteration # 59     ecut=    50.00 Ry     beta= 0.50
     Davidson diagonalization with overlap
     ethr =  4.81E-06,  avg # of iterations =  2.0

     negative rho (up, down):  1.673E-06 1.750E-06
 
     Adding external electric field

     Computed dipole along edir(3) : 
        Dipole               -0.8509 Ry au,         -2.1628 Debye
        Dipole field         -0.0005 Ry au, 
 
        Potential amp.        0.0575 Ry
        Total length         55.1515 bohr
 
 
     Adding external electric field

     Computed dipole along edir(3) : 
[...]
    -5.9693  -5.9380  -5.9291  -5.9062  -5.8850  -5.8768  -5.8640  -5.8401
    -5.8253  -5.7785  -5.7498  -5.7398  -5.7271  -5.6930  -5.6679  -5.6521
    -5.6383  -5.6281  -5.5848  -5.5671  -5.5619  -5.5446  -5.5365  -5.5244
    -5.5140  -5.4867  -5.4736  -5.4423  -5.3994  -5.3647  -5.3308  -5.3147
    -5.2793  -5.2600  -5.2336  -5.1633  -5.1454  -5.1410  -5.1251  -5.1027
    -5.0636  -5.0100  -4.9634  -4.9355  -4.8974  -4.8880  -4.8585  -4.8461
    -4.8192  -4.7920  -4.7803  -4.7404  -4.7233  -4.6907  -4.6369  -4.6017
    -4.5417  -4.4728  -4.4407  -4.4214  -4.4014  -4.3901  -4.3647  -4.3512
    -4.3270  -4.2781  -4.2527  -4.2414  -4.2034  -4.1898  -4.1076  -4.1031
    -4.0868  -4.0436  -4.0371  -4.0173  -3.9549  -3.9314  -3.9186  -3.8788
    -3.8565  -3.8198  -3.8106  -3.7932  -3.7735  -3.7417  -3.7045  -3.6928
    -3.6858  -3.6686  -3.6585  -3.5860  -3.5765  -3.5750  -3.5602  -3.5440
    -3.5327  -3.5155  -3.5062  -3.4811  -3.4474  -3.4415  -3.4271  -3.4058
    -3.3838  -3.3731  -3.3689  -3.3535  -3.3371  -3.3052  -3.2852  -3.2563
    -3.2446  -3.2122  -3.1908  -3.1676  -3.1437  -3.1168  -3.0997  -3.0819
    -3.0738  -3.0631  -3.0524  -3.0342  -3.0179  -3.0008  -2.9849  -2.9368
    -2.9248  -2.9131  -2.9011  -2.8896  -2.8682  -2.8455  -2.8118  -2.7891
    -2.7846  -2.7590  -2.7514  -2.7272  -2.7209  -2.7128  -2.7071  -2.6935
    -2.6726  -2.6654  -2.6616  -2.6365  -2.6270  -2.6143  -2.6062  -2.5785
    -2.5725  -2.5723  -2.5375  -2.5256  -2.5055  -2.4821  -2.4702  -2.4579
    -2.4515  -2.4099  -2.4019  -2.3713  -2.3560  -2.3429  -2.3156  -2.2792
    -2.2737  -2.2686  -2.2240  -2.2101  -2.1876  -2.1755  -2.1518  -2.1393
    -2.1075  -2.0862  -2.0708  -2.0665  -2.0504  -2.0375  -2.0267  -2.0210
    -1.9943  -1.9508  -1.9373  -1.9175  -1.9055  -1.8880  -1.8826  -1.8655
    -1.8385  -1.8331  -1.8284  -1.8209  -1.7914  -1.7144  -1.7075  -1.6775
    -1.6705  -1.6514  -1.6328  -1.6269  -1.6150  -1.6058  -1.5888  -1.5801
    -1.5509  -1.5481  -1.5019  -1.4891  -1.4639  -1.4539  -1.4477  -1.4220
    -1.4027  -1.3923  -1.3827  -1.3618  -1.3570  -1.3303  -1.3047  -1.2964
    -1.2320  -1.2239  -1.1710  -1.1476  -1.1317  -1.1304  -1.0942  -1.0566
    -1.0342  -0.9938  -0.9277  -0.8583  -0.7280  -0.7175  -0.6262  -0.5729
    -0.5221  -0.5080  -0.3555  -0.2306   0.1805   0.2162   0.2384   0.2483
     0.2984   0.3095   0.3214   0.3304   0.3476   0.3593   0.3671   0.3702
     0.3776   0.3875   0.3998   0.4011   0.4057   0.4162   0.4206   0.4275
     0.4357   0.4406   0.4639   0.4667   0.4772   0.4841   0.4902   0.4935
     0.4988   0.4992   0.5099   0.5164   0.5236   0.5335   0.5379   0.5399
     0.5423   0.5659   0.5698   0.5743   0.5980   0.6008   0.6172   0.6203
     0.6271   0.6351   0.6441   0.6475   0.6538   0.6637   0.6652   0.6795
     0.6826   0.6860   0.7000   0.7051   0.7147   0.7161   0.7217   0.7342
     0.7437   0.7511   0.7663   0.7671   0.7784   0.7853   0.7941   0.8101
     0.8117   0.8281   0.8499   0.8578   0.8646   0.8684   0.8711   0.8782
     0.8851   0.9051   0.9100   0.9152   0.9218   0.9536   0.9676   0.9824
     0.9875   1.0359   1.0850   1.1131   1.1240   1.6876   1.7367   1.7485
     1.7756   1.8013   1.8121   1.8184   1.8242   1.8425   1.9103   1.9206
     1.9348   1.9716   1.9816   2.0070   2.0425   2.0471   2.0861   2.0924
     2.1382   2.1450   2.1751   2.1921   2.1969   2.2005   2.2116   2.2350
     2.2440   2.2761   2.2861   2.3057   2.3140   2.3259   2.3448   2.3580
     2.3735   2.3821   2.3877   2.4089   2.4177   2.4225   2.4404   2.4906
     2.5280   2.5330   2.5401   2.5492   2.5540   2.5786   2.5968   2.6173
     2.6626   2.6815   2.6996   2.7078   2.7280   2.8031   2.8058   2.8724
     2.8762   2.8905   3.7083   3.7218   3.7258   3.7843   3.7872   3.7987
     3.9070   3.9338   3.9596   3.9603   3.9834   4.0012   4.0123   4.0388
     4.0546   4.0610   4.1464   4.1486   4.1606   4.1820   4.6613   4.7176
     4.7961   4.8576   4.8842   4.9137   4.9384   4.9701   5.0434   5.0981
     5.1187   5.1489   5.4253   6.2434   6.3753   6.6146   6.6589   6.7604
     6.8105   6.8868   6.8917   6.9225   7.0228   7.0828   7.0926   7.1354
     7.2670   7.3484   7.3557   7.4359   7.4820   7.5355   7.5877   7.6327
     7.6398   7.6802   7.7371   7.7611   7.8102   7.8846   7.9024   7.9095
     8.0167   8.0287   8.0656   8.0918   8.1149   8.1790   8.1899   8.2096
     8.2641   8.2859   8.3041   8.3333   8.3800   8.4262   8.4303   8.4499
     8.4670   8.4793   8.4972   8.5268   8.5557   8.5739   8.6001   8.6223
     8.6653   8.6849   8.7237   8.7508   8.7695   8.7805   8.8302   8.8394

     the Fermi energy is     1.6610 ev

!    total energy              =   -7738.31681969 Ry
     estimated scf accuracy    <       0.00000043 Ry
     smearing contrib. (-TS)   =      -0.02220378 Ry
     internal energy E=F+TS    =   -7738.29461591 Ry

     The total energy is F=E-TS. E is the sum of the following terms:
     one-electron contribution =  -94718.73871149 Ry
     hartree contribution      =   47976.63264221 Ry
     xc contribution           =   -2218.71801182 Ry
     ewald contribution        =   41224.33694502 Ry
     Dispersion Correction     =      -1.80753632 Ry
     electric field correction =       0.00005649 Ry

     total magnetization       =    88.65 Bohr mag/cell
     absolute magnetization    =    90.03 Bohr mag/cell

     convergence has been achieved in  80 iterations

     negative rho (up, down):  1.053E-03 5.886E-04

     Forces acting on atoms (cartesian axes, Ry/au):

     atom    1 type  1   force =     0.00005954    0.00072432    0.00007554
     atom    2 type  2   force =     0.00031793    0.00005977   -0.00042403
     atom    3 type  1   force =     0.00034687    0.00060284   -0.00049850
     atom    4 type  1   force =    -0.00031934   -0.00023905    0.00047430
     atom    5 type  1   force =     0.00077456    0.00009942   -0.00020977
     atom    6 type  1   force =    -0.00000937    0.00010771   -0.00055309
     atom    7 type  3   force =    -0.00043989    0.00009229    0.00043411
     atom    8 type  3   force =     0.00008761   -0.00048039   -0.00000568
     atom    9 type  3   force =    -0.00051133   -0.00062303   -0.00022956
     atom   10 type  3   force =     0.00012294   -0.00009163   -0.00025074
     atom   11 type  4   force =    -0.00063560   -0.00000144    0.00024581
     atom   12 type  4   force =     0.00002090   -0.00027814    0.00048431
     atom   13 type  4   force =    -0.00067359   -0.00037338    0.00081678
     atom   14 type  4   force =     0.00037435    0.00003242   -0.00010752
     atom   15 type  4   force =     0.00048275    0.00012691    0.00017196
     atom   16 type  4   force =     0.00005542    0.00018832   -0.00002989
     atom   17 type  4   force =     0.00000098    0.00027550    0.00067659
     atom   18 type  4   force =     0.00006049    0.00012491   -0.00007967
     atom   19 type  4   force =    -0.00040332    0.00022284   -0.00007166
     atom   20 type  4   force =    -0.00004310    0.00051763   -0.00028986
     atom   21 type  4   force =     0.00017145   -0.00029314    0.00021163
     atom   22 type  4   force =    -0.00013317   -0.00007119    0.00048760
     atom   23 type  4   force =    -0.00048583    0.00017045    0.00028078
     atom   24 type  4   force =     0.00090541   -0.00025315   -0.00065459
     atom   25 type  4   force =     0.00051634   -0.00041914   -0.00077360
     atom   26 type  4   force =     0.00001049    0.00023333    0.00048002
     atom   27 type  1   force =    -0.00647689   -0.00821108   -0.00378654
     atom   28 type  2   force =    -0.01208025    0.00013104   -0.00188423
     atom   29 type  1   force =     0.00428480   -0.00267846    0.00338254
     atom   30 type  1   force =     0.00243420    0.00396464   -0.00170547
     atom   31 type  1   force =     0.00183398   -0.00487524   -0.00028870
     atom   32 type  1   force =    -0.00125489    0.00119603    0.00189332
     atom   33 type  3   force =    -0.00710889   -0.00083836   -0.00047062
     atom   34 type  3   force =    -0.00621736    0.00320760   -0.00202678
     atom   35 type  3   force =     0.00408598   -0.00003172   -0.00415321
     atom   36 type  3   force =     0.00104921   -0.00131907    0.00295058
     atom   37 type  4   force =     0.00874250    0.00534584   -0.00770554
     atom   38 type  4   force =     0.00363769   -0.00105786    0.02075702
     atom   39 type  4   force =    -0.00115062    0.00364706    0.01017043
     atom   40 type  4   force =    -0.00161231   -0.00230992   -0.00886988
     atom   41 type  4   force =     0.00209993    0.00858045    0.00657203
     atom   42 type  4   force =    -0.00679029   -0.00317763   -0.01948799
     atom   43 type  4   force =     0.00943238    0.00730706   -0.00651934
     atom   44 type  4   force =     0.00722945   -0.00304755    0.00604731
     atom   45 type  4   force =     0.00227178    0.00586887   -0.00059370
     atom   46 type  4   force =     0.00334586    0.00100104    0.00500087
     atom   47 type  4   force =    -0.01320071    0.00022480    0.00331908
     atom   48 type  4   force =    -0.01446808    0.00255972   -0.00334408
     atom   49 type  4   force =     0.01308878    0.00289461   -0.00439507
     atom   50 type  4   force =    -0.00408407   -0.00388991    0.00000630
     atom   51 type  4   force =    -0.00439313    0.00265114   -0.00064230
     atom   52 type  4   force =     0.01628229   -0.00321864    0.00422548
     atom   53 type  1   force =    -0.00754760   -0.00703838   -0.00834587
     atom   54 type  2   force =     0.01575888    0.01728026   -0.00962381
     atom   55 type  1   force =     0.00577329   -0.00492057   -0.00576522
     atom   56 type  1   force =    -0.02054344    0.01927123    0.02011666
     atom   57 type  1   force =     0.00444059   -0.00754248   -0.00124756
     atom   58 type  1   force =    -0.00390477   -0.00538662   -0.00076226
     atom   59 type  3   force =    -0.03903369   -0.03835060   -0.05607367
     atom   60 type  3   force =    -0.00486483   -0.00126892   -0.00120361
     atom   61 type  3   force =     0.00272945   -0.00100950   -0.01017363
     atom   62 type  3   force =     0.02908666   -0.04950734   -0.06062708
     atom   63 type  4   force =     0.00625006    0.00348203    0.02100321
     atom   64 type  4   force =     0.00446801    0.00234667    0.01452814
     atom   65 type  4   force =    -0.00067215    0.00294471    0.01270904
     atom   66 type  4   force =     0.00017139    0.00209412    0.01622450
     atom   67 type  4   force =     0.00101987   -0.00071049    0.03891767
     atom   68 type  4   force =    -0.00568587   -0.00392754   -0.01718707
     atom   69 type  4   force =     0.00780387    0.00448210   -0.00261832
     atom   70 type  4   force =     0.00179630   -0.00744293    0.03521658
     atom   71 type  4   force =    -0.00905746    0.03926306    0.00091623
     atom   72 type  4   force =     0.00228089   -0.00046242    0.00793674
     atom   73 type  4   force =    -0.03021074    0.00086946    0.00762756
     atom   74 type  4   force =    -0.01351183    0.00142997   -0.00042420
     atom   75 type  4   force =     0.01197693    0.00349259   -0.00250867
     atom   76 type  4   force =    -0.00241817   -0.00291542    0.00257149
     atom   77 type  4   force =     0.00913930    0.02587349   -0.00258459
     atom   78 type  4   force =     0.03360377   -0.00637130    0.00616198
     atom   79 type  1   force =    -0.00017273    0.00052534   -0.00035978
     atom   80 type  2   force =     0.00020220   -0.00022890   -0.00023849
     atom   81 type  1   force =     0.00029511    0.00008011   -0.00021269
     atom   82 type  1   force =    -0.00034019    0.00011522    0.00043910
     atom   83 type  1   force =     0.00097166    0.00000695    0.00016716
     atom   84 type  1   force =    -0.00055297   -0.00017417   -0.00081403
     atom   85 type  3   force =    -0.00035276   -0.00009479    0.00027755
     atom   86 type  3   force =    -0.00020060   -0.00000703    0.00005146
     atom   87 type  3   force =     0.00017726    0.00008989    0.00039891
     atom   88 type  3   force =     0.00064656    0.00010007   -0.00033946
     atom   89 type  4   force =    -0.00056800   -0.00033623    0.00019361
     atom   90 type  4   force =     0.00063239    0.00030259    0.00015550
     atom   91 type  4   force =    -0.00047615    0.00034582    0.00074799
     atom   92 type  4   force =     0.00007906    0.00041459   -0.00007001
     atom   93 type  4   force =     0.00012552    0.00067343   -0.00016033
     atom   94 type  4   force =     0.00004926    0.00057341    0.00012527
     atom   95 type  4   force =    -0.00016191    0.00059563    0.00041575
     atom   96 type  4   force =     0.00004357    0.00046337   -0.00003748
     atom   97 type  4   force =    -0.00076657    0.00015638   -0.00050316
     atom   98 type  4   force =    -0.00027277    0.00018087   -0.00015937
     atom   99 type  4   force =     0.00073029    0.00012627   -0.00004009
     atom  100 type  4   force =    -0.00004544    0.00039660    0.00010017
     atom  101 type  4   force =     0.00022857   -0.00007881   -0.00044118
     atom  102 type  4   force =     0.00067718   -0.00042748   -0.00056016
     atom  103 type  4   force =     0.00060253   -0.00012137   -0.00047136
     atom  104 type  4   force =    -0.00043847   -0.00009522    0.00069082
     atom  105 type  1   force =    -0.00577122   -0.00892846   -0.00414405
     atom  106 type  2   force =    -0.01217388    0.00011603   -0.00176196
     atom  107 type  1   force =     0.00282030   -0.00404789    0.00054331
     atom  108 type  1   force =     0.00238806    0.00387879   -0.00166984
     atom  109 type  1   force =     0.00177806   -0.00489394   -0.00024802
     atom  110 type  1   force =    -0.00090470    0.00119163    0.00198114
     atom  111 type  3   force =    -0.00707470   -0.00081742   -0.00051285
     atom  112 type  3   force =    -0.00680452    0.00249512   -0.00025712
     atom  113 type  3   force =     0.00400695   -0.00063401   -0.00545216
     atom  114 type  3   force =     0.00114409   -0.00127130    0.00286162
     atom  115 type  4   force =     0.00872536    0.00508414   -0.00764120
     atom  116 type  4   force =     0.00360355   -0.00108912    0.02030607
     atom  117 type  4   force =    -0.00126691    0.00348699    0.01024727
     atom  118 type  4   force =    -0.00156663   -0.00239317   -0.00897449
     atom  119 type  4   force =     0.00214826    0.00854033    0.00644383
     atom  120 type  4   force =    -0.00544421   -0.00357353   -0.01971230
     atom  121 type  4   force =     0.00976430    0.00655739   -0.00846264
     atom  122 type  4   force =     0.00704278   -0.00302909    0.00604574
     atom  123 type  4   force =     0.00203973    0.00588557   -0.00056477
     atom  124 type  4   force =     0.00308108    0.00144470    0.00506643
     atom  125 type  4   force =    -0.01307768    0.00019915    0.00324639
     atom  126 type  4   force =    -0.01444965    0.00263453   -0.00350487
     atom  127 type  4   force =     0.01240768    0.00263518   -0.00461211
     atom  128 type  4   force =    -0.00399730   -0.00402176   -0.00043837
     atom  129 type  4   force =    -0.00437795    0.00260746   -0.00054627
     atom  130 type  4   force =     0.01634455   -0.00322556    0.00419421
     atom  131 type  1   force =    -0.00755599   -0.00703376   -0.00831424
     atom  132 type  2   force =     0.01579395    0.01727630   -0.00964310
     atom  133 type  1   force =     0.00578898   -0.00491229   -0.00574050
     atom  134 type  1   force =    -0.02055364    0.01927935    0.02014515
     atom  135 type  1   force =     0.00446544   -0.00753740   -0.00124345
     atom  136 type  1   force =    -0.00389063   -0.00534996   -0.00072672
     atom  137 type  3   force =    -0.03903197   -0.03834375   -0.05608171
     atom  138 type  3   force =    -0.00486176   -0.00127078   -0.00119278
     atom  139 type  3   force =     0.00271631   -0.00101131   -0.01018430
     atom  140 type  3   force =     0.02909321   -0.04950735   -0.06061958
     atom  141 type  4   force =     0.00618646    0.00350076    0.02108416
     atom  142 type  4   force =     0.00438233    0.00235388    0.01454818
     atom  143 type  4   force =    -0.00057373    0.00284913    0.01277225
     atom  144 type  4   force =     0.00020031    0.00219507    0.01646129
     atom  145 type  4   force =     0.00116882   -0.00071265    0.03890367
     atom  146 type  4   force =    -0.00545772   -0.00392284   -0.01720365
     atom  147 type  4   force =     0.00778328    0.00453236   -0.00278631
     atom  148 type  4   force =     0.00167475   -0.00748297    0.03523570
     atom  149 type  4   force =    -0.00925702    0.03927177    0.00091522
     atom  150 type  4   force =     0.00206818   -0.00045693    0.00794231
     atom  151 type  4   force =    -0.03009359    0.00089375    0.00762841
     atom  152 type  4   force =    -0.01360517    0.00143122   -0.00042161
     atom  153 type  4   force =     0.01213530    0.00360775   -0.00251413
     atom  154 type  4   force =    -0.00245922   -0.00280200    0.00248826
     atom  155 type  4   force =     0.00901169    0.02589241   -0.00264414
     atom  156 type  4   force =     0.03358294   -0.00618995    0.00599747
     atom  157 type  4   force =     0.00643968   -0.00539331    0.00097373
     atom  158 type  5   force =    -0.00713278    0.00607456   -0.00146530

     Total force =     0.237453     Total SCF correction =     0.002639
 
     init_run     :      7.62s CPU      8.35s WALL (       1 calls)
     electrons    :   1221.88s CPU   1278.60s WALL (       1 calls)
     forces       :      4.51s CPU      4.87s WALL (       1 calls)
     force_london :      0.10s CPU      0.10s WALL (       1 calls)

     Called by init_run:
     wfcinit      :      4.67s CPU      4.86s WALL (       1 calls)
     potinit      :      0.48s CPU      0.69s WALL (       1 calls)
     hinit0       :      1.14s CPU      1.26s WALL (       1 calls)

     Called by electrons:
     c_bands      :    982.28s CPU   1014.36s WALL (      80 calls)
     sum_band     :    151.96s CPU    165.02s WALL (      80 calls)
     v_of_rho     :     20.61s CPU     21.64s WALL (      81 calls)
     newd         :     44.36s CPU     54.83s WALL (      81 calls)
     mix_rho      :     21.42s CPU     21.68s WALL (      80 calls)
     energy_londo :      0.09s CPU      0.09s WALL (       1 calls)

     Called by c_bands:
     init_us_2    :      2.49s CPU      2.59s WALL (     324 calls)
     init_us_2:cp :      2.49s CPU      2.59s WALL (     324 calls)
     regterg      :    965.35s CPU    996.54s WALL (     163 calls)

     Called by *egterg:
     rdiaghg      :    335.81s CPU    352.54s WALL (     777 calls)
     h_psi        :    341.23s CPU    346.92s WALL (     779 calls)
     s_psi        :     57.03s CPU     57.07s WALL (     779 calls)
     g_psi        :      0.41s CPU      0.41s WALL (     614 calls)

     Called by h_psi:
     h_psi:calbec :     86.60s CPU     91.42s WALL (     779 calls)
     vloc_psi     :    195.29s CPU    196.08s WALL (     779 calls)
     add_vuspsi   :     58.48s CPU     58.56s WALL (     779 calls)

     General routines
     calbec       :    127.59s CPU    134.79s WALL (     947 calls)
     fft          :     28.04s CPU     29.76s WALL (    1471 calls)
     ffts         :     13.06s CPU     13.10s WALL (    9779 calls)
     fftw         :    221.21s CPU    222.06s WALL (  275498 calls)
     interpolate  :      1.69s CPU      1.80s WALL (     162 calls)
 
     Parallel routines
 
     PWSCF        :  20m35.88s CPU  21m34.09s WALL

 
   This run was terminated on:   0: 5:48  20Nov2025            

=------------------------------------------------------------------------------=
   JOB DONE.
=------------------------------------------------------------------------------=
