
     Program PWSCF v.7.2 starts on 18Nov2025 at  0:42:18 

     This program is part of the open-source Quantum ESPRESSO suite
     for quantum simulation of materials; please cite
         "P. Giannozzi et al., J. Phys.:Condens. Matter 21 395502 (2009);
         "P. Giannozzi et al., J. Phys.:Condens. Matter 29 465901 (2017);
         "P. Giannozzi et al., J. Chem. Phys. 152 154105 (2020);
          URL http://www.quantum-espresso.org", 
     in publications or presentations arising from this work. More details at
     http://www.quantum-espresso.org/quote

     Parallel version (MPI), running on    64 processors

     MPI processes distributed on     4 nodes
     450868 MiB available memory on the printing compute node when the environment starts
 
     Reading input from PWINPUT_atm158_yp

     Current dimensions of program PWSCF are:
     Max number of different atomic species (ntypx) = 10
     Max number of k-points (npk) =  40000
     Max angular momentum in pseudopotentials (lmaxx) =  4
     Presently no symmetry can be used with electric field

     file Ni.pbe-n-rrkjus_psl.1.0.0.UPF: wavefunction(s)  3D renormalized
     file Mn.pbe-spn-rrkjus_psl.0.3.1.UPF: wavefunction(s)  3D renormalized
     file O.pbe-rrkjus.UPF: wavefunction(s)  2S renormalized
     file H.pbe-rrkjus.UPF: wavefunction(s)  1S renormalized

     gamma-point specific algorithms are used
 
     R & G space division:  proc/nbgrp/npool/nimage =      64
     Subspace diagonalization in iterative solution of the eigenvalue problem:
     one sub-group per band group will be used
     custom distributed-memory algorithm (size of sub-group:  7*  7 procs)

 
     Parallelization info
     --------------------
     sticks:   dense  smooth     PW     G-vecs:    dense   smooth      PW
     Min         207      82     20                60552    15302    1896
     Max         210      84     22                60574    15336    1950
     Sum       13325    5345   1333              3876045   980655  122653
 
     Using Slab Decomposition
 


     bravais-lattice index     =            0
     lattice parameter (alat)  =      17.4067  a.u.
     unit-cell volume          =   20529.8182 (a.u.)^3
     number of atoms/cell      =          158
     number of atomic types    =            5
     number of electrons       =      1093.00
     number of Kohn-Sham states=          656
     kinetic-energy cutoff     =      50.0000  Ry
     charge density cutoff     =     500.0000  Ry
     scf convergence threshold =      1.0E-06
     mixing beta               =       0.1000
     number of iterations used =            8  local-TF  mixing
     Exchange-correlation=  SLA  PW   PBE  PBE
                           (   1   4   3   4   0   0   0)

     celldm(1)=  17.406729  celldm(2)=   0.000000  celldm(3)=   0.000000
     celldm(4)=   0.000000  celldm(5)=   0.000000  celldm(6)=   0.000000

     crystal axes: (cart. coord. in units of alat)
               a(1) = (   1.000000   0.000000   0.000000 )  
               a(2) = (  -0.001404   1.105696   0.000000 )  
               a(3) = (   0.000000   0.000000   3.520448 )  

     reciprocal axes: (cart. coord. in units 2 pi/alat)
               b(1) = (  1.000000  0.001270  0.000000 )  
               b(2) = (  0.000000  0.904408  0.000000 )  
               b(3) = (  0.000000  0.000000  0.284055 )  


     PseudoPot. # 1 for Ni read from file:
     ~/PSEUDO/Ni.pbe-n-rrkjus_psl.1.0.0.UPF
     MD5 check sum: Not computed, couldn't open file
     Pseudo is Ultrasoft + core correction, Zval = 10.0
     Generated using "atomic" code by A. Dal Corso  v.5.1.2
     Using radial grid of 1195 points,  6 beta functions with: 
                l(1) =   0
                l(2) =   0
                l(3) =   1
                l(4) =   1
                l(5) =   2
                l(6) =   2
     Q(r) pseudized with 0 coefficients 


     PseudoPot. # 2 for Mn read from file:
     ~/PSEUDO/Mn.pbe-spn-rrkjus_psl.0.3.1.UPF
     MD5 check sum: Not computed, couldn't open file
     Pseudo is Ultrasoft + core correction, Zval = 15.0
     Generated using &quot;atomic&quot; code by A. Dal Corso  v.6.2.2
     Using radial grid of 1187 points,  6 beta functions with: 
                l(1) =   0
                l(2) =   0
                l(3) =   1
                l(4) =   1
                l(5) =   2
                l(6) =   2
     Q(r) pseudized with 0 coefficients 


     PseudoPot. # 3 for P  read from file:
     ~/PSEUDO/P.pbe-n-rrkjus_psl.1.0.0.UPF
     MD5 check sum: Not computed, couldn't open file
     Pseudo is Ultrasoft + core correction, Zval =  5.0
     Generated using "atomic" code by A. Dal Corso  v.5.1
     Using radial grid of 1147 points,  6 beta functions with: 
                l(1) =   0
                l(2) =   0
                l(3) =   1
                l(4) =   1
                l(5) =   2
                l(6) =   2
     Q(r) pseudized with 0 coefficients 


     PseudoPot. # 4 for O  read from file:
     ~/PSEUDO/O.pbe-rrkjus.UPF
     MD5 check sum: Not computed, couldn't open file
     Pseudo is Ultrasoft, Zval =  6.0
     Generated by new atomic code, or converted to UPF format
     Using radial grid of 1269 points,  4 beta functions with: 
                l(1) =   0
                l(2) =   0
                l(3) =   1
                l(4) =   1
     Q(r) pseudized with 0 coefficients 


     PseudoPot. # 5 for H  read from file:
     ~/PSEUDO/H.pbe-rrkjus.UPF
     MD5 check sum: Not computed, couldn't open file
     Pseudo is Ultrasoft, Zval =  1.0
     Generated by new atomic code, or converted to UPF format
     Using radial grid of 1061 points,  2 beta functions with: 
                l(1) =   0
                l(2) =   0
     Q(r) pseudized with 0 coefficients 


     atomic species   valence    mass     pseudopotential
     Ni               10.00    58.69300     Ni( 1.00)
     Mn               15.00    54.93800     Mn( 1.00)
     P                 5.00    30.97300     P ( 1.00)
     O                 6.00    15.99900     O ( 1.00)
     H                 1.00     1.00790     H ( 1.00)

     Starting magnetic structure 
     atomic species   magnetization
     Ni              1.000
     Mn              1.000
     P               1.000
     O               1.000
     H               0.000

     No symmetry found



   Cartesian axes

     site n.     atom                  positions (alat units)
         1        Ni     tau(   1) = (   0.2506570   0.8586301   1.7460606  )
         2        Mn     tau(   2) = (   0.4849727   0.7922569   1.4298438  )
         3        Ni     tau(   3) = (   0.0099166   0.3147980   1.7770697  )
         4        Ni     tau(   4) = (   0.2559633   0.2443239   1.4306739  )
         5        Ni     tau(   5) = (   0.4961466   1.1064648   1.5948314  )
         6        Ni     tau(   6) = (   0.2497854   0.5481636   1.6051322  )
         7        P      tau(   7) = (   0.2072152   1.0031948   1.4309315  )
         8        P      tau(   8) = (   0.4627705   0.6639515   1.7680067  )
         9        P      tau(   9) = (   0.2880368   0.1077753   1.7607118  )
        10        P      tau(  10) = (   0.0387468   0.4409683   1.4352442  )
        11        O      tau(  11) = (   0.1330935   0.9304818   1.5706977  )
        12        O      tau(  12) = (   0.3831504   0.7264978   1.6204600  )
        13        O      tau(  13) = (   0.3628275   0.1744689   1.6127481  )
        14        O      tau(  14) = (   0.1155931   0.3681480   1.5734176  )
        15        O      tau(  15) = (   0.1485558   0.9123257   1.3024039  )
        16        O      tau(  16) = (   0.3999411   0.7624960   1.8844666  )
        17        O      tau(  17) = (   0.3533233   0.2035263   1.8795646  )
        18        O      tau(  18) = (   0.0986482   0.3547482   1.3039728  )
        19        O      tau(  19) = (   0.0982500   0.5998695   1.4410699  )
        20        O      tau(  20) = (   0.3443251   1.0535330   1.7571523  )
        21        O      tau(  21) = (   0.3728385   0.4379153   1.4465920  )
        22        O      tau(  22) = (   0.1208408   0.1132369   1.7503220  )
        23        O      tau(  23) = (   0.1278822   0.6735676   1.7463016  )
        24        O      tau(  24) = (   0.4096499   0.5020876   1.7635143  )
        25        O      tau(  25) = (   0.1476551   0.0545948   1.4347483  )
        26        O      tau(  26) = (   0.3739202   0.9939412   1.4421146  )
        27        Ni     tau(  27) = (   0.2413539   0.8509941   1.1121345  )
        28        Mn     tau(  28) = (   0.4917018   0.7787406   0.7768134  )
        29        Ni     tau(  29) = (   0.0044877   0.2932623   1.1138982  )
        30        Ni     tau(  30) = (   0.2563139   0.2275682   0.7805625  )
        31        Ni     tau(  31) = (   0.4969120   1.0949007   0.9459116  )
        32        Ni     tau(  32) = (   0.2488318   0.5341111   0.9469721  )
        33        P      tau(  33) = (   0.2076029   0.9882917   0.7835381  )
        34        P      tau(  34) = (   0.4577012   0.6460068   1.1076436  )
        35        P      tau(  35) = (   0.2881931   0.0932770   1.1104179  )
        36        P      tau(  36) = (   0.0392916   0.4238898   0.7837243  )
        37        O      tau(  37) = (   0.1306755   0.9148866   0.9233554  )
        38        O      tau(  38) = (   0.3789780   0.7172835   0.9680652  )
        39        O      tau(  39) = (   0.3654852   0.1662865   0.9702638  )
        40        O      tau(  40) = (   0.1163776   0.3546954   0.9254186  )
        41        O      tau(  41) = (   0.1502901   0.8969129   0.6541592  )
        42        O      tau(  42) = (   0.3974525   0.7354243   1.2370031  )
        43        O      tau(  43) = (   0.3483097   0.1789497   1.2412670  )
        44        O      tau(  44) = (   0.0974932   0.3376387   0.6529083  )
        45        O      tau(  45) = (   0.0984699   0.5818903   0.7881021  )
        46        O      tau(  46) = (   0.3459978   1.0405493   1.1018526  )
        47        O      tau(  47) = (   0.3731719   0.4204123   0.7945555  )
        48        O      tau(  48) = (   0.1223503   0.0989699   1.1000566  )
        49        O      tau(  49) = (   0.1235438   0.6536772   1.0980598  )
        50        O      tau(  50) = (   0.4004339   0.4872435   1.1047245  )
        51        O      tau(  51) = (   0.1476543   0.0398268   0.7872561  )
        52        O      tau(  52) = (   0.3728637   0.9843360   0.7931368  )
        53        Ni     tau(  53) = (   0.2406075   0.8410745   0.4603118  )
        54        Mn     tau(  54) = (   0.4909555   0.7688210   0.1249907  )
        55        Ni     tau(  55) = (   0.0037414   0.2833427   0.4620755  )
        56        Ni     tau(  56) = (   0.2555676   0.2176485   0.1287398  )
        57        Ni     tau(  57) = (   0.4961657   1.0849810   0.2940889  )
        58        Ni     tau(  58) = (   0.2480854   0.5241915   0.2951494  )
        59        P      tau(  59) = (   0.2068565   0.9783721   0.1317154  )
        60        P      tau(  60) = (   0.4569549   0.6360871   0.4558210  )
        61        P      tau(  61) = (   0.2874467   0.0833574   0.4585952  )
        62        P      tau(  62) = (   0.0385452   0.4139702   0.1319017  )
        63        O      tau(  63) = (   0.1299291   0.9049669   0.2715327  )
        64        O      tau(  64) = (   0.3782317   0.7073639   0.3162425  )
        65        O      tau(  65) = (   0.3647389   0.1563669   0.3184411  )
        66        O      tau(  66) = (   0.1156313   0.3447757   0.2735959  )
        67        O      tau(  67) = (   0.1495437   0.8869933   0.0023366  )
        68        O      tau(  68) = (   0.3967062   0.7255047   0.5851804  )
        69        O      tau(  69) = (   0.3475634   0.1690300   0.5894443  )
        70        O      tau(  70) = (   0.0967469   0.3277190   0.0010856  )
        71        O      tau(  71) = (   0.0977236   0.5719706   0.1362794  )
        72        O      tau(  72) = (   0.3452514   1.0306297   0.4500300  )
        73        O      tau(  73) = (   0.3724256   0.4104926   0.1427328  )
        74        O      tau(  74) = (   0.1216040   0.0890503   0.4482339  )
        75        O      tau(  75) = (   0.1227974   0.6437575   0.4462371  )
        76        O      tau(  76) = (   0.3996875   0.4773239   0.4529018  )
        77        O      tau(  77) = (   0.1469079   0.0299071   0.1354334  )
        78        O      tau(  78) = (   0.3721173   0.9744163   0.1413141  )
        79        Ni     tau(  79) = (   0.7512968   0.8629757   1.7463792  )
        80        Mn     tau(  80) = (   0.9856283   0.7922987   1.4298132  )
        81        Ni     tau(  81) = (   0.4994156   0.3046718   1.7432553  )
        82        Ni     tau(  82) = (   0.7561331   0.2436078   1.4290244  )
        83        Ni     tau(  83) = (   0.9969098   1.1094576   1.5975923  )
        84        Ni     tau(  84) = (   0.7520413   0.5511724   1.6011549  )
        85        P      tau(  85) = (   0.7080384   1.0032090   1.4301353  )
        86        P      tau(  86) = (   0.9611635   0.6679249   1.7676684  )
        87        P      tau(  87) = (   0.7866251   0.1146576   1.7538485  )
        88        P      tau(  88) = (   0.5392440   0.4429935   1.4323773  )
        89        O      tau(  89) = (   0.6332873   0.9305214   1.5700818  )
        90        O      tau(  90) = (   0.8817828   0.7322621   1.6197895  )
        91        O      tau(  91) = (   0.8630260   0.1746843   1.6073185  )
        92        O      tau(  92) = (   0.6180632   0.3716942   1.5710585  )
        93        O      tau(  93) = (   0.6497195   0.9106468   1.3026397  )
        94        O      tau(  94) = (   0.9019451   0.7695149   1.8836030  )
        95        O      tau(  95) = (   0.8435869   0.2142205   1.8732697  )
        96        O      tau(  96) = (   0.5989220   0.3556149   1.3022932  )
        97        O      tau(  97) = (   0.5988978   0.6014494   1.4382358  )
        98        O      tau(  98) = (   0.8418133   1.0593846   1.7579884  )
        99        O      tau(  99) = (   0.8718788   0.4384067   1.4450747  )
       100        O      tau( 100) = (   0.6185655   0.1172295   1.7419182  )
       101        O      tau( 101) = (   0.6296522   0.6725592   1.7491468  )
       102        O      tau( 102) = (   0.9012154   0.5091499   1.7607365  )
       103        O      tau( 103) = (   0.6461684   0.0538532   1.4316752  )
       104        O      tau( 104) = (   0.8745741   0.9956699   1.4422503  )
       105        Ni     tau( 105) = (   0.7413539   0.8509941   1.1121345  )
       106        Mn     tau( 106) = (   0.9917018   0.7787406   0.7768134  )
       107        Ni     tau( 107) = (   0.5044877   0.2932623   1.1138982  )
       108        Ni     tau( 108) = (   0.7563139   0.2275682   0.7805625  )
       109        Ni     tau( 109) = (   0.9969120   1.0949007   0.9459116  )
       110        Ni     tau( 110) = (   0.7488318   0.5341111   0.9469721  )
       111        P      tau( 111) = (   0.7076029   0.9882917   0.7835381  )
       112        P      tau( 112) = (   0.9577012   0.6460068   1.1076436  )
       113        P      tau( 113) = (   0.7881931   0.0932770   1.1104179  )
       114        P      tau( 114) = (   0.5392916   0.4238898   0.7837243  )
       115        O      tau( 115) = (   0.6306755   0.9148866   0.9233554  )
       116        O      tau( 116) = (   0.8789780   0.7172835   0.9680652  )
       117        O      tau( 117) = (   0.8654852   0.1662865   0.9702638  )
       118        O      tau( 118) = (   0.6163776   0.3546954   0.9254186  )
       119        O      tau( 119) = (   0.6502901   0.8969129   0.6541592  )
       120        O      tau( 120) = (   0.8974525   0.7354243   1.2370031  )
       121        O      tau( 121) = (   0.8483097   0.1789497   1.2412670  )
       122        O      tau( 122) = (   0.5974932   0.3376387   0.6529083  )
       123        O      tau( 123) = (   0.5984699   0.5818903   0.7881021  )
       124        O      tau( 124) = (   0.8459978   1.0405493   1.1018526  )
       125        O      tau( 125) = (   0.8731719   0.4204123   0.7945555  )
       126        O      tau( 126) = (   0.6223503   0.0989699   1.1000566  )
       127        O      tau( 127) = (   0.6235438   0.6536772   1.0980598  )
       128        O      tau( 128) = (   0.9004339   0.4872435   1.1047245  )
       129        O      tau( 129) = (   0.6476543   0.0398268   0.7872561  )
       130        O      tau( 130) = (   0.8728637   0.9843360   0.7931368  )
       131        Ni     tau( 131) = (   0.7406075   0.8410745   0.4603118  )
       132        Mn     tau( 132) = (   0.9909555   0.7688210   0.1249907  )
       133        Ni     tau( 133) = (   0.5037414   0.2833427   0.4620755  )
       134        Ni     tau( 134) = (   0.7555676   0.2176485   0.1287398  )
       135        Ni     tau( 135) = (   0.9961657   1.0849810   0.2940889  )
       136        Ni     tau( 136) = (   0.7480854   0.5241915   0.2951494  )
       137        P      tau( 137) = (   0.7068565   0.9783721   0.1317154  )
       138        P      tau( 138) = (   0.9569549   0.6360871   0.4558210  )
       139        P      tau( 139) = (   0.7874467   0.0833574   0.4585952  )
       140        P      tau( 140) = (   0.5385452   0.4139702   0.1319017  )
       141        O      tau( 141) = (   0.6299291   0.9049669   0.2715327  )
       142        O      tau( 142) = (   0.8782317   0.7073639   0.3162425  )
       143        O      tau( 143) = (   0.8647389   0.1563669   0.3184411  )
       144        O      tau( 144) = (   0.6156313   0.3447757   0.2735959  )
       145        O      tau( 145) = (   0.6495437   0.8869933   0.0023366  )
       146        O      tau( 146) = (   0.8967062   0.7255047   0.5851804  )
       147        O      tau( 147) = (   0.8475634   0.1690300   0.5894443  )
       148        O      tau( 148) = (   0.5967469   0.3277190   0.0010856  )
       149        O      tau( 149) = (   0.5977236   0.5719706   0.1362794  )
       150        O      tau( 150) = (   0.8452514   1.0306297   0.4500300  )
       151        O      tau( 151) = (   0.8724256   0.4104926   0.1427328  )
       152        O      tau( 152) = (   0.6216040   0.0890503   0.4482339  )
       153        O      tau( 153) = (   0.6227974   0.6437575   0.4462371  )
       154        O      tau( 154) = (   0.8996875   0.4773239   0.4529018  )
       155        O      tau( 155) = (   0.6469079   0.0299071   0.1354334  )
       156        O      tau( 156) = (   0.8721173   0.9744163   0.1413141  )
       157        O      tau( 157) = (   0.1278368   0.3974856   1.9116046  )
       158        H      tau( 158) = (   0.2123993   0.3361574   1.9350536  )

     -------------------------------------------------
     Parameters for Dispersion (Grimme-D2) Correction:
     -------------------------------------------------
       atom      VdW radius       C_6     

        Ni         2.952        374.666
        Mn         2.952        374.666
        P          3.222        271.980
        O          2.536         24.284
        H          1.892          4.857

     number of k points=     1  Gaussian smearing, width (Ry)=  0.0100
                       cart. coord. in units 2pi/alat
        k(    1) = (   0.0000000   0.0000000   0.0000000), wk =   1.0000000

     Dense  grid:  1938023 G-vectors     FFT dimensions: ( 125, 144, 450)

     Smooth grid:   490328 G-vectors     FFT dimensions: (  80,  90, 288)

     Estimated max dynamical RAM per process >     326.29 MB

     Estimated total dynamical RAM >      20.39 GB

     Check: negative core charge=   -0.000001
     Generating pointlists ...
     new r_m :   0.0813 (alat units)  1.4151 (a.u.) for type    1
     new r_m :   0.0904 (alat units)  1.5744 (a.u.) for type    2
     new r_m :   0.0681 (alat units)  1.1847 (a.u.) for type    3
     new r_m :   0.0442 (alat units)  0.7687 (a.u.) for type    4
     new r_m :   0.0442 (alat units)  0.7687 (a.u.) for type    5

     Initial potential from superposition of free atoms

     starting charge    1092.8893, renormalised to    1093.0000

     negative rho (up, down):  1.398E-03 4.553E-04
 
     Adding external electric field

     Computed dipole along edir(3) : 
        Dipole                1.6505 Ry au,          4.1952 Debye
        Dipole field          0.0010 Ry au, 
 
        Potential amp.       -0.1114 Ry
        Total length         55.1515 bohr
 
 
     Adding external electric field

     Computed dipole along edir(3) : 
        Dipole                1.6505 Ry au,          4.1952 Debye
        Dipole field          0.0010 Ry au, 
 
        Potential amp.       -0.1114 Ry
        Total length         55.1515 bohr
 
     Starting wfcs are  815 randomized atomic wfcs

     total cpu time spent up to now is       10.7 secs

     Self-consistent Calculation

     iteration #  1     ecut=    50.00 Ry     beta= 0.10
     Davidson diagonalization with overlap
     ethr =  1.00E-02,  avg # of iterations =  6.0

     negative rho (up, down):  3.845E-01 2.684E-06
 
     Adding external electric field

     Computed dipole along edir(3) : 
        Dipole               -3.6846 Ry au,         -9.3653 Debye
        Dipole field         -0.0023 Ry au, 
 
        Potential amp.        0.2488 Ry
        Total length         55.1515 bohr
 
 
     Adding external electric field

     Computed dipole along edir(3) : 
        Dipole               -3.6846 Ry au,         -9.3653 Debye
        Dipole field         -0.0023 Ry au, 
 
        Potential amp.        0.2488 Ry
        Total length         55.1515 bohr
 

     total cpu time spent up to now is       40.5 secs

     total energy              =   -7518.73745852 Ry
     estimated scf accuracy    <     800.62574300 Ry

     total magnetization       =   219.00 Bohr mag/cell
     absolute magnetization    =   307.26 Bohr mag/cell

     iteration #  2     ecut=    50.00 Ry     beta= 0.10
     Davidson diagonalization with overlap
     ethr =  1.00E-02,  avg # of iterations =  2.0

     negative rho (up, down):  3.623E-01 1.569E-06
 
     Adding external electric field

     Computed dipole along edir(3) : 
        Dipole               -2.4809 Ry au,         -6.3058 Debye
        Dipole field         -0.0015 Ry au, 
 
        Potential amp.        0.1675 Ry
        Total length         55.1515 bohr
 
 
     Adding external electric field

     Computed dipole along edir(3) : 
        Dipole               -2.4809 Ry au,         -6.3058 Debye
        Dipole field         -0.0015 Ry au, 
 
        Potential amp.        0.1675 Ry
        Total length         55.1515 bohr
 

     total cpu time spent up to now is       56.9 secs

     total energy              =   -7600.87825983 Ry
     estimated scf accuracy    <     212.14007164 Ry

     total magnetization       =   157.97 Bohr mag/cell
     absolute magnetization    =   206.60 Bohr mag/cell

     iteration #  3     ecut=    50.00 Ry     beta= 0.10
     Davidson diagonalization with overlap
     ethr =  1.00E-02,  avg # of iterations =  1.5

     negative rho (up, down):  3.228E-01 1.411E-06
 
     Adding external electric field

     Computed dipole along edir(3) : 
        Dipole               -2.1267 Ry au,         -5.4055 Debye
        Dipole field         -0.0013 Ry au, 
 
        Potential amp.        0.1436 Ry
        Total length         55.1515 bohr
 
 
     Adding external electric field

     Computed dipole along edir(3) : 
        Dipole               -2.1267 Ry au,         -5.4055 Debye
        Dipole field         -0.0013 Ry au, 
 
        Potential amp.        0.1436 Ry
        Total length         55.1515 bohr
 

     total cpu time spent up to now is       69.2 secs

     total energy              =   -7630.84510004 Ry
     estimated scf accuracy    <     103.43376535 Ry

     total magnetization       =   134.33 Bohr mag/cell
     absolute magnetization    =   185.03 Bohr mag/cell

     iteration #  4     ecut=    50.00 Ry     beta= 0.10
     Davidson diagonalization with overlap
     ethr =  9.46E-03,  avg # of iterations =  1.5

     negative rho (up, down):  2.526E-01 6.086E-07
 
     Adding external electric field

     Computed dipole along edir(3) : 
        Dipole               -1.9740 Ry au,         -5.0174 Debye
        Dipole field         -0.0012 Ry au, 
 
        Potential amp.        0.1333 Ry
        Total length         55.1515 bohr
 
 
     Adding external electric field

     Computed dipole along edir(3) : 
        Dipole               -1.9740 Ry au,         -5.0174 Debye
        Dipole field         -0.0012 Ry au, 
 
        Potential amp.        0.1333 Ry
        Total length         55.1515 bohr
 

     total cpu time spent up to now is       82.2 secs

     total energy              =   -7663.70043973 Ry
     estimated scf accuracy    <      82.40783734 Ry

     total magnetization       =   119.02 Bohr mag/cell
     absolute magnetization    =   170.77 Bohr mag/cell

     iteration #  5     ecut=    50.00 Ry     beta= 0.10
     Davidson diagonalization with overlap
     ethr =  7.54E-03,  avg # of iterations =  1.0

     negative rho (up, down):  3.132E-02 2.091E-07
 
     Adding external electric field

     Computed dipole along edir(3) : 
        Dipole               -1.5776 Ry au,         -4.0099 Debye
        Dipole field         -0.0010 Ry au, 
 
        Potential amp.        0.1065 Ry
        Total length         55.1515 bohr
 
 
     Adding external electric field

     Computed dipole along edir(3) : 
        Dipole               -1.5776 Ry au,         -4.0099 Debye
        Dipole field         -0.0010 Ry au, 
 
        Potential amp.        0.1065 Ry
        Total length         55.1515 bohr
 

     total cpu time spent up to now is       95.1 secs

     total energy              =   -7723.03350152 Ry
     estimated scf accuracy    <      65.66920941 Ry

     total magnetization       =    97.23 Bohr mag/cell
     absolute magnetization    =   152.10 Bohr mag/cell

     iteration #  6     ecut=    50.00 Ry     beta= 0.10
     Davidson diagonalization with overlap
     ethr =  6.01E-03,  avg # of iterations =  1.0

     negative rho (up, down):  6.282E-04 1.137E-03
 
     Adding external electric field

     Computed dipole along edir(3) : 
        Dipole               -1.2282 Ry au,         -3.1218 Debye
        Dipole field         -0.0008 Ry au, 
 
        Potential amp.        0.0829 Ry
        Total length         55.1515 bohr
 
 
     Adding external electric field

     Computed dipole along edir(3) : 
        Dipole               -1.2282 Ry au,         -3.1218 Debye
        Dipole field         -0.0008 Ry au, 
 
        Potential amp.        0.0829 Ry
        Total length         55.1515 bohr
 

     total cpu time spent up to now is      107.2 secs

     total energy              =   -7736.01069555 Ry
     estimated scf accuracy    <      14.35464763 Ry

     total magnetization       =    91.00 Bohr mag/cell
     absolute magnetization    =   124.56 Bohr mag/cell

     iteration #  7     ecut=    50.00 Ry     beta= 0.10
     Davidson diagonalization with overlap
     ethr =  1.31E-03,  avg # of iterations =  6.0

     negative rho (up, down):  6.079E-04 1.125E-03
 
     Adding external electric field

     Computed dipole along edir(3) : 
        Dipole               -1.2255 Ry au,         -3.1149 Debye
        Dipole field         -0.0008 Ry au, 
 
        Potential amp.        0.0827 Ry
        Total length         55.1515 bohr
 
 
     Adding external electric field

     Computed dipole along edir(3) : 
        Dipole               -1.2255 Ry au,         -3.1149 Debye
        Dipole field         -0.0008 Ry au, 
 
        Potential amp.        0.0827 Ry
        Total length         55.1515 bohr
 

     total cpu time spent up to now is      127.8 secs

     total energy              =   -7738.29593761 Ry
     estimated scf accuracy    <      20.41154965 Ry

     total magnetization       =    70.34 Bohr mag/cell
     absolute magnetization    =    87.47 Bohr mag/cell

     iteration #  8     ecut=    50.00 Ry     beta= 0.10
     Davidson diagonalization with overlap
     ethr =  1.31E-03,  avg # of iterations =  1.0

     negative rho (up, down):  5.875E-04 1.077E-03
 
     Adding external electric field

     Computed dipole along edir(3) : 
        Dipole               -1.2132 Ry au,         -3.0837 Debye
        Dipole field         -0.0007 Ry au, 
 
        Potential amp.        0.0819 Ry
        Total length         55.1515 bohr
 
 
     Adding external electric field

     Computed dipole along edir(3) : 
        Dipole               -1.2132 Ry au,         -3.0837 Debye
        Dipole field         -0.0007 Ry au, 
 
        Potential amp.        0.0819 Ry
        Total length         55.1515 bohr
 

     total cpu time spent up to now is      139.7 secs

     total energy              =   -7738.31622898 Ry
     estimated scf accuracy    <      19.64878491 Ry

     total magnetization       =    70.63 Bohr mag/cell
     absolute magnetization    =    87.26 Bohr mag/cell

     iteration #  9     ecut=    50.00 Ry     beta= 0.10
     Davidson diagonalization with overlap
     ethr =  1.31E-03,  avg # of iterations =  1.0

     negative rho (up, down):  5.782E-04 1.319E-03
 
     Adding external electric field

     Computed dipole along edir(3) : 
        Dipole               -1.1230 Ry au,         -2.8545 Debye
        Dipole field         -0.0007 Ry au, 
 
        Potential amp.        0.0758 Ry
        Total length         55.1515 bohr
 
 
     Adding external electric field

     Computed dipole along edir(3) : 
        Dipole               -1.1230 Ry au,         -2.8545 Debye
        Dipole field         -0.0007 Ry au, 
 
        Potential amp.        0.0758 Ry
        Total length         55.1515 bohr
 

     total cpu time spent up to now is      152.1 secs

     total energy              =   -7737.98732274 Ry
     estimated scf accuracy    <      18.84935382 Ry

     total magnetization       =    70.88 Bohr mag/cell
     absolute magnetization    =    87.13 Bohr mag/cell

     iteration # 10     ecut=    50.00 Ry     beta= 0.10
     Davidson diagonalization with overlap
     ethr =  1.31E-03,  avg # of iterations =  1.0

     negative rho (up, down):  1.307E-03 2.294E-03
 
     Adding external electric field

     Computed dipole along edir(3) : 
        Dipole               -1.0974 Ry au,         -2.7893 Debye
        Dipole field         -0.0007 Ry au, 
 
        Potential amp.        0.0741 Ry
        Total length         55.1515 bohr
 
 
     Adding external electric field

     Computed dipole along edir(3) : 
        Dipole               -1.0974 Ry au,         -2.7893 Debye
        Dipole field         -0.0007 Ry au, 
 
        Potential amp.        0.0741 Ry
        Total length         55.1515 bohr
 

     total cpu time spent up to now is      163.5 secs

     total energy              =   -7737.88430663 Ry
     estimated scf accuracy    <      11.43946660 Ry

     total magnetization       =    74.68 Bohr mag/cell
     absolute magnetization    =    88.60 Bohr mag/cell

     iteration # 11     ecut=    50.00 Ry     beta= 0.10
     Davidson diagonalization with overlap
     ethr =  1.05E-03,  avg # of iterations =  1.5

     negative rho (up, down):  3.956E-04 1.337E-03
 
     Adding external electric field

     Computed dipole along edir(3) : 
        Dipole               -1.0982 Ry au,         -2.7913 Debye
        Dipole field         -0.0007 Ry au, 
 
        Potential amp.        0.0741 Ry
        Total length         55.1515 bohr
 
 
     Adding external electric field

     Computed dipole along edir(3) : 
        Dipole               -1.0982 Ry au,         -2.7913 Debye
        Dipole field         -0.0007 Ry au, 
 
        Potential amp.        0.0741 Ry
        Total length         55.1515 bohr
 

     total cpu time spent up to now is      175.9 secs

     total energy              =   -7737.96309257 Ry
     estimated scf accuracy    <       6.40299700 Ry

     total magnetization       =    82.17 Bohr mag/cell
     absolute magnetization    =    93.73 Bohr mag/cell

     iteration # 12     ecut=    50.00 Ry     beta= 0.10
     Davidson diagonalization with overlap
     ethr =  5.86E-04,  avg # of iterations =  1.5

     negative rho (up, down):  2.419E-04 8.707E-04
 
     Adding external electric field

     Computed dipole along edir(3) : 
        Dipole               -1.1719 Ry au,         -2.9787 Debye
        Dipole field         -0.0007 Ry au, 
 
        Potential amp.        0.0791 Ry
        Total length         55.1515 bohr
 
 
     Adding external electric field

     Computed dipole along edir(3) : 
        Dipole               -1.1719 Ry au,         -2.9787 Debye
        Dipole field         -0.0007 Ry au, 
 
        Potential amp.        0.0791 Ry
        Total length         55.1515 bohr
 

     total cpu time spent up to now is      188.2 secs

     total energy              =   -7738.08132329 Ry
     estimated scf accuracy    <       9.59723294 Ry

     total magnetization       =    75.46 Bohr mag/cell
     absolute magnetization    =    87.90 Bohr mag/cell

     iteration # 13     ecut=    50.00 Ry     beta= 0.10
     Davidson diagonalization with overlap
     ethr =  5.86E-04,  avg # of iterations =  1.0

     negative rho (up, down):  6.431E-04 2.492E-03
 
     Adding external electric field

     Computed dipole along edir(3) : 
        Dipole               -1.0359 Ry au,         -2.6329 Debye
        Dipole field         -0.0006 Ry au, 
 
        Potential amp.        0.0699 Ry
        Total length         55.1515 bohr
 
 
     Adding external electric field

     Computed dipole along edir(3) : 
        Dipole               -1.0359 Ry au,         -2.6329 Debye
        Dipole field         -0.0006 Ry au, 
 
        Potential amp.        0.0699 Ry
        Total length         55.1515 bohr
 

     total cpu time spent up to now is      199.2 secs

     total energy              =   -7737.69287032 Ry
     estimated scf accuracy    <      13.53565183 Ry

     total magnetization       =    71.43 Bohr mag/cell
     absolute magnetization    =    84.56 Bohr mag/cell

     iteration # 14     ecut=    50.00 Ry     beta= 0.10
     Davidson diagonalization with overlap
     ethr =  5.86E-04,  avg # of iterations =  1.5

     negative rho (up, down):  3.619E-04 1.240E-03
 
     Adding external electric field

     Computed dipole along edir(3) : 
        Dipole               -1.0801 Ry au,         -2.7454 Debye
        Dipole field         -0.0007 Ry au, 
 
        Potential amp.        0.0729 Ry
        Total length         55.1515 bohr
 
 
     Adding external electric field

     Computed dipole along edir(3) : 
        Dipole               -1.0801 Ry au,         -2.7454 Debye
        Dipole field         -0.0007 Ry au, 
 
        Potential amp.        0.0729 Ry
        Total length         55.1515 bohr
 

     total cpu time spent up to now is      210.8 secs

     total energy              =   -7738.04983868 Ry
     estimated scf accuracy    <       1.79565852 Ry

     total magnetization       =    85.39 Bohr mag/cell
     absolute magnetization    =    94.37 Bohr mag/cell

     iteration # 15     ecut=    50.00 Ry     beta= 0.10
     Davidson diagonalization with overlap
     ethr =  1.64E-04,  avg # of iterations =  2.0

     negative rho (up, down):  1.686E-04 8.976E-04
 
     Adding external electric field

     Computed dipole along edir(3) : 
        Dipole               -1.1089 Ry au,         -2.8186 Debye
        Dipole field         -0.0007 Ry au, 
 
        Potential amp.        0.0749 Ry
        Total length         55.1515 bohr
 
 
     Adding external electric field

     Computed dipole along edir(3) : 
        Dipole               -1.1089 Ry au,         -2.8186 Debye
        Dipole field         -0.0007 Ry au, 
 
        Potential amp.        0.0749 Ry
        Total length         55.1515 bohr
 

     total cpu time spent up to now is      223.6 secs

     total energy              =   -7738.13260830 Ry
     estimated scf accuracy    <       1.26051589 Ry

     total magnetization       =    89.37 Bohr mag/cell
     absolute magnetization    =    95.83 Bohr mag/cell

     iteration # 16     ecut=    50.00 Ry     beta= 0.10
     Davidson diagonalization with overlap
     ethr =  1.15E-04,  avg # of iterations = 11.5

     negative rho (up, down):  1.355E-04 7.624E-04
 
     Adding external electric field

     Computed dipole along edir(3) : 
        Dipole               -1.1505 Ry au,         -2.9243 Debye
        Dipole field         -0.0007 Ry au, 
 
        Potential amp.        0.0777 Ry
        Total length         55.1515 bohr
 
 
     Adding external electric field

     Computed dipole along edir(3) : 
        Dipole               -1.1505 Ry au,         -2.9243 Debye
        Dipole field         -0.0007 Ry au, 
 
        Potential amp.        0.0777 Ry
        Total length         55.1515 bohr
 

     total cpu time spent up to now is      246.3 secs

     total energy              =   -7738.17403527 Ry
     estimated scf accuracy    <       1.34199263 Ry

     total magnetization       =    88.50 Bohr mag/cell
     absolute magnetization    =    94.66 Bohr mag/cell

     iteration # 17     ecut=    50.00 Ry     beta= 0.10
     Davidson diagonalization with overlap
     ethr =  1.15E-04,  avg # of iterations =  1.5

     negative rho (up, down):  1.952E-04 9.381E-04
 
     Adding external electric field

     Computed dipole along edir(3) : 
        Dipole               -1.2330 Ry au,         -3.1339 Debye
        Dipole field         -0.0008 Ry au, 
 
        Potential amp.        0.0832 Ry
        Total length         55.1515 bohr
 
 
     Adding external electric field

     Computed dipole along edir(3) : 
        Dipole               -1.2330 Ry au,         -3.1339 Debye
        Dipole field         -0.0008 Ry au, 
 
        Potential amp.        0.0832 Ry
        Total length         55.1515 bohr
 

     total cpu time spent up to now is      258.4 secs

     total energy              =   -7738.25868547 Ry
     estimated scf accuracy    <       0.87924002 Ry

     total magnetization       =    88.39 Bohr mag/cell
     absolute magnetization    =    93.87 Bohr mag/cell

     iteration # 18     ecut=    50.00 Ry     beta= 0.10
     Davidson diagonalization with overlap
     ethr =  8.04E-05,  avg # of iterations =  2.0

     negative rho (up, down):  7.206E-05 4.462E-04
 
     Adding external electric field

     Computed dipole along edir(3) : 
        Dipole               -1.2851 Ry au,         -3.2664 Debye
        Dipole field         -0.0008 Ry au, 
 
        Potential amp.        0.0868 Ry
        Total length         55.1515 bohr
 
 
     Adding external electric field

     Computed dipole along edir(3) : 
        Dipole               -1.2851 Ry au,         -3.2664 Debye
        Dipole field         -0.0008 Ry au, 
 
        Potential amp.        0.0868 Ry
        Total length         55.1515 bohr
 

     total cpu time spent up to now is      270.6 secs

     total energy              =   -7738.30061637 Ry
     estimated scf accuracy    <       0.46734281 Ry

     total magnetization       =    89.37 Bohr mag/cell
     absolute magnetization    =    92.82 Bohr mag/cell

     iteration # 19     ecut=    50.00 Ry     beta= 0.10
     Davidson diagonalization with overlap
     ethr =  4.28E-05,  avg # of iterations =  2.0

     negative rho (up, down):  7.096E-05 3.668E-04
 
     Adding external electric field

     Computed dipole along edir(3) : 
        Dipole               -1.2640 Ry au,         -3.2129 Debye
        Dipole field         -0.0008 Ry au, 
 
        Potential amp.        0.0853 Ry
        Total length         55.1515 bohr
 
 
     Adding external electric field

     Computed dipole along edir(3) : 
        Dipole               -1.2640 Ry au,         -3.2129 Debye
        Dipole field         -0.0008 Ry au, 
 
        Potential amp.        0.0853 Ry
        Total length         55.1515 bohr
 

     total cpu time spent up to now is      283.1 secs

     total energy              =   -7738.31863296 Ry
     estimated scf accuracy    <       0.34975444 Ry

     total magnetization       =    88.46 Bohr mag/cell
     absolute magnetization    =    90.60 Bohr mag/cell

     iteration # 20     ecut=    50.00 Ry     beta= 0.10
     Davidson diagonalization with overlap
     ethr =  3.20E-05,  avg # of iterations =  1.5

     negative rho (up, down):  7.011E-05 2.123E-04
 
     Adding external electric field

     Computed dipole along edir(3) : 
        Dipole               -1.2449 Ry au,         -3.1641 Debye
        Dipole field         -0.0008 Ry au, 
 
        Potential amp.        0.0840 Ry
        Total length         55.1515 bohr
 
 
     Adding external electric field

     Computed dipole along edir(3) : 
        Dipole               -1.2449 Ry au,         -3.1641 Debye
        Dipole field         -0.0008 Ry au, 
 
        Potential amp.        0.0840 Ry
        Total length         55.1515 bohr
 

     total cpu time spent up to now is      295.1 secs

     total energy              =   -7738.31686792 Ry
     estimated scf accuracy    <       0.23957179 Ry

     total magnetization       =    89.13 Bohr mag/cell
     absolute magnetization    =    91.13 Bohr mag/cell

     iteration # 21     ecut=    50.00 Ry     beta= 0.10
     Davidson diagonalization with overlap
     ethr =  2.19E-05,  avg # of iterations = 12.0

     negative rho (up, down):  1.916E-05 2.453E-05
 
     Adding external electric field

     Computed dipole along edir(3) : 
        Dipole               -1.1562 Ry au,         -2.9387 Debye
        Dipole field         -0.0007 Ry au, 
 
        Potential amp.        0.0781 Ry
        Total length         55.1515 bohr
 
 
     Adding external electric field

     Computed dipole along edir(3) : 
        Dipole               -1.1562 Ry au,         -2.9387 Debye
        Dipole field         -0.0007 Ry au, 
 
        Potential amp.        0.0781 Ry
        Total length         55.1515 bohr
 

     total cpu time spent up to now is      319.3 secs

     total energy              =   -7738.31802843 Ry
     estimated scf accuracy    <       0.30551144 Ry

     total magnetization       =    88.48 Bohr mag/cell
     absolute magnetization    =    90.13 Bohr mag/cell

     iteration # 22     ecut=    50.00 Ry     beta= 0.10
     Davidson diagonalization with overlap
     ethr =  2.19E-05,  avg # of iterations = 12.0

     negative rho (up, down):  1.607E-05 7.360E-06
 
     Adding external electric field

     Computed dipole along edir(3) : 
        Dipole               -1.1076 Ry au,         -2.8151 Debye
        Dipole field         -0.0007 Ry au, 
 
        Potential amp.        0.0748 Ry
        Total length         55.1515 bohr
 
 
     Adding external electric field

     Computed dipole along edir(3) : 
        Dipole               -1.1076 Ry au,         -2.8151 Debye
        Dipole field         -0.0007 Ry au, 
 
        Potential amp.        0.0748 Ry
        Total length         55.1515 bohr
 

     total cpu time spent up to now is      343.6 secs

     total energy              =   -7738.32196710 Ry
     estimated scf accuracy    <       0.05240923 Ry

     total magnetization       =    88.85 Bohr mag/cell
     absolute magnetization    =    90.46 Bohr mag/cell

     iteration # 23     ecut=    50.00 Ry     beta= 0.10
     Davidson diagonalization with overlap
     c_bands:  4 eigenvalues not converged
     ethr =  4.79E-06,  avg # of iterations = 19.5

     negative rho (up, down):  3.506E-05 1.509E-05
 
     Adding external electric field

     Computed dipole along edir(3) : 
        Dipole               -1.0614 Ry au,         -2.6977 Debye
        Dipole field         -0.0006 Ry au, 
 
        Potential amp.        0.0717 Ry
        Total length         55.1515 bohr
 
 
     Adding external electric field

     Computed dipole along edir(3) : 
        Dipole               -1.0614 Ry au,         -2.6977 Debye
        Dipole field         -0.0006 Ry au, 
 
        Potential amp.        0.0717 Ry
        Total length         55.1515 bohr
 

     total cpu time spent up to now is      367.9 secs

     total energy              =   -7738.32125407 Ry
     estimated scf accuracy    <       0.06474901 Ry

     total magnetization       =    88.81 Bohr mag/cell
     absolute magnetization    =    90.36 Bohr mag/cell

     iteration # 24     ecut=    50.00 Ry     beta= 0.10
     Davidson diagonalization with overlap
     ethr =  4.79E-06,  avg # of iterations =  3.0

     negative rho (up, down):  1.267E-04 5.614E-05
 
     Adding external electric field

     Computed dipole along edir(3) : 
        Dipole               -1.0237 Ry au,         -2.6021 Debye
        Dipole field         -0.0006 Ry au, 
 
        Potential amp.        0.0691 Ry
        Total length         55.1515 bohr
 
 
     Adding external electric field

     Computed dipole along edir(3) : 
        Dipole               -1.0237 Ry au,         -2.6021 Debye
        Dipole field         -0.0006 Ry au, 
 
        Potential amp.        0.0691 Ry
        Total length         55.1515 bohr
 

     total cpu time spent up to now is      380.8 secs

     total energy              =   -7738.32037534 Ry
     estimated scf accuracy    <       0.16399021 Ry

     total magnetization       =    89.62 Bohr mag/cell
     absolute magnetization    =    91.03 Bohr mag/cell

     iteration # 25     ecut=    50.00 Ry     beta= 0.10
     Davidson diagonalization with overlap
     c_bands:  1 eigenvalues not converged
     ethr =  4.79E-06,  avg # of iterations = 11.0

     negative rho (up, down):  1.281E-04 5.819E-05
 
     Adding external electric field

     Computed dipole along edir(3) : 
        Dipole               -1.0560 Ry au,         -2.6841 Debye
        Dipole field         -0.0006 Ry au, 
 
        Potential amp.        0.0713 Ry
        Total length         55.1515 bohr
 
 
     Adding external electric field

     Computed dipole along edir(3) : 
        Dipole               -1.0560 Ry au,         -2.6841 Debye
        Dipole field         -0.0006 Ry au, 
 
        Potential amp.        0.0713 Ry
        Total length         55.1515 bohr
 

     total cpu time spent up to now is      397.9 secs

     total energy              =   -7738.32202527 Ry
     estimated scf accuracy    <       0.13888229 Ry

     total magnetization       =    89.29 Bohr mag/cell
     absolute magnetization    =    90.50 Bohr mag/cell

     iteration # 26     ecut=    50.00 Ry     beta= 0.10
     Davidson diagonalization with overlap
     ethr =  4.79E-06,  avg # of iterations =  1.5

     negative rho (up, down):  7.639E-05 2.232E-05
 
     Adding external electric field

     Computed dipole along edir(3) : 
        Dipole               -0.9457 Ry au,         -2.4036 Debye
        Dipole field         -0.0006 Ry au, 
 
        Potential amp.        0.0638 Ry
        Total length         55.1515 bohr
 
 
     Adding external electric field

     Computed dipole along edir(3) : 
        Dipole               -0.9457 Ry au,         -2.4036 Debye
        Dipole field         -0.0006 Ry au, 
 
        Potential amp.        0.0638 Ry
        Total length         55.1515 bohr
 

     total cpu time spent up to now is      410.5 secs

     total energy              =   -7738.32301749 Ry
     estimated scf accuracy    <       0.12279538 Ry

     total magnetization       =    89.29 Bohr mag/cell
     absolute magnetization    =    90.54 Bohr mag/cell

     iteration # 27     ecut=    50.00 Ry     beta= 0.10
     Davidson diagonalization with overlap
     ethr =  4.79E-06,  avg # of iterations =  2.0

     negative rho (up, down):  6.005E-05 2.879E-05
 
     Adding external electric field

     Computed dipole along edir(3) : 
        Dipole               -0.9960 Ry au,         -2.5317 Debye
        Dipole field         -0.0006 Ry au, 
 
        Potential amp.        0.0672 Ry
        Total length         55.1515 bohr
 
 
     Adding external electric field

     Computed dipole along edir(3) : 
        Dipole               -0.9960 Ry au,         -2.5317 Debye
        Dipole field         -0.0006 Ry au, 
 
        Potential amp.        0.0672 Ry
        Total length         55.1515 bohr
 

     total cpu time spent up to now is      423.1 secs

     total energy              =   -7738.32434150 Ry
     estimated scf accuracy    <       0.25672042 Ry

     total magnetization       =    89.49 Bohr mag/cell
     absolute magnetization    =    90.67 Bohr mag/cell

     iteration # 28     ecut=    50.00 Ry     beta= 0.10
     Davidson diagonalization with overlap
     ethr =  4.79E-06,  avg # of iterations =  1.5

     negative rho (up, down):  1.411E-04 1.939E-04
 
     Adding external electric field

     Computed dipole along edir(3) : 
        Dipole               -0.8309 Ry au,         -2.1119 Debye
        Dipole field         -0.0005 Ry au, 
 
        Potential amp.        0.0561 Ry
        Total length         55.1515 bohr
 
 
     Adding external electric field

     Computed dipole along edir(3) : 
        Dipole               -0.8309 Ry au,         -2.1119 Debye
        Dipole field         -0.0005 Ry au, 
 
        Potential amp.        0.0561 Ry
        Total length         55.1515 bohr
 

     total cpu time spent up to now is      434.6 secs

     total energy              =   -7738.31984552 Ry
     estimated scf accuracy    <       0.18708575 Ry

     total magnetization       =    89.38 Bohr mag/cell
     absolute magnetization    =    90.61 Bohr mag/cell

     iteration # 29     ecut=    50.00 Ry     beta= 0.10
     Davidson diagonalization with overlap
     ethr =  4.79E-06,  avg # of iterations =  2.0

     negative rho (up, down):  5.112E-05 4.312E-05
 
     Adding external electric field

     Computed dipole along edir(3) : 
        Dipole               -1.0485 Ry au,         -2.6651 Debye
        Dipole field         -0.0006 Ry au, 
 
        Potential amp.        0.0708 Ry
        Total length         55.1515 bohr
 
 
     Adding external electric field

     Computed dipole along edir(3) : 
        Dipole               -1.0485 Ry au,         -2.6651 Debye
        Dipole field         -0.0006 Ry au, 
 
        Potential amp.        0.0708 Ry
        Total length         55.1515 bohr
 

     total cpu time spent up to now is      447.3 secs

     total energy              =   -7738.31793365 Ry
     estimated scf accuracy    <       0.37940316 Ry

     total magnetization       =    88.58 Bohr mag/cell
     absolute magnetization    =    89.81 Bohr mag/cell

     iteration # 30     ecut=    50.00 Ry     beta= 0.10
     Davidson diagonalization with overlap
     ethr =  4.79E-06,  avg # of iterations =  2.0

     negative rho (up, down):  2.188E-05 2.717E-05
 
     Adding external electric field

     Computed dipole along edir(3) : 
        Dipole               -1.1003 Ry au,         -2.7966 Debye
        Dipole field         -0.0007 Ry au, 
 
        Potential amp.        0.0743 Ry
        Total length         55.1515 bohr
 
 
     Adding external electric field

     Computed dipole along edir(3) : 
        Dipole               -1.1003 Ry au,         -2.7966 Debye
        Dipole field         -0.0007 Ry au, 
 
        Potential amp.        0.0743 Ry
        Total length         55.1515 bohr
 

     total cpu time spent up to now is      460.2 secs

     total energy              =   -7738.32248464 Ry
     estimated scf accuracy    <       0.13395826 Ry

     total magnetization       =    89.35 Bohr mag/cell
     absolute magnetization    =    90.67 Bohr mag/cell

     iteration # 31     ecut=    50.00 Ry     beta= 0.10
     Davidson diagonalization with overlap
     ethr =  4.79E-06,  avg # of iterations =  2.0

     negative rho (up, down):  6.656E-06 1.229E-05
 
     Adding external electric field

     Computed dipole along edir(3) : 
        Dipole               -1.0563 Ry au,         -2.6847 Debye
        Dipole field         -0.0006 Ry au, 
 
        Potential amp.        0.0713 Ry
        Total length         55.1515 bohr
 
 
     Adding external electric field

     Computed dipole along edir(3) : 
        Dipole               -1.0563 Ry au,         -2.6847 Debye
        Dipole field         -0.0006 Ry au, 
 
        Potential amp.        0.0713 Ry
        Total length         55.1515 bohr
 

     total cpu time spent up to now is      472.6 secs

     total energy              =   -7738.32150057 Ry
     estimated scf accuracy    <       0.05186518 Ry

     total magnetization       =    88.90 Bohr mag/cell
     absolute magnetization    =    90.37 Bohr mag/cell

     iteration # 32     ecut=    50.00 Ry     beta= 0.10
     Davidson diagonalization with overlap
     ethr =  4.75E-06,  avg # of iterations =  1.0

     negative rho (up, down):  4.940E-06 1.166E-05
 
     Adding external electric field

     Computed dipole along edir(3) : 
        Dipole               -1.0413 Ry au,         -2.6468 Debye
        Dipole field         -0.0006 Ry au, 
 
        Potential amp.        0.0703 Ry
        Total length         55.1515 bohr
 
 
     Adding external electric field

     Computed dipole along edir(3) : 
        Dipole               -1.0413 Ry au,         -2.6468 Debye
        Dipole field         -0.0006 Ry au, 
 
        Potential amp.        0.0703 Ry
        Total length         55.1515 bohr
 

     total cpu time spent up to now is      484.4 secs

     total energy              =   -7738.32173939 Ry
     estimated scf accuracy    <       0.03815267 Ry

     total magnetization       =    88.66 Bohr mag/cell
     absolute magnetization    =    90.15 Bohr mag/cell

     iteration # 33     ecut=    50.00 Ry     beta= 0.10
     Davidson diagonalization with overlap
     ethr =  3.49E-06,  avg # of iterations =  1.5

     negative rho (up, down):  1.639E-05 1.692E-05
 
     Adding external electric field

     Computed dipole along edir(3) : 
        Dipole               -1.0397 Ry au,         -2.6427 Debye
        Dipole field         -0.0006 Ry au, 
 
        Potential amp.        0.0702 Ry
        Total length         55.1515 bohr
 
 
     Adding external electric field

     Computed dipole along edir(3) : 
        Dipole               -1.0397 Ry au,         -2.6427 Debye
        Dipole field         -0.0006 Ry au, 
 
        Potential amp.        0.0702 Ry
        Total length         55.1515 bohr
 

     total cpu time spent up to now is      496.1 secs

     total energy              =   -7738.32217610 Ry
     estimated scf accuracy    <       0.04042311 Ry

     total magnetization       =    88.68 Bohr mag/cell
     absolute magnetization    =    90.18 Bohr mag/cell

     iteration # 34     ecut=    50.00 Ry     beta= 0.10
     Davidson diagonalization with overlap
     ethr =  3.49E-06,  avg # of iterations =  1.0

     negative rho (up, down):  1.160E-05 1.245E-05
 
     Adding external electric field

     Computed dipole along edir(3) : 
        Dipole               -1.0663 Ry au,         -2.7103 Debye
        Dipole field         -0.0007 Ry au, 
 
        Potential amp.        0.0720 Ry
        Total length         55.1515 bohr
 
 
     Adding external electric field

     Computed dipole along edir(3) : 
        Dipole               -1.0663 Ry au,         -2.7103 Debye
        Dipole field         -0.0007 Ry au, 
 
        Potential amp.        0.0720 Ry
        Total length         55.1515 bohr
 

     total cpu time spent up to now is      507.1 secs

     total energy              =   -7738.32370832 Ry
     estimated scf accuracy    <       0.08137604 Ry

     total magnetization       =    89.07 Bohr mag/cell
     absolute magnetization    =    90.43 Bohr mag/cell

     iteration # 35     ecut=    50.00 Ry     beta= 0.10
     Davidson diagonalization with overlap
     ethr =  3.49E-06,  avg # of iterations =  1.5

     negative rho (up, down):  6.755E-05 5.724E-05
 
     Adding external electric field

     Computed dipole along edir(3) : 
        Dipole               -1.0420 Ry au,         -2.6485 Debye
        Dipole field         -0.0006 Ry au, 
 
        Potential amp.        0.0704 Ry
        Total length         55.1515 bohr
 
 
     Adding external electric field

     Computed dipole along edir(3) : 
        Dipole               -1.0420 Ry au,         -2.6485 Debye
        Dipole field         -0.0006 Ry au, 
 
        Potential amp.        0.0704 Ry
        Total length         55.1515 bohr
 

     total cpu time spent up to now is      518.5 secs

     total energy              =   -7738.32266430 Ry
     estimated scf accuracy    <       0.07967024 Ry

     total magnetization       =    89.12 Bohr mag/cell
     absolute magnetization    =    90.54 Bohr mag/cell

     iteration # 36     ecut=    50.00 Ry     beta= 0.10
     Davidson diagonalization with overlap
     ethr =  3.49E-06,  avg # of iterations =  1.5

     negative rho (up, down):  9.825E-05 8.627E-05
 
     Adding external electric field

     Computed dipole along edir(3) : 
        Dipole               -1.0379 Ry au,         -2.6381 Debye
        Dipole field         -0.0006 Ry au, 
 
        Potential amp.        0.0701 Ry
        Total length         55.1515 bohr
 
 
     Adding external electric field

     Computed dipole along edir(3) : 
        Dipole               -1.0379 Ry au,         -2.6381 Debye
        Dipole field         -0.0006 Ry au, 
 
        Potential amp.        0.0701 Ry
        Total length         55.1515 bohr
 

     total cpu time spent up to now is      530.5 secs

     total energy              =   -7738.32264607 Ry
     estimated scf accuracy    <       0.05987104 Ry

     total magnetization       =    89.02 Bohr mag/cell
     absolute magnetization    =    90.29 Bohr mag/cell

     iteration # 37     ecut=    50.00 Ry     beta= 0.10
     Davidson diagonalization with overlap
     ethr =  3.49E-06,  avg # of iterations =  1.5

     negative rho (up, down):  3.961E-05 4.385E-05
 
     Adding external electric field

     Computed dipole along edir(3) : 
        Dipole               -0.9219 Ry au,         -2.3432 Debye
        Dipole field         -0.0006 Ry au, 
 
        Potential amp.        0.0622 Ry
        Total length         55.1515 bohr
 
 
     Adding external electric field

     Computed dipole along edir(3) : 
        Dipole               -0.9219 Ry au,         -2.3432 Debye
        Dipole field         -0.0006 Ry au, 
 
        Potential amp.        0.0622 Ry
        Total length         55.1515 bohr
 

     total cpu time spent up to now is      542.0 secs

     total energy              =   -7738.32028878 Ry
     estimated scf accuracy    <       0.04454494 Ry

     total magnetization       =    88.93 Bohr mag/cell
     absolute magnetization    =    90.19 Bohr mag/cell

     iteration # 38     ecut=    50.00 Ry     beta= 0.10
     Davidson diagonalization with overlap
     ethr =  3.49E-06,  avg # of iterations =  2.0

     negative rho (up, down):  8.615E-05 7.735E-05
 
     Adding external electric field

     Computed dipole along edir(3) : 
        Dipole               -0.9347 Ry au,         -2.3758 Debye
        Dipole field         -0.0006 Ry au, 
 
        Potential amp.        0.0631 Ry
        Total length         55.1515 bohr
 
 
     Adding external electric field

     Computed dipole along edir(3) : 
        Dipole               -0.9347 Ry au,         -2.3758 Debye
        Dipole field         -0.0006 Ry au, 
 
        Potential amp.        0.0631 Ry
        Total length         55.1515 bohr
 

     total cpu time spent up to now is      555.1 secs

     total energy              =   -7738.32208629 Ry
     estimated scf accuracy    <       0.13786379 Ry

     total magnetization       =    88.97 Bohr mag/cell
     absolute magnetization    =    90.18 Bohr mag/cell

     iteration # 39     ecut=    50.00 Ry     beta= 0.10
     Davidson diagonalization with overlap
     ethr =  3.49E-06,  avg # of iterations =  3.0

     negative rho (up, down):  4.293E-05 2.664E-05
 
     Adding external electric field

     Computed dipole along edir(3) : 
        Dipole               -1.0247 Ry au,         -2.6046 Debye
        Dipole field         -0.0006 Ry au, 
 
        Potential amp.        0.0692 Ry
        Total length         55.1515 bohr
 
 
     Adding external electric field

     Computed dipole along edir(3) : 
        Dipole               -1.0247 Ry au,         -2.6046 Debye
        Dipole field         -0.0006 Ry au, 
 
        Potential amp.        0.0692 Ry
        Total length         55.1515 bohr
 

     total cpu time spent up to now is      568.0 secs

     total energy              =   -7738.32021456 Ry
     estimated scf accuracy    <       0.18084398 Ry

     total magnetization       =    88.94 Bohr mag/cell
     absolute magnetization    =    90.16 Bohr mag/cell

     iteration # 40     ecut=    50.00 Ry     beta= 0.10
     Davidson diagonalization with overlap
     ethr =  3.49E-06,  avg # of iterations =  2.0

     negative rho (up, down):  2.882E-05 2.964E-05
 
     Adding external electric field

     Computed dipole along edir(3) : 
        Dipole               -0.9930 Ry au,         -2.5239 Debye
        Dipole field         -0.0006 Ry au, 
 
        Potential amp.        0.0670 Ry
        Total length         55.1515 bohr
 
 
     Adding external electric field

     Computed dipole along edir(3) : 
        Dipole               -0.9930 Ry au,         -2.5239 Debye
        Dipole field         -0.0006 Ry au, 
 
        Potential amp.        0.0670 Ry
        Total length         55.1515 bohr
 

     total cpu time spent up to now is      580.4 secs

     total energy              =   -7738.32185803 Ry
     estimated scf accuracy    <       0.04772329 Ry

     total magnetization       =    88.61 Bohr mag/cell
     absolute magnetization    =    89.87 Bohr mag/cell

     iteration # 41     ecut=    50.00 Ry     beta= 0.10
     Davidson diagonalization with overlap
     ethr =  3.49E-06,  avg # of iterations =  1.0

     negative rho (up, down):  2.942E-05 3.337E-05
 
     Adding external electric field

     Computed dipole along edir(3) : 
        Dipole               -0.9862 Ry au,         -2.5066 Debye
        Dipole field         -0.0006 Ry au, 
 
        Potential amp.        0.0666 Ry
        Total length         55.1515 bohr
 
 
     Adding external electric field

     Computed dipole along edir(3) : 
        Dipole               -0.9862 Ry au,         -2.5066 Debye
        Dipole field         -0.0006 Ry au, 
 
        Potential amp.        0.0666 Ry
        Total length         55.1515 bohr
 

     total cpu time spent up to now is      591.4 secs

     total energy              =   -7738.32181760 Ry
     estimated scf accuracy    <       0.08262266 Ry

     total magnetization       =    88.79 Bohr mag/cell
     absolute magnetization    =    90.10 Bohr mag/cell

     iteration # 42     ecut=    50.00 Ry     beta= 0.10
     Davidson diagonalization with overlap
     ethr =  3.49E-06,  avg # of iterations =  1.5

     negative rho (up, down):  1.656E-05 3.550E-05
 
     Adding external electric field

     Computed dipole along edir(3) : 
        Dipole               -0.9618 Ry au,         -2.4446 Debye
        Dipole field         -0.0006 Ry au, 
 
        Potential amp.        0.0649 Ry
        Total length         55.1515 bohr
 
 
     Adding external electric field

     Computed dipole along edir(3) : 
        Dipole               -0.9618 Ry au,         -2.4446 Debye
        Dipole field         -0.0006 Ry au, 
 
        Potential amp.        0.0649 Ry
        Total length         55.1515 bohr
 

     total cpu time spent up to now is      602.8 secs

     total energy              =   -7738.32086455 Ry
     estimated scf accuracy    <       0.06207458 Ry

     total magnetization       =    88.54 Bohr mag/cell
     absolute magnetization    =    89.86 Bohr mag/cell

     iteration # 43     ecut=    50.00 Ry     beta= 0.10
     Davidson diagonalization with overlap
     ethr =  3.49E-06,  avg # of iterations =  1.5

     negative rho (up, down):  2.545E-05 2.421E-05
 
     Adding external electric field

     Computed dipole along edir(3) : 
        Dipole               -1.0187 Ry au,         -2.5894 Debye
        Dipole field         -0.0006 Ry au, 
 
        Potential amp.        0.0688 Ry
        Total length         55.1515 bohr
 
 
     Adding external electric field

     Computed dipole along edir(3) : 
        Dipole               -1.0187 Ry au,         -2.5894 Debye
        Dipole field         -0.0006 Ry au, 
 
        Potential amp.        0.0688 Ry
        Total length         55.1515 bohr
 

     total cpu time spent up to now is      614.8 secs

     total energy              =   -7738.32239186 Ry
     estimated scf accuracy    <       0.06108930 Ry

     total magnetization       =    88.68 Bohr mag/cell
     absolute magnetization    =    90.00 Bohr mag/cell

     iteration # 44     ecut=    50.00 Ry     beta= 0.10
     Davidson diagonalization with overlap
     ethr =  3.49E-06,  avg # of iterations =  1.0

     negative rho (up, down):  1.039E-04 1.464E-04
 
     Adding external electric field

     Computed dipole along edir(3) : 
        Dipole               -0.9849 Ry au,         -2.5034 Debye
        Dipole field         -0.0006 Ry au, 
 
        Potential amp.        0.0665 Ry
        Total length         55.1515 bohr
 
 
     Adding external electric field

     Computed dipole along edir(3) : 
        Dipole               -0.9849 Ry au,         -2.5034 Debye
        Dipole field         -0.0006 Ry au, 
 
        Potential amp.        0.0665 Ry
        Total length         55.1515 bohr
 

     total cpu time spent up to now is      625.6 secs

     total energy              =   -7738.32085473 Ry
     estimated scf accuracy    <       0.07199947 Ry

     total magnetization       =    88.99 Bohr mag/cell
     absolute magnetization    =    90.32 Bohr mag/cell

     iteration # 45     ecut=    50.00 Ry     beta= 0.10
     Davidson diagonalization with overlap
     ethr =  3.49E-06,  avg # of iterations =  1.5

     negative rho (up, down):  1.186E-04 1.384E-04
 
     Adding external electric field

     Computed dipole along edir(3) : 
        Dipole               -0.9966 Ry au,         -2.5330 Debye
        Dipole field         -0.0006 Ry au, 
 
        Potential amp.        0.0673 Ry
        Total length         55.1515 bohr
 
 
     Adding external electric field

     Computed dipole along edir(3) : 
        Dipole               -0.9966 Ry au,         -2.5330 Debye
        Dipole field         -0.0006 Ry au, 
 
        Potential amp.        0.0673 Ry
        Total length         55.1515 bohr
 

     total cpu time spent up to now is      637.2 secs

     total energy              =   -7738.32081137 Ry
     estimated scf accuracy    <       0.05102765 Ry

     total magnetization       =    88.77 Bohr mag/cell
     absolute magnetization    =    90.06 Bohr mag/cell

     iteration # 46     ecut=    50.00 Ry     beta= 0.10
     Davidson diagonalization with overlap
     ethr =  3.49E-06,  avg # of iterations =  1.0

     negative rho (up, down):  1.757E-04 2.023E-04
 
     Adding external electric field

     Computed dipole along edir(3) : 
        Dipole               -0.9849 Ry au,         -2.5033 Debye
        Dipole field         -0.0006 Ry au, 
 
        Potential amp.        0.0665 Ry
        Total length         55.1515 bohr
 
 
     Adding external electric field

     Computed dipole along edir(3) : 
        Dipole               -0.9849 Ry au,         -2.5033 Debye
        Dipole field         -0.0006 Ry au, 
 
        Potential amp.        0.0665 Ry
        Total length         55.1515 bohr
 

     total cpu time spent up to now is      648.0 secs

     total energy              =   -7738.32030200 Ry
     estimated scf accuracy    <       0.03747838 Ry

     total magnetization       =    88.74 Bohr mag/cell
     absolute magnetization    =    89.97 Bohr mag/cell

     iteration # 47     ecut=    50.00 Ry     beta= 0.10
     Davidson diagonalization with overlap
     ethr =  3.43E-06,  avg # of iterations =  1.5

     negative rho (up, down):  3.454E-04 3.707E-04
 
     Adding external electric field

     Computed dipole along edir(3) : 
        Dipole               -0.9629 Ry au,         -2.4474 Debye
        Dipole field         -0.0006 Ry au, 
 
        Potential amp.        0.0650 Ry
        Total length         55.1515 bohr
 
 
     Adding external electric field

     Computed dipole along edir(3) : 
        Dipole               -0.9629 Ry au,         -2.4474 Debye
        Dipole field         -0.0006 Ry au, 
 
        Potential amp.        0.0650 Ry
        Total length         55.1515 bohr
 

     total cpu time spent up to now is      659.4 secs

     total energy              =   -7738.31961435 Ry
     estimated scf accuracy    <       0.03272672 Ry

     total magnetization       =    88.61 Bohr mag/cell
     absolute magnetization    =    89.82 Bohr mag/cell

     iteration # 48     ecut=    50.00 Ry     beta= 0.10
     Davidson diagonalization with overlap
     ethr =  2.99E-06,  avg # of iterations =  1.0

     negative rho (up, down):  3.258E-04 3.320E-04
 
     Adding external electric field

     Computed dipole along edir(3) : 
        Dipole               -0.9581 Ry au,         -2.4354 Debye
        Dipole field         -0.0006 Ry au, 
 
        Potential amp.        0.0647 Ry
        Total length         55.1515 bohr
 
 
     Adding external electric field

     Computed dipole along edir(3) : 
        Dipole               -0.9581 Ry au,         -2.4354 Debye
        Dipole field         -0.0006 Ry au, 
 
        Potential amp.        0.0647 Ry
        Total length         55.1515 bohr
 

     total cpu time spent up to now is      670.8 secs

     total energy              =   -7738.31908111 Ry
     estimated scf accuracy    <       0.03869597 Ry

     total magnetization       =    88.59 Bohr mag/cell
     absolute magnetization    =    89.76 Bohr mag/cell

     iteration # 49     ecut=    50.00 Ry     beta= 0.10
     Davidson diagonalization with overlap
     ethr =  2.99E-06,  avg # of iterations =  1.0

     negative rho (up, down):  2.957E-04 3.223E-04
 
     Adding external electric field

     Computed dipole along edir(3) : 
        Dipole               -0.9691 Ry au,         -2.4631 Debye
        Dipole field         -0.0006 Ry au, 
 
        Potential amp.        0.0654 Ry
        Total length         55.1515 bohr
 
 
     Adding external electric field

     Computed dipole along edir(3) : 
        Dipole               -0.9691 Ry au,         -2.4631 Debye
        Dipole field         -0.0006 Ry au, 
 
        Potential amp.        0.0654 Ry
        Total length         55.1515 bohr
 

     total cpu time spent up to now is      681.5 secs

     total energy              =   -7738.31961578 Ry
     estimated scf accuracy    <       0.03767797 Ry

     total magnetization       =    88.70 Bohr mag/cell
     absolute magnetization    =    89.84 Bohr mag/cell

     iteration # 50     ecut=    50.00 Ry     beta= 0.10
     Davidson diagonalization with overlap
     ethr =  2.99E-06,  avg # of iterations =  1.0

     negative rho (up, down):  2.913E-04 3.148E-04
 
     Adding external electric field

     Computed dipole along edir(3) : 
        Dipole               -0.9648 Ry au,         -2.4524 Debye
        Dipole field         -0.0006 Ry au, 
 
        Potential amp.        0.0651 Ry
        Total length         55.1515 bohr
 
 
     Adding external electric field

     Computed dipole along edir(3) : 
        Dipole               -0.9648 Ry au,         -2.4524 Debye
        Dipole field         -0.0006 Ry au, 
 
        Potential amp.        0.0651 Ry
        Total length         55.1515 bohr
 

     total cpu time spent up to now is      692.7 secs

     total energy              =   -7738.31956781 Ry
     estimated scf accuracy    <       0.03628824 Ry

     total magnetization       =    88.73 Bohr mag/cell
     absolute magnetization    =    89.89 Bohr mag/cell

     iteration # 51     ecut=    50.00 Ry     beta= 0.10
     Davidson diagonalization with overlap
     ethr =  2.99E-06,  avg # of iterations =  1.5

     negative rho (up, down):  3.869E-04 3.868E-04
 
     Adding external electric field

     Computed dipole along edir(3) : 
        Dipole               -0.9736 Ry au,         -2.4748 Debye
        Dipole field         -0.0006 Ry au, 
 
        Potential amp.        0.0657 Ry
        Total length         55.1515 bohr
 
 
     Adding external electric field

     Computed dipole along edir(3) : 
        Dipole               -0.9736 Ry au,         -2.4748 Debye
        Dipole field         -0.0006 Ry au, 
 
        Potential amp.        0.0657 Ry
        Total length         55.1515 bohr
 

     total cpu time spent up to now is      704.5 secs

     total energy              =   -7738.31987169 Ry
     estimated scf accuracy    <       0.03736141 Ry

     total magnetization       =    88.73 Bohr mag/cell
     absolute magnetization    =    89.89 Bohr mag/cell

     iteration # 52     ecut=    50.00 Ry     beta= 0.10
     Davidson diagonalization with overlap
     ethr =  2.99E-06,  avg # of iterations =  2.0

     negative rho (up, down):  2.179E-04 2.559E-04
 
     Adding external electric field

     Computed dipole along edir(3) : 
        Dipole               -0.9458 Ry au,         -2.4040 Debye
        Dipole field         -0.0006 Ry au, 
 
        Potential amp.        0.0639 Ry
        Total length         55.1515 bohr
 
 
     Adding external electric field

     Computed dipole along edir(3) : 
        Dipole               -0.9458 Ry au,         -2.4040 Debye
        Dipole field         -0.0006 Ry au, 
 
        Potential amp.        0.0639 Ry
        Total length         55.1515 bohr
 

     total cpu time spent up to now is      717.3 secs

     total energy              =   -7738.31939213 Ry
     estimated scf accuracy    <       0.03635789 Ry

     total magnetization       =    88.78 Bohr mag/cell
     absolute magnetization    =    89.96 Bohr mag/cell

     iteration # 53     ecut=    50.00 Ry     beta= 0.10
     Davidson diagonalization with overlap
     ethr =  2.99E-06,  avg # of iterations =  1.0

     negative rho (up, down):  3.096E-04 3.684E-04
 
     Adding external electric field

     Computed dipole along edir(3) : 
        Dipole               -0.9397 Ry au,         -2.3885 Debye
        Dipole field         -0.0006 Ry au, 
 
        Potential amp.        0.0634 Ry
        Total length         55.1515 bohr
 
 
     Adding external electric field

     Computed dipole along edir(3) : 
        Dipole               -0.9397 Ry au,         -2.3885 Debye
        Dipole field         -0.0006 Ry au, 
 
        Potential amp.        0.0634 Ry
        Total length         55.1515 bohr
 

     total cpu time spent up to now is      728.8 secs

     total energy              =   -7738.31888915 Ry
     estimated scf accuracy    <       0.03996442 Ry

     total magnetization       =    88.80 Bohr mag/cell
     absolute magnetization    =    89.97 Bohr mag/cell

     iteration # 54     ecut=    50.00 Ry     beta= 0.10
     Davidson diagonalization with overlap
     ethr =  2.99E-06,  avg # of iterations =  1.5

     negative rho (up, down):  2.122E-04 2.768E-04
 
     Adding external electric field

     Computed dipole along edir(3) : 
        Dipole               -0.9353 Ry au,         -2.3773 Debye
        Dipole field         -0.0006 Ry au, 
 
        Potential amp.        0.0631 Ry
        Total length         55.1515 bohr
 
 
     Adding external electric field

     Computed dipole along edir(3) : 
        Dipole               -0.9353 Ry au,         -2.3773 Debye
        Dipole field         -0.0006 Ry au, 
 
        Potential amp.        0.0631 Ry
        Total length         55.1515 bohr
 

     total cpu time spent up to now is      740.3 secs

     total energy              =   -7738.31933478 Ry
     estimated scf accuracy    <       0.03655099 Ry

     total magnetization       =    88.69 Bohr mag/cell
     absolute magnetization    =    89.85 Bohr mag/cell

     iteration # 55     ecut=    50.00 Ry     beta= 0.10
     Davidson diagonalization with overlap
     ethr =  2.99E-06,  avg # of iterations =  1.0

     negative rho (up, down):  8.538E-05 8.419E-05
 
     Adding external electric field

     Computed dipole along edir(3) : 
        Dipole               -0.9880 Ry au,         -2.5112 Debye
        Dipole field         -0.0006 Ry au, 
 
        Potential amp.        0.0667 Ry
        Total length         55.1515 bohr
 
 
     Adding external electric field

     Computed dipole along edir(3) : 
        Dipole               -0.9880 Ry au,         -2.5112 Debye
        Dipole field         -0.0006 Ry au, 
 
        Potential amp.        0.0667 Ry
        Total length         55.1515 bohr
 

     total cpu time spent up to now is      751.0 secs

     total energy              =   -7738.32091890 Ry
     estimated scf accuracy    <       0.03619451 Ry

     total magnetization       =    88.70 Bohr mag/cell
     absolute magnetization    =    89.88 Bohr mag/cell

     iteration # 56     ecut=    50.00 Ry     beta= 0.10
     Davidson diagonalization with overlap
     ethr =  2.99E-06,  avg # of iterations =  1.5

     negative rho (up, down):  8.458E-04 8.479E-04
 
     Adding external electric field

     Computed dipole along edir(3) : 
        Dipole               -1.0219 Ry au,         -2.5974 Debye
        Dipole field         -0.0006 Ry au, 
 
        Potential amp.        0.0690 Ry
        Total length         55.1515 bohr
 
 
     Adding external electric field

     Computed dipole along edir(3) : 
        Dipole               -1.0219 Ry au,         -2.5974 Debye
        Dipole field         -0.0006 Ry au, 
 
        Potential amp.        0.0690 Ry
        Total length         55.1515 bohr
 

     total cpu time spent up to now is      762.4 secs

     total energy              =   -7738.32014434 Ry
     estimated scf accuracy    <       0.03746294 Ry

     total magnetization       =    88.73 Bohr mag/cell
     absolute magnetization    =    89.96 Bohr mag/cell

     iteration # 57     ecut=    50.00 Ry     beta= 0.10
     Davidson diagonalization with overlap
     ethr =  2.99E-06,  avg # of iterations =  1.5

     negative rho (up, down):  8.728E-04 9.038E-04
 
     Adding external electric field

     Computed dipole along edir(3) : 
        Dipole               -0.9994 Ry au,         -2.5402 Debye
        Dipole field         -0.0006 Ry au, 
 
        Potential amp.        0.0675 Ry
        Total length         55.1515 bohr
 
 
     Adding external electric field

     Computed dipole along edir(3) : 
        Dipole               -0.9994 Ry au,         -2.5402 Debye
        Dipole field         -0.0006 Ry au, 
 
        Potential amp.        0.0675 Ry
        Total length         55.1515 bohr
 

     total cpu time spent up to now is      773.6 secs

     total energy              =   -7738.32006665 Ry
     estimated scf accuracy    <       0.03666744 Ry

     total magnetization       =    88.83 Bohr mag/cell
     absolute magnetization    =    90.04 Bohr mag/cell

     iteration # 58     ecut=    50.00 Ry     beta= 0.10
     Davidson diagonalization with overlap
     ethr =  2.99E-06,  avg # of iterations =  1.5

     negative rho (up, down):  5.210E-04 4.970E-04
 
     Adding external electric field

     Computed dipole along edir(3) : 
        Dipole               -0.9834 Ry au,         -2.4995 Debye
        Dipole field         -0.0006 Ry au, 
 
        Potential amp.        0.0664 Ry
[...]
    -5.9726  -5.9410  -5.9325  -5.9094  -5.8880  -5.8806  -5.8675  -5.8434
    -5.8285  -5.7818  -5.7531  -5.7429  -5.7304  -5.6963  -5.6704  -5.6549
    -5.6410  -5.6316  -5.5880  -5.5708  -5.5652  -5.5473  -5.5390  -5.5275
    -5.5175  -5.4899  -5.4768  -5.4456  -5.4025  -5.3672  -5.3342  -5.3183
    -5.2817  -5.2629  -5.2361  -5.1668  -5.1485  -5.1438  -5.1274  -5.1060
    -5.0649  -5.0132  -4.9667  -4.9371  -4.9010  -4.8914  -4.8621  -4.8484
    -4.8219  -4.7955  -4.7831  -4.7438  -4.7251  -4.6940  -4.6408  -4.6053
    -4.5437  -4.4779  -4.4437  -4.4250  -4.4061  -4.3962  -4.3686  -4.3555
    -4.3283  -4.2845  -4.2573  -4.2452  -4.2068  -4.1945  -4.1110  -4.1067
    -4.0900  -4.0468  -4.0393  -4.0194  -3.9581  -3.9345  -3.9221  -3.8824
    -3.8585  -3.8228  -3.8140  -3.7962  -3.7770  -3.7445  -3.7064  -3.6965
    -3.6891  -3.6720  -3.6617  -3.5893  -3.5794  -3.5786  -3.5633  -3.5471
    -3.5352  -3.5184  -3.5097  -3.4847  -3.4509  -3.4446  -3.4301  -3.4089
    -3.3866  -3.3761  -3.3715  -3.3570  -3.3403  -3.3087  -3.2881  -3.2598
    -3.2477  -3.2161  -3.1940  -3.1695  -3.1468  -3.1203  -3.1026  -3.0850
    -3.0775  -3.0662  -3.0554  -3.0371  -3.0212  -3.0043  -2.9882  -2.9393
    -2.9271  -2.9160  -2.9038  -2.8930  -2.8716  -2.8490  -2.8150  -2.7925
    -2.7881  -2.7625  -2.7550  -2.7302  -2.7246  -2.7162  -2.7099  -2.6962
    -2.6759  -2.6687  -2.6650  -2.6393  -2.6303  -2.6171  -2.6097  -2.5817
    -2.5757  -2.5754  -2.5409  -2.5288  -2.5088  -2.4854  -2.4735  -2.4614
    -2.4550  -2.4128  -2.4044  -2.3747  -2.3596  -2.3451  -2.3185  -2.2821
    -2.2765  -2.2717  -2.2269  -2.2128  -2.1908  -2.1788  -2.1549  -2.1424
    -2.1107  -2.0888  -2.0738  -2.0699  -2.0536  -2.0400  -2.0301  -2.0235
    -1.9975  -1.9537  -1.9410  -1.9202  -1.9090  -1.8912  -1.8853  -1.8672
    -1.8417  -1.8366  -1.8313  -1.8242  -1.7944  -1.7172  -1.7106  -1.6795
    -1.6735  -1.6539  -1.6345  -1.6303  -1.6175  -1.6073  -1.5913  -1.5818
    -1.5524  -1.5487  -1.5039  -1.4927  -1.4669  -1.4565  -1.4501  -1.4249
    -1.4059  -1.3953  -1.3854  -1.3651  -1.3602  -1.3325  -1.3073  -1.2978
    -1.2357  -1.2258  -1.1720  -1.1505  -1.1345  -1.1335  -1.0964  -1.0563
    -1.0348  -0.9968  -0.9308  -0.8551  -0.7310  -0.7172  -0.6200  -0.5737
    -0.5252  -0.5108  -0.3584  -0.2352   0.1772   0.2129   0.2351   0.2450
     0.2951   0.3061   0.3178   0.3270   0.3441   0.3565   0.3640   0.3673
     0.3743   0.3842   0.3963   0.3978   0.4022   0.4129   0.4172   0.4244
     0.4326   0.4371   0.4608   0.4632   0.4739   0.4809   0.4867   0.4899
     0.4953   0.4957   0.5069   0.5132   0.5204   0.5303   0.5342   0.5366
     0.5391   0.5629   0.5666   0.5710   0.5946   0.5975   0.6141   0.6174
     0.6238   0.6320   0.6410   0.6447   0.6503   0.6608   0.6620   0.6762
     0.6794   0.6826   0.6967   0.7023   0.7113   0.7131   0.7189   0.7306
     0.7402   0.7480   0.7630   0.7640   0.7760   0.7831   0.7926   0.8067
     0.8087   0.8253   0.8471   0.8553   0.8615   0.8647   0.8677   0.8751
     0.8815   0.9025   0.9063   0.9122   0.9185   0.9501   0.9664   0.9801
     0.9840   1.0335   1.0836   1.1097   1.1205   1.6832   1.7332   1.7451
     1.7728   1.7980   1.8089   1.8152   1.8209   1.8396   1.9069   1.9172
     1.9312   1.9682   1.9782   2.0037   2.0391   2.0436   2.0828   2.0890
     2.1349   2.1416   2.1716   2.1888   2.1939   2.1972   2.2085   2.2319
     2.2407   2.2727   2.2827   2.3028   2.3107   2.3224   2.3420   2.3550
     2.3704   2.3789   2.3843   2.4057   2.4142   2.4193   2.4377   2.4880
     2.5248   2.5296   2.5366   2.5461   2.5505   2.5757   2.5935   2.6153
     2.6603   2.6780   2.6961   2.7040   2.7246   2.7997   2.8040   2.8688
     2.8727   2.8883   3.7050   3.7186   3.7222   3.7810   3.7836   3.7955
     3.9035   3.9302   3.9561   3.9570   3.9800   3.9979   4.0088   4.0353
     4.0513   4.0577   4.1430   4.1452   4.1573   4.1787   4.6582   4.7139
     4.7923   4.8541   4.8808   4.9103   4.9354   4.9672   5.0398   5.0945
     5.1152   5.1454   5.4230   6.2405   6.3720   6.6114   6.6557   6.7585
     6.8079   6.8846   6.8897   6.9195   7.0198   7.0799   7.0906   7.1325
     7.2641   7.3453   7.3528   7.4329   7.4786   7.5330   7.5855   7.6318
     7.6379   7.6773   7.7340   7.7580   7.8071   7.8818   7.9013   7.9070
     8.0138   8.0258   8.0623   8.0885   8.1136   8.1764   8.1870   8.2067
     8.2612   8.2837   8.3027   8.3304   8.3768   8.4233   8.4269   8.4469
     8.4643   8.4763   8.4948   8.5249   8.5531   8.5712   8.5978   8.6185
     8.6626   8.6823   8.7214   8.7508   8.7701   8.7810   8.8321   8.8462

     the Fermi energy is     1.6575 ev

!    total energy              =   -7738.31682776 Ry
     estimated scf accuracy    <       0.00000074 Ry
     smearing contrib. (-TS)   =      -0.02218798 Ry
     internal energy E=F+TS    =   -7738.29463978 Ry

     The total energy is F=E-TS. E is the sum of the following terms:
     one-electron contribution =  -94718.92181686 Ry
     hartree contribution      =   47976.77533739 Ry
     xc contribution           =   -2218.72578505 Ry
     ewald contribution        =   41224.38513217 Ry
     Dispersion Correction     =      -1.80756401 Ry
     electric field correction =       0.00005658 Ry

     total magnetization       =    88.65 Bohr mag/cell
     absolute magnetization    =    90.03 Bohr mag/cell

     convergence has been achieved in 126 iterations

     negative rho (up, down):  1.053E-03 5.886E-04

     Forces acting on atoms (cartesian axes, Ry/au):

     atom    1 type  1   force =     0.00009723    0.00072547    0.00053115
     atom    2 type  2   force =     0.00036093    0.00008091   -0.00023602
     atom    3 type  1   force =     0.00072537    0.00005371    0.00024497
     atom    4 type  1   force =    -0.00032436   -0.00025044    0.00057584
     atom    5 type  1   force =     0.00074000    0.00004450    0.00017246
     atom    6 type  1   force =    -0.00011227    0.00018009   -0.00026307
     atom    7 type  3   force =    -0.00043683    0.00012282    0.00046005
     atom    8 type  3   force =     0.00013241   -0.00039909    0.00000346
     atom    9 type  3   force =    -0.00037702    0.00028851    0.00092846
     atom   10 type  3   force =     0.00013350   -0.00012416   -0.00022534
     atom   11 type  4   force =    -0.00067766   -0.00005669    0.00028309
     atom   12 type  4   force =    -0.00000079   -0.00024864    0.00048854
     atom   13 type  4   force =    -0.00057364   -0.00031606    0.00049123
     atom   14 type  4   force =     0.00040668    0.00003119   -0.00007157
     atom   15 type  4   force =     0.00041225    0.00004688    0.00006470
     atom   16 type  4   force =     0.00008600    0.00008118   -0.00015589
     atom   17 type  4   force =     0.00035753   -0.00007992   -0.00014823
     atom   18 type  4   force =     0.00010934    0.00006673   -0.00020843
     atom   19 type  4   force =    -0.00037614    0.00033462   -0.00008013
     atom   20 type  4   force =    -0.00003457    0.00022979   -0.00039596
     atom   21 type  4   force =     0.00004147   -0.00026857    0.00019253
     atom   22 type  4   force =    -0.00037178   -0.00018026    0.00028414
     atom   23 type  4   force =    -0.00047581    0.00022023    0.00026739
     atom   24 type  4   force =     0.00083908   -0.00024255   -0.00058048
     atom   25 type  4   force =     0.00046207   -0.00032812   -0.00080833
     atom   26 type  4   force =     0.00012393    0.00021646    0.00045652
     atom   27 type  1   force =    -0.00646069   -0.00827605   -0.00379762
     atom   28 type  2   force =    -0.01207682    0.00017756   -0.00169473
     atom   29 type  1   force =     0.00434466   -0.00260258    0.00334943
     atom   30 type  1   force =     0.00240241    0.00398492   -0.00154406
     atom   31 type  1   force =     0.00177659   -0.00485512   -0.00019920
     atom   32 type  1   force =    -0.00128427    0.00116712    0.00201305
     atom   33 type  3   force =    -0.00710489   -0.00083514   -0.00048435
     atom   34 type  3   force =    -0.00621410    0.00319935   -0.00203965
     atom   35 type  3   force =     0.00408207   -0.00003075   -0.00415648
     atom   36 type  3   force =     0.00104552   -0.00131771    0.00293255
     atom   37 type  4   force =     0.00869726    0.00528921   -0.00762630
     atom   38 type  4   force =     0.00357023   -0.00100292    0.02066588
     atom   39 type  4   force =    -0.00111098    0.00370483    0.01008604
     atom   40 type  4   force =    -0.00157196   -0.00236051   -0.00878888
     atom   41 type  4   force =     0.00202542    0.00848600    0.00642600
     atom   42 type  4   force =    -0.00684556   -0.00312862   -0.01941579
     atom   43 type  4   force =     0.00948642    0.00735648   -0.00645730
     atom   44 type  4   force =     0.00731249   -0.00312774    0.00589762
     atom   45 type  4   force =     0.00232610    0.00598971   -0.00061887
     atom   46 type  4   force =     0.00339620    0.00090470    0.00499682
     atom   47 type  4   force =    -0.01335549    0.00023471    0.00330450
     atom   48 type  4   force =    -0.01458795    0.00255814   -0.00334813
     atom   49 type  4   force =     0.01319376    0.00288552   -0.00440070
     atom   50 type  4   force =    -0.00413256   -0.00398813    0.00000565
     atom   51 type  4   force =    -0.00446477    0.00277830   -0.00066758
     atom   52 type  4   force =     0.01644641   -0.00320368    0.00420525
     atom   53 type  1   force =    -0.00759333   -0.00705159   -0.00830006
     atom   54 type  2   force =     0.01589254    0.01725700   -0.01008523
     atom   55 type  1   force =     0.00581243   -0.00481313   -0.00576883
     atom   56 type  1   force =    -0.02063922    0.01942589    0.01963714
     atom   57 type  1   force =     0.00446566   -0.00756810   -0.00153471
     atom   58 type  1   force =    -0.00390582   -0.00541722   -0.00104939
     atom   59 type  3   force =    -0.03904233   -0.03835536   -0.05610789
     atom   60 type  3   force =    -0.00486512   -0.00127458   -0.00121150
     atom   61 type  3   force =     0.00272930   -0.00100584   -0.01018429
     atom   62 type  3   force =     0.02908862   -0.04951042   -0.06065190
     atom   63 type  4   force =     0.00618833    0.00339214    0.02109507
     atom   64 type  4   force =     0.00441441    0.00241074    0.01436377
     atom   65 type  4   force =    -0.00060289    0.00303853    0.01255636
     atom   66 type  4   force =     0.00021529    0.00204405    0.01629310
     atom   67 type  4   force =     0.00101663   -0.00072486    0.03883080
     atom   68 type  4   force =    -0.00578945   -0.00384501   -0.01705087
     atom   69 type  4   force =     0.00788528    0.00456571   -0.00247136
     atom   70 type  4   force =     0.00178962   -0.00743801    0.03517984
     atom   71 type  4   force =    -0.00900965    0.03932361    0.00085031
     atom   72 type  4   force =     0.00236855   -0.00064892    0.00794836
     atom   73 type  4   force =    -0.03029238    0.00089358    0.00756276
     atom   74 type  4   force =    -0.01372013    0.00141903   -0.00041721
     atom   75 type  4   force =     0.01216956    0.00347499   -0.00250863
     atom   76 type  4   force =    -0.00249287   -0.00308190    0.00257673
     atom   77 type  4   force =     0.00905956    0.02596851   -0.00266305
     atom   78 type  4   force =     0.03374169   -0.00637196    0.00609538
     atom   79 type  1   force =    -0.00007456    0.00047980    0.00011291
     atom   80 type  2   force =     0.00018751   -0.00027666    0.00000773
     atom   81 type  1   force =     0.00011168   -0.00024912    0.00036149
     atom   82 type  1   force =    -0.00027936    0.00003554    0.00054715
     atom   83 type  1   force =     0.00098210    0.00002212    0.00062456
     atom   84 type  1   force =    -0.00043761   -0.00002077   -0.00038377
     atom   85 type  3   force =    -0.00034440   -0.00007161    0.00028457
     atom   86 type  3   force =    -0.00015858   -0.00014463    0.00016426
     atom   87 type  3   force =     0.00015594    0.00010680    0.00046961
     atom   88 type  3   force =     0.00065320    0.00007544   -0.00034458
     atom   89 type  4   force =    -0.00056594   -0.00037862    0.00026028
     atom   90 type  4   force =     0.00060761    0.00035532    0.00015178
     atom   91 type  4   force =    -0.00046160    0.00040419    0.00069075
     atom   92 type  4   force =     0.00014339    0.00040091   -0.00000511
     atom   93 type  4   force =     0.00006366    0.00059824   -0.00026612
     atom   94 type  4   force =     0.00004985    0.00051010   -0.00005687
     atom   95 type  4   force =    -0.00014949    0.00052169    0.00026987
     atom   96 type  4   force =     0.00009822    0.00039917   -0.00017725
     atom   97 type  4   force =    -0.00072142    0.00027694   -0.00051834
     atom   98 type  4   force =    -0.00030036    0.00017316   -0.00016372
     atom   99 type  4   force =     0.00061296    0.00014213   -0.00005411
     atom  100 type  4   force =     0.00000091    0.00035956    0.00009492
     atom  101 type  4   force =     0.00020043   -0.00007017   -0.00041957
     atom  102 type  4   force =     0.00064056   -0.00035500   -0.00058806
     atom  103 type  4   force =     0.00056154   -0.00002478   -0.00050011
     atom  104 type  4   force =    -0.00034443   -0.00012087    0.00068200
     atom  105 type  1   force =    -0.00575746   -0.00900578   -0.00411344
     atom  106 type  2   force =    -0.01206266    0.00015362   -0.00156509
     atom  107 type  1   force =     0.00272402   -0.00400677    0.00048513
     atom  108 type  1   force =     0.00238966    0.00389982   -0.00152760
     atom  109 type  1   force =     0.00183150   -0.00490769   -0.00019870
     atom  110 type  1   force =    -0.00086527    0.00120983    0.00211718
     atom  111 type  3   force =    -0.00706845   -0.00081436   -0.00052639
     atom  112 type  3   force =    -0.00679543    0.00248824   -0.00027285
     atom  113 type  3   force =     0.00400129   -0.00063282   -0.00545785
     atom  114 type  3   force =     0.00113841   -0.00127118    0.00284652
     atom  115 type  4   force =     0.00867870    0.00502160   -0.00753856
     atom  116 type  4   force =     0.00355881   -0.00103671    0.02021303
     atom  117 type  4   force =    -0.00121447    0.00354770    0.01015560
     atom  118 type  4   force =    -0.00152928   -0.00245229   -0.00888129
     atom  119 type  4   force =     0.00207191    0.00843840    0.00626851
     atom  120 type  4   force =    -0.00549068   -0.00352378   -0.01963426
     atom  121 type  4   force =     0.00982975    0.00661470   -0.00837335
     atom  122 type  4   force =     0.00712117   -0.00311474    0.00588009
     atom  123 type  4   force =     0.00211700    0.00602310   -0.00059490
     atom  124 type  4   force =     0.00314062    0.00133502    0.00506449
     atom  125 type  4   force =    -0.01322348    0.00021632    0.00323058
     atom  126 type  4   force =    -0.01458984    0.00262923   -0.00350171
     atom  127 type  4   force =     0.01252953    0.00262889   -0.00461423
     atom  128 type  4   force =    -0.00403560   -0.00412202   -0.00043861
     atom  129 type  4   force =    -0.00445809    0.00275034   -0.00057673
     atom  130 type  4   force =     0.01651548   -0.00322685    0.00417015
     atom  131 type  1   force =    -0.00757316   -0.00707067   -0.00830337
     atom  132 type  2   force =     0.01590002    0.01724275   -0.01008479
     atom  133 type  1   force =     0.00580897   -0.00480673   -0.00577928
     atom  134 type  1   force =    -0.02064161    0.01942566    0.01963849
     atom  135 type  1   force =     0.00447359   -0.00754869   -0.00151642
     atom  136 type  1   force =    -0.00394184   -0.00542217   -0.00104791
     atom  137 type  3   force =    -0.03903321   -0.03834787   -0.05610944
     atom  138 type  3   force =    -0.00486198   -0.00127330   -0.00120186
     atom  139 type  3   force =     0.00271999   -0.00100740   -0.01019126
     atom  140 type  3   force =     0.02908179   -0.04951087   -0.06065144
     atom  141 type  4   force =     0.00612009    0.00341133    0.02115968
     atom  142 type  4   force =     0.00431073    0.00241846    0.01439413
     atom  143 type  4   force =    -0.00052757    0.00294352    0.01259820
     atom  144 type  4   force =     0.00025430    0.00213903    0.01649624
     atom  145 type  4   force =     0.00115388   -0.00072614    0.03885473
     atom  146 type  4   force =    -0.00554063   -0.00384561   -0.01706889
     atom  147 type  4   force =     0.00787410    0.00461692   -0.00263351
     atom  148 type  4   force =     0.00168165   -0.00747532    0.03523198
     atom  149 type  4   force =    -0.00922806    0.03932635    0.00085365
     atom  150 type  4   force =     0.00216252   -0.00064923    0.00795297
     atom  151 type  4   force =    -0.03018707    0.00089271    0.00756616
     atom  152 type  4   force =    -0.01382077    0.00142417   -0.00042275
     atom  153 type  4   force =     0.01233158    0.00358830   -0.00252379
     atom  154 type  4   force =    -0.00253636   -0.00296480    0.00249507
     atom  155 type  4   force =     0.00895805    0.02599333   -0.00272218
     atom  156 type  4   force =     0.03371253   -0.00616889    0.00592938
     atom  157 type  4   force =    -0.00819051    0.00675274   -0.00297564
     atom  158 type  5   force =     0.00670332   -0.00567131    0.00230296

     Total force =     0.237676     Total SCF correction =     0.004095
 
     init_run     :      7.57s CPU      8.42s WALL (       1 calls)
     electrons    :   1510.83s CPU   1589.41s WALL (       1 calls)
     forces       :      3.59s CPU      3.94s WALL (       1 calls)
     force_london :      0.09s CPU      0.09s WALL (       1 calls)

     Called by init_run:
     wfcinit      :      4.31s CPU      4.48s WALL (       1 calls)
     potinit      :      0.65s CPU      0.96s WALL (       1 calls)
     hinit0       :      1.31s CPU      1.44s WALL (       1 calls)

     Called by electrons:
     c_bands      :   1179.03s CPU   1218.15s WALL (     126 calls)
     sum_band     :    209.24s CPU    229.87s WALL (     126 calls)
     v_of_rho     :     27.39s CPU     29.21s WALL (     127 calls)
     newd         :     60.61s CPU     76.06s WALL (     127 calls)
     mix_rho      :     32.98s CPU     33.19s WALL (     126 calls)
     energy_londo :      0.08s CPU      0.08s WALL (       1 calls)

     Called by c_bands:
     init_us_2    :      3.74s CPU      3.84s WALL (     508 calls)
     init_us_2:cp :      3.73s CPU      3.84s WALL (     508 calls)
     regterg      :   1152.58s CPU   1191.39s WALL (     255 calls)

     Called by *egterg:
     rdiaghg      :    310.75s CPU    328.45s WALL (     844 calls)
     h_psi        :    472.71s CPU    483.02s WALL (     846 calls)
     s_psi        :     86.18s CPU     86.32s WALL (     846 calls)
     g_psi        :      0.62s CPU      0.62s WALL (     589 calls)

     Called by h_psi:
     h_psi:calbec :    116.84s CPU    124.89s WALL (     846 calls)
     vloc_psi     :    267.54s CPU    268.77s WALL (     846 calls)
     add_vuspsi   :     87.13s CPU     88.14s WALL (     846 calls)

     General routines
     calbec       :    172.92s CPU    185.05s WALL (    1106 calls)
     fft          :     23.17s CPU     25.62s WALL (    2299 calls)
     ffts         :     20.98s CPU     21.03s WALL (   15755 calls)
     fftw         :    303.26s CPU    304.62s WALL (  424674 calls)
     interpolate  :      2.10s CPU      2.44s WALL (     254 calls)
 
     Parallel routines
 
     PWSCF        :  25m24.16s CPU  26m44.21s WALL

 
   This run was terminated on:   1: 9: 2  18Nov2025            

=------------------------------------------------------------------------------=
   JOB DONE.
=------------------------------------------------------------------------------=
