
     Program PWSCF v.7.2 starts on 17Nov2025 at 22:16:54 

     This program is part of the open-source Quantum ESPRESSO suite
     for quantum simulation of materials; please cite
         "P. Giannozzi et al., J. Phys.:Condens. Matter 21 395502 (2009);
         "P. Giannozzi et al., J. Phys.:Condens. Matter 29 465901 (2017);
         "P. Giannozzi et al., J. Chem. Phys. 152 154105 (2020);
          URL http://www.quantum-espresso.org", 
     in publications or presentations arising from this work. More details at
     http://www.quantum-espresso.org/quote

     Parallel version (MPI), running on    64 processors

     MPI processes distributed on     4 nodes
     448227 MiB available memory on the printing compute node when the environment starts
 
     Reading input from PWINPUT_atm157_xm

     Current dimensions of program PWSCF are:
     Max number of different atomic species (ntypx) = 10
     Max number of k-points (npk) =  40000
     Max angular momentum in pseudopotentials (lmaxx) =  4
     Presently no symmetry can be used with electric field

     file Ni.pbe-n-rrkjus_psl.1.0.0.UPF: wavefunction(s)  3D renormalized
     file Mn.pbe-spn-rrkjus_psl.0.3.1.UPF: wavefunction(s)  3D renormalized
     file O.pbe-rrkjus.UPF: wavefunction(s)  2S renormalized
     file H.pbe-rrkjus.UPF: wavefunction(s)  1S renormalized

     gamma-point specific algorithms are used
 
     R & G space division:  proc/nbgrp/npool/nimage =      64
     Subspace diagonalization in iterative solution of the eigenvalue problem:
     one sub-group per band group will be used
     custom distributed-memory algorithm (size of sub-group:  7*  7 procs)

 
     Parallelization info
     --------------------
     sticks:   dense  smooth     PW     G-vecs:    dense   smooth      PW
     Min         207      82     20                60552    15302    1896
     Max         210      84     22                60574    15336    1950
     Sum       13325    5345   1333              3876045   980655  122653
 
     Using Slab Decomposition
 


     bravais-lattice index     =            0
     lattice parameter (alat)  =      17.4067  a.u.
     unit-cell volume          =   20529.8182 (a.u.)^3
     number of atoms/cell      =          158
     number of atomic types    =            5
     number of electrons       =      1093.00
     number of Kohn-Sham states=          656
     kinetic-energy cutoff     =      50.0000  Ry
     charge density cutoff     =     500.0000  Ry
     scf convergence threshold =      1.0E-06
     mixing beta               =       0.1000
     number of iterations used =            8  local-TF  mixing
     Exchange-correlation=  SLA  PW   PBE  PBE
                           (   1   4   3   4   0   0   0)

     celldm(1)=  17.406729  celldm(2)=   0.000000  celldm(3)=   0.000000
     celldm(4)=   0.000000  celldm(5)=   0.000000  celldm(6)=   0.000000

     crystal axes: (cart. coord. in units of alat)
               a(1) = (   1.000000   0.000000   0.000000 )  
               a(2) = (  -0.001404   1.105696   0.000000 )  
               a(3) = (   0.000000   0.000000   3.520448 )  

     reciprocal axes: (cart. coord. in units 2 pi/alat)
               b(1) = (  1.000000  0.001270  0.000000 )  
               b(2) = (  0.000000  0.904408  0.000000 )  
               b(3) = (  0.000000  0.000000  0.284055 )  


     PseudoPot. # 1 for Ni read from file:
     ~/PSEUDO/Ni.pbe-n-rrkjus_psl.1.0.0.UPF
     MD5 check sum: Not computed, couldn't open file
     Pseudo is Ultrasoft + core correction, Zval = 10.0
     Generated using "atomic" code by A. Dal Corso  v.5.1.2
     Using radial grid of 1195 points,  6 beta functions with: 
                l(1) =   0
                l(2) =   0
                l(3) =   1
                l(4) =   1
                l(5) =   2
                l(6) =   2
     Q(r) pseudized with 0 coefficients 


     PseudoPot. # 2 for Mn read from file:
     ~/PSEUDO/Mn.pbe-spn-rrkjus_psl.0.3.1.UPF
     MD5 check sum: Not computed, couldn't open file
     Pseudo is Ultrasoft + core correction, Zval = 15.0
     Generated using &quot;atomic&quot; code by A. Dal Corso  v.6.2.2
     Using radial grid of 1187 points,  6 beta functions with: 
                l(1) =   0
                l(2) =   0
                l(3) =   1
                l(4) =   1
                l(5) =   2
                l(6) =   2
     Q(r) pseudized with 0 coefficients 


     PseudoPot. # 3 for P  read from file:
     ~/PSEUDO/P.pbe-n-rrkjus_psl.1.0.0.UPF
     MD5 check sum: Not computed, couldn't open file
     Pseudo is Ultrasoft + core correction, Zval =  5.0
     Generated using "atomic" code by A. Dal Corso  v.5.1
     Using radial grid of 1147 points,  6 beta functions with: 
                l(1) =   0
                l(2) =   0
                l(3) =   1
                l(4) =   1
                l(5) =   2
                l(6) =   2
     Q(r) pseudized with 0 coefficients 


     PseudoPot. # 4 for O  read from file:
     ~/PSEUDO/O.pbe-rrkjus.UPF
     MD5 check sum: Not computed, couldn't open file
     Pseudo is Ultrasoft, Zval =  6.0
     Generated by new atomic code, or converted to UPF format
     Using radial grid of 1269 points,  4 beta functions with: 
                l(1) =   0
                l(2) =   0
                l(3) =   1
                l(4) =   1
     Q(r) pseudized with 0 coefficients 


     PseudoPot. # 5 for H  read from file:
     ~/PSEUDO/H.pbe-rrkjus.UPF
     MD5 check sum: Not computed, couldn't open file
     Pseudo is Ultrasoft, Zval =  1.0
     Generated by new atomic code, or converted to UPF format
     Using radial grid of 1061 points,  2 beta functions with: 
                l(1) =   0
                l(2) =   0
     Q(r) pseudized with 0 coefficients 


     atomic species   valence    mass     pseudopotential
     Ni               10.00    58.69300     Ni( 1.00)
     Mn               15.00    54.93800     Mn( 1.00)
     P                 5.00    30.97300     P ( 1.00)
     O                 6.00    15.99900     O ( 1.00)
     H                 1.00     1.00790     H ( 1.00)

     Starting magnetic structure 
     atomic species   magnetization
     Ni              1.000
     Mn              1.000
     P               1.000
     O               1.000
     H               0.000

     No symmetry found



   Cartesian axes

     site n.     atom                  positions (alat units)
         1        Ni     tau(   1) = (   0.2506570   0.8586301   1.7460606  )
         2        Mn     tau(   2) = (   0.4849727   0.7922569   1.4298438  )
         3        Ni     tau(   3) = (   0.0099166   0.3147980   1.7770697  )
         4        Ni     tau(   4) = (   0.2559633   0.2443239   1.4306739  )
         5        Ni     tau(   5) = (   0.4961466   1.1064648   1.5948314  )
         6        Ni     tau(   6) = (   0.2497854   0.5481636   1.6051322  )
         7        P      tau(   7) = (   0.2072152   1.0031948   1.4309315  )
         8        P      tau(   8) = (   0.4627705   0.6639515   1.7680067  )
         9        P      tau(   9) = (   0.2880368   0.1077753   1.7607118  )
        10        P      tau(  10) = (   0.0387468   0.4409683   1.4352442  )
        11        O      tau(  11) = (   0.1330935   0.9304818   1.5706977  )
        12        O      tau(  12) = (   0.3831504   0.7264978   1.6204600  )
        13        O      tau(  13) = (   0.3628275   0.1744689   1.6127481  )
        14        O      tau(  14) = (   0.1155931   0.3681480   1.5734176  )
        15        O      tau(  15) = (   0.1485558   0.9123257   1.3024039  )
        16        O      tau(  16) = (   0.3999411   0.7624960   1.8844666  )
        17        O      tau(  17) = (   0.3533233   0.2035263   1.8795646  )
        18        O      tau(  18) = (   0.0986482   0.3547482   1.3039728  )
        19        O      tau(  19) = (   0.0982500   0.5998695   1.4410699  )
        20        O      tau(  20) = (   0.3443251   1.0535330   1.7571523  )
        21        O      tau(  21) = (   0.3728385   0.4379153   1.4465920  )
        22        O      tau(  22) = (   0.1208408   0.1132369   1.7503220  )
        23        O      tau(  23) = (   0.1278822   0.6735676   1.7463016  )
        24        O      tau(  24) = (   0.4096499   0.5020876   1.7635143  )
        25        O      tau(  25) = (   0.1476551   0.0545948   1.4347483  )
        26        O      tau(  26) = (   0.3739202   0.9939412   1.4421146  )
        27        Ni     tau(  27) = (   0.2413539   0.8509941   1.1121345  )
        28        Mn     tau(  28) = (   0.4917018   0.7787406   0.7768134  )
        29        Ni     tau(  29) = (   0.0044877   0.2932623   1.1138982  )
        30        Ni     tau(  30) = (   0.2563139   0.2275682   0.7805625  )
        31        Ni     tau(  31) = (   0.4969120   1.0949007   0.9459116  )
        32        Ni     tau(  32) = (   0.2488318   0.5341111   0.9469721  )
        33        P      tau(  33) = (   0.2076029   0.9882917   0.7835381  )
        34        P      tau(  34) = (   0.4577012   0.6460068   1.1076436  )
        35        P      tau(  35) = (   0.2881931   0.0932770   1.1104179  )
        36        P      tau(  36) = (   0.0392916   0.4238898   0.7837243  )
        37        O      tau(  37) = (   0.1306755   0.9148866   0.9233554  )
        38        O      tau(  38) = (   0.3789780   0.7172835   0.9680652  )
        39        O      tau(  39) = (   0.3654852   0.1662865   0.9702638  )
        40        O      tau(  40) = (   0.1163776   0.3546954   0.9254186  )
        41        O      tau(  41) = (   0.1502901   0.8969129   0.6541592  )
        42        O      tau(  42) = (   0.3974525   0.7354243   1.2370031  )
        43        O      tau(  43) = (   0.3483097   0.1789497   1.2412670  )
        44        O      tau(  44) = (   0.0974932   0.3376387   0.6529083  )
        45        O      tau(  45) = (   0.0984699   0.5818903   0.7881021  )
        46        O      tau(  46) = (   0.3459978   1.0405493   1.1018526  )
        47        O      tau(  47) = (   0.3731719   0.4204123   0.7945555  )
        48        O      tau(  48) = (   0.1223503   0.0989699   1.1000566  )
        49        O      tau(  49) = (   0.1235438   0.6536772   1.0980598  )
        50        O      tau(  50) = (   0.4004339   0.4872435   1.1047245  )
        51        O      tau(  51) = (   0.1476543   0.0398268   0.7872561  )
        52        O      tau(  52) = (   0.3728637   0.9843360   0.7931368  )
        53        Ni     tau(  53) = (   0.2406075   0.8410745   0.4603118  )
        54        Mn     tau(  54) = (   0.4909555   0.7688210   0.1249907  )
        55        Ni     tau(  55) = (   0.0037414   0.2833427   0.4620755  )
        56        Ni     tau(  56) = (   0.2555676   0.2176485   0.1287398  )
        57        Ni     tau(  57) = (   0.4961657   1.0849810   0.2940889  )
        58        Ni     tau(  58) = (   0.2480854   0.5241915   0.2951494  )
        59        P      tau(  59) = (   0.2068565   0.9783721   0.1317154  )
        60        P      tau(  60) = (   0.4569549   0.6360871   0.4558210  )
        61        P      tau(  61) = (   0.2874467   0.0833574   0.4585952  )
        62        P      tau(  62) = (   0.0385452   0.4139702   0.1319017  )
        63        O      tau(  63) = (   0.1299291   0.9049669   0.2715327  )
        64        O      tau(  64) = (   0.3782317   0.7073639   0.3162425  )
        65        O      tau(  65) = (   0.3647389   0.1563669   0.3184411  )
        66        O      tau(  66) = (   0.1156313   0.3447757   0.2735959  )
        67        O      tau(  67) = (   0.1495437   0.8869933   0.0023366  )
        68        O      tau(  68) = (   0.3967062   0.7255047   0.5851804  )
        69        O      tau(  69) = (   0.3475634   0.1690300   0.5894443  )
        70        O      tau(  70) = (   0.0967469   0.3277190   0.0010856  )
        71        O      tau(  71) = (   0.0977236   0.5719706   0.1362794  )
        72        O      tau(  72) = (   0.3452514   1.0306297   0.4500300  )
        73        O      tau(  73) = (   0.3724256   0.4104926   0.1427328  )
        74        O      tau(  74) = (   0.1216040   0.0890503   0.4482339  )
        75        O      tau(  75) = (   0.1227974   0.6437575   0.4462371  )
        76        O      tau(  76) = (   0.3996875   0.4773239   0.4529018  )
        77        O      tau(  77) = (   0.1469079   0.0299071   0.1354334  )
        78        O      tau(  78) = (   0.3721173   0.9744163   0.1413141  )
        79        Ni     tau(  79) = (   0.7512968   0.8629757   1.7463792  )
        80        Mn     tau(  80) = (   0.9856283   0.7922987   1.4298132  )
        81        Ni     tau(  81) = (   0.4994156   0.3046718   1.7432553  )
        82        Ni     tau(  82) = (   0.7561331   0.2436078   1.4290244  )
        83        Ni     tau(  83) = (   0.9969098   1.1094576   1.5975923  )
        84        Ni     tau(  84) = (   0.7520413   0.5511724   1.6011549  )
        85        P      tau(  85) = (   0.7080384   1.0032090   1.4301353  )
        86        P      tau(  86) = (   0.9611635   0.6679249   1.7676684  )
        87        P      tau(  87) = (   0.7866251   0.1146576   1.7538485  )
        88        P      tau(  88) = (   0.5392440   0.4429935   1.4323773  )
        89        O      tau(  89) = (   0.6332873   0.9305214   1.5700818  )
        90        O      tau(  90) = (   0.8817828   0.7322621   1.6197895  )
        91        O      tau(  91) = (   0.8630260   0.1746843   1.6073185  )
        92        O      tau(  92) = (   0.6180632   0.3716942   1.5710585  )
        93        O      tau(  93) = (   0.6497195   0.9106468   1.3026397  )
        94        O      tau(  94) = (   0.9019451   0.7695149   1.8836030  )
        95        O      tau(  95) = (   0.8435869   0.2142205   1.8732697  )
        96        O      tau(  96) = (   0.5989220   0.3556149   1.3022932  )
        97        O      tau(  97) = (   0.5988978   0.6014494   1.4382358  )
        98        O      tau(  98) = (   0.8418133   1.0593846   1.7579884  )
        99        O      tau(  99) = (   0.8718788   0.4384067   1.4450747  )
       100        O      tau( 100) = (   0.6185655   0.1172295   1.7419182  )
       101        O      tau( 101) = (   0.6296522   0.6725592   1.7491468  )
       102        O      tau( 102) = (   0.9012154   0.5091499   1.7607365  )
       103        O      tau( 103) = (   0.6461684   0.0538532   1.4316752  )
       104        O      tau( 104) = (   0.8745741   0.9956699   1.4422503  )
       105        Ni     tau( 105) = (   0.7413539   0.8509941   1.1121345  )
       106        Mn     tau( 106) = (   0.9917018   0.7787406   0.7768134  )
       107        Ni     tau( 107) = (   0.5044877   0.2932623   1.1138982  )
       108        Ni     tau( 108) = (   0.7563139   0.2275682   0.7805625  )
       109        Ni     tau( 109) = (   0.9969120   1.0949007   0.9459116  )
       110        Ni     tau( 110) = (   0.7488318   0.5341111   0.9469721  )
       111        P      tau( 111) = (   0.7076029   0.9882917   0.7835381  )
       112        P      tau( 112) = (   0.9577012   0.6460068   1.1076436  )
       113        P      tau( 113) = (   0.7881931   0.0932770   1.1104179  )
       114        P      tau( 114) = (   0.5392916   0.4238898   0.7837243  )
       115        O      tau( 115) = (   0.6306755   0.9148866   0.9233554  )
       116        O      tau( 116) = (   0.8789780   0.7172835   0.9680652  )
       117        O      tau( 117) = (   0.8654852   0.1662865   0.9702638  )
       118        O      tau( 118) = (   0.6163776   0.3546954   0.9254186  )
       119        O      tau( 119) = (   0.6502901   0.8969129   0.6541592  )
       120        O      tau( 120) = (   0.8974525   0.7354243   1.2370031  )
       121        O      tau( 121) = (   0.8483097   0.1789497   1.2412670  )
       122        O      tau( 122) = (   0.5974932   0.3376387   0.6529083  )
       123        O      tau( 123) = (   0.5984699   0.5818903   0.7881021  )
       124        O      tau( 124) = (   0.8459978   1.0405493   1.1018526  )
       125        O      tau( 125) = (   0.8731719   0.4204123   0.7945555  )
       126        O      tau( 126) = (   0.6223503   0.0989699   1.1000566  )
       127        O      tau( 127) = (   0.6235438   0.6536772   1.0980598  )
       128        O      tau( 128) = (   0.9004339   0.4872435   1.1047245  )
       129        O      tau( 129) = (   0.6476543   0.0398268   0.7872561  )
       130        O      tau( 130) = (   0.8728637   0.9843360   0.7931368  )
       131        Ni     tau( 131) = (   0.7406075   0.8410745   0.4603118  )
       132        Mn     tau( 132) = (   0.9909555   0.7688210   0.1249907  )
       133        Ni     tau( 133) = (   0.5037414   0.2833427   0.4620755  )
       134        Ni     tau( 134) = (   0.7555676   0.2176485   0.1287398  )
       135        Ni     tau( 135) = (   0.9961657   1.0849810   0.2940889  )
       136        Ni     tau( 136) = (   0.7480854   0.5241915   0.2951494  )
       137        P      tau( 137) = (   0.7068565   0.9783721   0.1317154  )
       138        P      tau( 138) = (   0.9569549   0.6360871   0.4558210  )
       139        P      tau( 139) = (   0.7874467   0.0833574   0.4585952  )
       140        P      tau( 140) = (   0.5385452   0.4139702   0.1319017  )
       141        O      tau( 141) = (   0.6299291   0.9049669   0.2715327  )
       142        O      tau( 142) = (   0.8782317   0.7073639   0.3162425  )
       143        O      tau( 143) = (   0.8647389   0.1563669   0.3184411  )
       144        O      tau( 144) = (   0.6156313   0.3447757   0.2735959  )
       145        O      tau( 145) = (   0.6495437   0.8869933   0.0023366  )
       146        O      tau( 146) = (   0.8967062   0.7255047   0.5851804  )
       147        O      tau( 147) = (   0.8475634   0.1690300   0.5894443  )
       148        O      tau( 148) = (   0.5967469   0.3277190   0.0010856  )
       149        O      tau( 149) = (   0.5977236   0.5719706   0.1362794  )
       150        O      tau( 150) = (   0.8452514   1.0306297   0.4500300  )
       151        O      tau( 151) = (   0.8724256   0.4104926   0.1427328  )
       152        O      tau( 152) = (   0.6216040   0.0890503   0.4482339  )
       153        O      tau( 153) = (   0.6227974   0.6437575   0.4462371  )
       154        O      tau( 154) = (   0.8996875   0.4773239   0.4529018  )
       155        O      tau( 155) = (   0.6469079   0.0299071   0.1354334  )
       156        O      tau( 156) = (   0.8721173   0.9744163   0.1413141  )
       157        O      tau( 157) = (   0.1267511   0.3974856   1.9116046  )
       158        H      tau( 158) = (   0.2123993   0.3350718   1.9350536  )

     -------------------------------------------------
     Parameters for Dispersion (Grimme-D2) Correction:
     -------------------------------------------------
       atom      VdW radius       C_6     

        Ni         2.952        374.666
        Mn         2.952        374.666
        P          3.222        271.980
        O          2.536         24.284
        H          1.892          4.857

     number of k points=     1  Gaussian smearing, width (Ry)=  0.0100
                       cart. coord. in units 2pi/alat
        k(    1) = (   0.0000000   0.0000000   0.0000000), wk =   1.0000000

     Dense  grid:  1938023 G-vectors     FFT dimensions: ( 125, 144, 450)

     Smooth grid:   490328 G-vectors     FFT dimensions: (  80,  90, 288)

     Estimated max dynamical RAM per process >     326.29 MB

     Estimated total dynamical RAM >      20.39 GB

     Check: negative core charge=   -0.000001
     Generating pointlists ...
     new r_m :   0.0810 (alat units)  1.4105 (a.u.) for type    1
     new r_m :   0.0904 (alat units)  1.5744 (a.u.) for type    2
     new r_m :   0.0681 (alat units)  1.1847 (a.u.) for type    3
     new r_m :   0.0448 (alat units)  0.7793 (a.u.) for type    4
     new r_m :   0.0448 (alat units)  0.7793 (a.u.) for type    5

     Initial potential from superposition of free atoms

     starting charge    1092.8893, renormalised to    1093.0000

     negative rho (up, down):  1.399E-03 4.538E-04
 
     Adding external electric field

     Computed dipole along edir(3) : 
        Dipole                1.6505 Ry au,          4.1952 Debye
        Dipole field          0.0010 Ry au, 
 
        Potential amp.       -0.1114 Ry
        Total length         55.1515 bohr
 
 
     Adding external electric field

     Computed dipole along edir(3) : 
        Dipole                1.6505 Ry au,          4.1952 Debye
        Dipole field          0.0010 Ry au, 
 
        Potential amp.       -0.1114 Ry
        Total length         55.1515 bohr
 
     Starting wfcs are  815 randomized atomic wfcs

     total cpu time spent up to now is       10.5 secs

     Self-consistent Calculation

     iteration #  1     ecut=    50.00 Ry     beta= 0.10
     Davidson diagonalization with overlap
     ethr =  1.00E-02,  avg # of iterations =  6.0

     negative rho (up, down):  3.982E-01 4.817E-06
 
     Adding external electric field

     Computed dipole along edir(3) : 
        Dipole               -3.3523 Ry au,         -8.5207 Debye
        Dipole field         -0.0021 Ry au, 
 
        Potential amp.        0.2263 Ry
        Total length         55.1515 bohr
 
 
     Adding external electric field

     Computed dipole along edir(3) : 
        Dipole               -3.3523 Ry au,         -8.5207 Debye
        Dipole field         -0.0021 Ry au, 
 
        Potential amp.        0.2263 Ry
        Total length         55.1515 bohr
 

     total cpu time spent up to now is       39.7 secs

     total energy              =   -7520.58383510 Ry
     estimated scf accuracy    <     801.22915458 Ry

     total magnetization       =   219.00 Bohr mag/cell
     absolute magnetization    =   307.29 Bohr mag/cell

     iteration #  2     ecut=    50.00 Ry     beta= 0.10
     Davidson diagonalization with overlap
     ethr =  1.00E-02,  avg # of iterations =  2.0

     negative rho (up, down):  3.666E-01 3.326E-06
 
     Adding external electric field

     Computed dipole along edir(3) : 
        Dipole               -2.4378 Ry au,         -6.1964 Debye
        Dipole field         -0.0015 Ry au, 
 
        Potential amp.        0.1646 Ry
        Total length         55.1515 bohr
 
 
     Adding external electric field

     Computed dipole along edir(3) : 
        Dipole               -2.4378 Ry au,         -6.1964 Debye
        Dipole field         -0.0015 Ry au, 
 
        Potential amp.        0.1646 Ry
        Total length         55.1515 bohr
 

     total cpu time spent up to now is       56.4 secs

     total energy              =   -7602.87051969 Ry
     estimated scf accuracy    <     169.63116566 Ry

     total magnetization       =   154.26 Bohr mag/cell
     absolute magnetization    =   203.92 Bohr mag/cell

     iteration #  3     ecut=    50.00 Ry     beta= 0.10
     Davidson diagonalization with overlap
     ethr =  1.00E-02,  avg # of iterations =  1.5

     negative rho (up, down):  3.212E-01 3.066E-06
 
     Adding external electric field

     Computed dipole along edir(3) : 
        Dipole               -2.0220 Ry au,         -5.1394 Debye
        Dipole field         -0.0012 Ry au, 
 
        Potential amp.        0.1365 Ry
        Total length         55.1515 bohr
 
 
     Adding external electric field

     Computed dipole along edir(3) : 
        Dipole               -2.0220 Ry au,         -5.1394 Debye
        Dipole field         -0.0012 Ry au, 
 
        Potential amp.        0.1365 Ry
        Total length         55.1515 bohr
 

     total cpu time spent up to now is       69.4 secs

     total energy              =   -7635.18642251 Ry
     estimated scf accuracy    <     102.18124705 Ry

     total magnetization       =   131.53 Bohr mag/cell
     absolute magnetization    =   182.68 Bohr mag/cell

     iteration #  4     ecut=    50.00 Ry     beta= 0.10
     Davidson diagonalization with overlap
     ethr =  9.35E-03,  avg # of iterations =  1.5

     negative rho (up, down):  2.451E-01 8.349E-07
 
     Adding external electric field

     Computed dipole along edir(3) : 
        Dipole               -1.9098 Ry au,         -4.8542 Debye
        Dipole field         -0.0012 Ry au, 
 
        Potential amp.        0.1289 Ry
        Total length         55.1515 bohr
 
 
     Adding external electric field

     Computed dipole along edir(3) : 
        Dipole               -1.9098 Ry au,         -4.8542 Debye
        Dipole field         -0.0012 Ry au, 
 
        Potential amp.        0.1289 Ry
        Total length         55.1515 bohr
 

     total cpu time spent up to now is       82.7 secs

     total energy              =   -7668.76509854 Ry
     estimated scf accuracy    <      79.99795015 Ry

     total magnetization       =   115.03 Bohr mag/cell
     absolute magnetization    =   167.95 Bohr mag/cell

     iteration #  5     ecut=    50.00 Ry     beta= 0.10
     Davidson diagonalization with overlap
     ethr =  7.32E-03,  avg # of iterations =  1.0

     negative rho (up, down):  1.020E-02 2.588E-07
 
     Adding external electric field

     Computed dipole along edir(3) : 
        Dipole               -1.3516 Ry au,         -3.4354 Debye
        Dipole field         -0.0008 Ry au, 
 
        Potential amp.        0.0913 Ry
        Total length         55.1515 bohr
 
 
     Adding external electric field

     Computed dipole along edir(3) : 
        Dipole               -1.3516 Ry au,         -3.4354 Debye
        Dipole field         -0.0008 Ry au, 
 
        Potential amp.        0.0913 Ry
        Total length         55.1515 bohr
 

     total cpu time spent up to now is       94.4 secs

     total energy              =   -7728.20386100 Ry
     estimated scf accuracy    <      61.74517158 Ry

     total magnetization       =    97.00 Bohr mag/cell
     absolute magnetization    =   150.14 Bohr mag/cell

     iteration #  6     ecut=    50.00 Ry     beta= 0.10
     Davidson diagonalization with overlap
     ethr =  5.65E-03,  avg # of iterations =  1.5

     negative rho (up, down):  2.448E-04 6.301E-04
 
     Adding external electric field

     Computed dipole along edir(3) : 
        Dipole               -1.0028 Ry au,         -2.5489 Debye
        Dipole field         -0.0006 Ry au, 
 
        Potential amp.        0.0677 Ry
        Total length         55.1515 bohr
 
 
     Adding external electric field

     Computed dipole along edir(3) : 
        Dipole               -1.0028 Ry au,         -2.5489 Debye
        Dipole field         -0.0006 Ry au, 
 
        Potential amp.        0.0677 Ry
        Total length         55.1515 bohr
 

     total cpu time spent up to now is      106.9 secs

     total energy              =   -7736.46530102 Ry
     estimated scf accuracy    <       8.92512012 Ry

     total magnetization       =    90.02 Bohr mag/cell
     absolute magnetization    =   119.31 Bohr mag/cell

     iteration #  7     ecut=    50.00 Ry     beta= 0.10
     Davidson diagonalization with overlap
     ethr =  8.17E-04,  avg # of iterations =  8.5

     negative rho (up, down):  2.517E-04 6.109E-04
 
     Adding external electric field

     Computed dipole along edir(3) : 
        Dipole               -1.0055 Ry au,         -2.5557 Debye
        Dipole field         -0.0006 Ry au, 
 
        Potential amp.        0.0679 Ry
        Total length         55.1515 bohr
 
 
     Adding external electric field

     Computed dipole along edir(3) : 
        Dipole               -1.0055 Ry au,         -2.5557 Debye
        Dipole field         -0.0006 Ry au, 
 
        Potential amp.        0.0679 Ry
        Total length         55.1515 bohr
 

     total cpu time spent up to now is      132.0 secs

     total energy              =   -7738.39823821 Ry
     estimated scf accuracy    <      20.54741103 Ry

     total magnetization       =    69.91 Bohr mag/cell
     absolute magnetization    =    86.73 Bohr mag/cell

     iteration #  8     ecut=    50.00 Ry     beta= 0.10
     Davidson diagonalization with overlap
     ethr =  8.17E-04,  avg # of iterations =  1.0

     negative rho (up, down):  2.238E-04 5.667E-04
 
     Adding external electric field

     Computed dipole along edir(3) : 
        Dipole               -1.0043 Ry au,         -2.5526 Debye
        Dipole field         -0.0006 Ry au, 
 
        Potential amp.        0.0678 Ry
        Total length         55.1515 bohr
 
 
     Adding external electric field

     Computed dipole along edir(3) : 
        Dipole               -1.0043 Ry au,         -2.5526 Debye
        Dipole field         -0.0006 Ry au, 
 
        Potential amp.        0.0678 Ry
        Total length         55.1515 bohr
 

     total cpu time spent up to now is      144.0 secs

     total energy              =   -7738.35827381 Ry
     estimated scf accuracy    <      21.81756065 Ry

     total magnetization       =    69.42 Bohr mag/cell
     absolute magnetization    =    85.98 Bohr mag/cell

     iteration #  9     ecut=    50.00 Ry     beta= 0.10
     Davidson diagonalization with overlap
     ethr =  8.17E-04,  avg # of iterations =  1.0

     negative rho (up, down):  2.169E-04 5.451E-04
 
     Adding external electric field

     Computed dipole along edir(3) : 
        Dipole               -1.0068 Ry au,         -2.5591 Debye
        Dipole field         -0.0006 Ry au, 
 
        Potential amp.        0.0680 Ry
        Total length         55.1515 bohr
 
 
     Adding external electric field

     Computed dipole along edir(3) : 
        Dipole               -1.0068 Ry au,         -2.5591 Debye
        Dipole field         -0.0006 Ry au, 
 
        Potential amp.        0.0680 Ry
        Total length         55.1515 bohr
 

     total cpu time spent up to now is      156.2 secs

     total energy              =   -7738.35163508 Ry
     estimated scf accuracy    <      19.18586641 Ry

     total magnetization       =    70.50 Bohr mag/cell
     absolute magnetization    =    86.52 Bohr mag/cell

     iteration # 10     ecut=    50.00 Ry     beta= 0.10
     Davidson diagonalization with overlap
     ethr =  8.17E-04,  avg # of iterations =  1.0

     negative rho (up, down):  1.806E-04 6.293E-04
 
     Adding external electric field

     Computed dipole along edir(3) : 
        Dipole               -1.0457 Ry au,         -2.6580 Debye
        Dipole field         -0.0006 Ry au, 
 
        Potential amp.        0.0706 Ry
        Total length         55.1515 bohr
 
 
     Adding external electric field

     Computed dipole along edir(3) : 
        Dipole               -1.0457 Ry au,         -2.6580 Debye
        Dipole field         -0.0006 Ry au, 
 
        Potential amp.        0.0706 Ry
        Total length         55.1515 bohr
 

     total cpu time spent up to now is      168.1 secs

     total energy              =   -7737.97410103 Ry
     estimated scf accuracy    <      18.61377117 Ry

     total magnetization       =    70.69 Bohr mag/cell
     absolute magnetization    =    86.35 Bohr mag/cell

     iteration # 11     ecut=    50.00 Ry     beta= 0.10
     Davidson diagonalization with overlap
     ethr =  8.17E-04,  avg # of iterations =  1.0

     negative rho (up, down):  1.523E-04 4.386E-04
 
     Adding external electric field

     Computed dipole along edir(3) : 
        Dipole               -1.0726 Ry au,         -2.7264 Debye
        Dipole field         -0.0007 Ry au, 
 
        Potential amp.        0.0724 Ry
        Total length         55.1515 bohr
 
 
     Adding external electric field

     Computed dipole along edir(3) : 
        Dipole               -1.0726 Ry au,         -2.7264 Debye
        Dipole field         -0.0007 Ry au, 
 
        Potential amp.        0.0724 Ry
        Total length         55.1515 bohr
 

     total cpu time spent up to now is      180.0 secs

     total energy              =   -7738.12077043 Ry
     estimated scf accuracy    <      10.64564899 Ry

     total magnetization       =    79.07 Bohr mag/cell
     absolute magnetization    =    91.21 Bohr mag/cell

     iteration # 12     ecut=    50.00 Ry     beta= 0.10
     Davidson diagonalization with overlap
     ethr =  8.17E-04,  avg # of iterations =  1.0

     negative rho (up, down):  1.122E-04 6.004E-04
 
     Adding external electric field

     Computed dipole along edir(3) : 
        Dipole               -1.0253 Ry au,         -2.6060 Debye
        Dipole field         -0.0006 Ry au, 
 
        Potential amp.        0.0692 Ry
        Total length         55.1515 bohr
 
 
     Adding external electric field

     Computed dipole along edir(3) : 
        Dipole               -1.0253 Ry au,         -2.6060 Debye
        Dipole field         -0.0006 Ry au, 
 
        Potential amp.        0.0692 Ry
        Total length         55.1515 bohr
 

     total cpu time spent up to now is      191.3 secs

     total energy              =   -7738.12284651 Ry
     estimated scf accuracy    <       7.30429508 Ry

     total magnetization       =    82.36 Bohr mag/cell
     absolute magnetization    =    93.06 Bohr mag/cell

     iteration # 13     ecut=    50.00 Ry     beta= 0.10
     Davidson diagonalization with overlap
     ethr =  6.68E-04,  avg # of iterations =  1.0

     negative rho (up, down):  9.415E-05 6.282E-04
 
     Adding external electric field

     Computed dipole along edir(3) : 
        Dipole               -1.0149 Ry au,         -2.5796 Debye
        Dipole field         -0.0006 Ry au, 
 
        Potential amp.        0.0685 Ry
        Total length         55.1515 bohr
 
 
     Adding external electric field

     Computed dipole along edir(3) : 
        Dipole               -1.0149 Ry au,         -2.5796 Debye
        Dipole field         -0.0006 Ry au, 
 
        Potential amp.        0.0685 Ry
        Total length         55.1515 bohr
 

     total cpu time spent up to now is      202.7 secs

     total energy              =   -7738.10159192 Ry
     estimated scf accuracy    <       7.03500809 Ry

     total magnetization       =    81.84 Bohr mag/cell
     absolute magnetization    =    91.97 Bohr mag/cell

     iteration # 14     ecut=    50.00 Ry     beta= 0.10
     Davidson diagonalization with overlap
     ethr =  6.44E-04,  avg # of iterations =  1.0

     negative rho (up, down):  1.393E-03 1.326E-03
 
     Adding external electric field

     Computed dipole along edir(3) : 
        Dipole               -0.9302 Ry au,         -2.3642 Debye
        Dipole field         -0.0006 Ry au, 
 
        Potential amp.        0.0628 Ry
        Total length         55.1515 bohr
 
 
     Adding external electric field

     Computed dipole along edir(3) : 
        Dipole               -0.9302 Ry au,         -2.3642 Debye
        Dipole field         -0.0006 Ry au, 
 
        Potential amp.        0.0628 Ry
        Total length         55.1515 bohr
 

     total cpu time spent up to now is      214.2 secs

     total energy              =   -7737.85487604 Ry
     estimated scf accuracy    <       7.01901088 Ry

     total magnetization       =    81.32 Bohr mag/cell
     absolute magnetization    =    91.26 Bohr mag/cell

     iteration # 15     ecut=    50.00 Ry     beta= 0.10
     Davidson diagonalization with overlap
     ethr =  6.42E-04,  avg # of iterations =  1.0

     negative rho (up, down):  5.160E-04 9.398E-04
 
     Adding external electric field

     Computed dipole along edir(3) : 
        Dipole               -0.9221 Ry au,         -2.3438 Debye
        Dipole field         -0.0006 Ry au, 
 
        Potential amp.        0.0623 Ry
        Total length         55.1515 bohr
 
 
     Adding external electric field

     Computed dipole along edir(3) : 
        Dipole               -0.9221 Ry au,         -2.3438 Debye
        Dipole field         -0.0006 Ry au, 
 
        Potential amp.        0.0623 Ry
        Total length         55.1515 bohr
 

     total cpu time spent up to now is      225.7 secs

     total energy              =   -7738.08760832 Ry
     estimated scf accuracy    <       1.43523087 Ry

     total magnetization       =    90.04 Bohr mag/cell
     absolute magnetization    =    97.70 Bohr mag/cell

     iteration # 16     ecut=    50.00 Ry     beta= 0.10
     Davidson diagonalization with overlap
     ethr =  1.31E-04,  avg # of iterations =  2.5

     negative rho (up, down):  8.278E-04 9.109E-04
 
     Adding external electric field

     Computed dipole along edir(3) : 
        Dipole               -0.9191 Ry au,         -2.3361 Debye
        Dipole field         -0.0006 Ry au, 
 
        Potential amp.        0.0621 Ry
        Total length         55.1515 bohr
 
 
     Adding external electric field

     Computed dipole along edir(3) : 
        Dipole               -0.9191 Ry au,         -2.3361 Debye
        Dipole field         -0.0006 Ry au, 
 
        Potential amp.        0.0621 Ry
        Total length         55.1515 bohr
 

     total cpu time spent up to now is      239.1 secs

     total energy              =   -7738.09760239 Ry
     estimated scf accuracy    <       2.14708193 Ry

     total magnetization       =    88.54 Bohr mag/cell
     absolute magnetization    =    96.21 Bohr mag/cell

     iteration # 17     ecut=    50.00 Ry     beta= 0.10
     Davidson diagonalization with overlap
     ethr =  1.31E-04,  avg # of iterations =  1.5

     negative rho (up, down):  1.208E-03 1.131E-03
 
     Adding external electric field

     Computed dipole along edir(3) : 
        Dipole               -0.9179 Ry au,         -2.3330 Debye
        Dipole field         -0.0006 Ry au, 
 
        Potential amp.        0.0620 Ry
        Total length         55.1515 bohr
 
 
     Adding external electric field

     Computed dipole along edir(3) : 
        Dipole               -0.9179 Ry au,         -2.3330 Debye
        Dipole field         -0.0006 Ry au, 
 
        Potential amp.        0.0620 Ry
        Total length         55.1515 bohr
 

     total cpu time spent up to now is      251.4 secs

     total energy              =   -7738.13631354 Ry
     estimated scf accuracy    <       2.45056574 Ry

     total magnetization       =    88.25 Bohr mag/cell
     absolute magnetization    =    96.05 Bohr mag/cell

     iteration # 18     ecut=    50.00 Ry     beta= 0.10
     Davidson diagonalization with overlap
     ethr =  1.31E-04,  avg # of iterations =  1.5

     negative rho (up, down):  6.362E-04 1.453E-03
 
     Adding external electric field

     Computed dipole along edir(3) : 
        Dipole               -0.9092 Ry au,         -2.3109 Debye
        Dipole field         -0.0006 Ry au, 
 
        Potential amp.        0.0614 Ry
        Total length         55.1515 bohr
 
 
     Adding external electric field

     Computed dipole along edir(3) : 
        Dipole               -0.9092 Ry au,         -2.3109 Debye
        Dipole field         -0.0006 Ry au, 
 
        Potential amp.        0.0614 Ry
        Total length         55.1515 bohr
 

     total cpu time spent up to now is      263.5 secs

     total energy              =   -7738.25647421 Ry
     estimated scf accuracy    <       2.00857774 Ry

     total magnetization       =    88.71 Bohr mag/cell
     absolute magnetization    =    96.10 Bohr mag/cell

     iteration # 19     ecut=    50.00 Ry     beta= 0.10
     Davidson diagonalization with overlap
     ethr =  1.31E-04,  avg # of iterations =  2.0

     negative rho (up, down):  1.358E-03 6.276E-04
 
     Adding external electric field

     Computed dipole along edir(3) : 
        Dipole               -0.9513 Ry au,         -2.4179 Debye
        Dipole field         -0.0006 Ry au, 
 
        Potential amp.        0.0642 Ry
        Total length         55.1515 bohr
 
 
     Adding external electric field

     Computed dipole along edir(3) : 
        Dipole               -0.9513 Ry au,         -2.4179 Debye
        Dipole field         -0.0006 Ry au, 
 
        Potential amp.        0.0642 Ry
        Total length         55.1515 bohr
 

     total cpu time spent up to now is      277.3 secs

     total energy              =   -7738.29042859 Ry
     estimated scf accuracy    <       1.77804516 Ry

     total magnetization       =    88.14 Bohr mag/cell
     absolute magnetization    =    92.14 Bohr mag/cell

     iteration # 20     ecut=    50.00 Ry     beta= 0.10
     Davidson diagonalization with overlap
     ethr =  1.31E-04,  avg # of iterations =  1.5

     negative rho (up, down):  1.927E-03 1.033E-04
 
     Adding external electric field

     Computed dipole along edir(3) : 
        Dipole               -0.9320 Ry au,         -2.3689 Debye
        Dipole field         -0.0006 Ry au, 
 
        Potential amp.        0.0629 Ry
        Total length         55.1515 bohr
 
 
     Adding external electric field

     Computed dipole along edir(3) : 
        Dipole               -0.9320 Ry au,         -2.3689 Debye
        Dipole field         -0.0006 Ry au, 
 
        Potential amp.        0.0629 Ry
        Total length         55.1515 bohr
 

     total cpu time spent up to now is      289.6 secs

     total energy              =   -7738.28887243 Ry
     estimated scf accuracy    <       1.03571758 Ry

     total magnetization       =    89.18 Bohr mag/cell
     absolute magnetization    =    92.87 Bohr mag/cell

     iteration # 21     ecut=    50.00 Ry     beta= 0.10
     Davidson diagonalization with overlap
     ethr =  9.48E-05,  avg # of iterations =  1.5

     negative rho (up, down):  5.177E-03 2.564E-03
 
     Adding external electric field

     Computed dipole along edir(3) : 
        Dipole               -0.9089 Ry au,         -2.3102 Debye
        Dipole field         -0.0006 Ry au, 
 
        Potential amp.        0.0614 Ry
        Total length         55.1515 bohr
 
 
     Adding external electric field

     Computed dipole along edir(3) : 
        Dipole               -0.9089 Ry au,         -2.3102 Debye
        Dipole field         -0.0006 Ry au, 
 
        Potential amp.        0.0614 Ry
        Total length         55.1515 bohr
 

     total cpu time spent up to now is      302.3 secs

     total energy              =   -7738.32563803 Ry
     estimated scf accuracy    <       0.64835631 Ry

     total magnetization       =    90.09 Bohr mag/cell
     absolute magnetization    =    93.16 Bohr mag/cell

     iteration # 22     ecut=    50.00 Ry     beta= 0.10
     Davidson diagonalization with overlap
     ethr =  5.93E-05,  avg # of iterations = 12.0

     negative rho (up, down):  6.761E-04 2.369E-04
 
     Adding external electric field

     Computed dipole along edir(3) : 
        Dipole               -0.9074 Ry au,         -2.3063 Debye
        Dipole field         -0.0006 Ry au, 
 
        Potential amp.        0.0613 Ry
        Total length         55.1515 bohr
 
 
     Adding external electric field

     Computed dipole along edir(3) : 
        Dipole               -0.9074 Ry au,         -2.3063 Debye
        Dipole field         -0.0006 Ry au, 
 
        Potential amp.        0.0613 Ry
        Total length         55.1515 bohr
 

     total cpu time spent up to now is      328.0 secs

     total energy              =   -7738.30961132 Ry
     estimated scf accuracy    <       0.54711054 Ry

     total magnetization       =    89.81 Bohr mag/cell
     absolute magnetization    =    91.60 Bohr mag/cell

     iteration # 23     ecut=    50.00 Ry     beta= 0.10
     Davidson diagonalization with overlap
     ethr =  5.01E-05,  avg # of iterations =  2.0

     negative rho (up, down):  5.272E-04 9.789E-05
 
     Adding external electric field

     Computed dipole along edir(3) : 
        Dipole               -0.9264 Ry au,         -2.3547 Debye
        Dipole field         -0.0006 Ry au, 
 
        Potential amp.        0.0625 Ry
        Total length         55.1515 bohr
 
 
     Adding external electric field

     Computed dipole along edir(3) : 
        Dipole               -0.9264 Ry au,         -2.3547 Debye
        Dipole field         -0.0006 Ry au, 
 
        Potential amp.        0.0625 Ry
        Total length         55.1515 bohr
 

     total cpu time spent up to now is      341.0 secs

     total energy              =   -7738.31216485 Ry
     estimated scf accuracy    <       0.28668069 Ry

     total magnetization       =    89.72 Bohr mag/cell
     absolute magnetization    =    90.99 Bohr mag/cell

     iteration # 24     ecut=    50.00 Ry     beta= 0.10
     Davidson diagonalization with overlap
     ethr =  2.62E-05,  avg # of iterations =  3.0

     negative rho (up, down):  1.412E-03 2.038E-04
 
     Adding external electric field

     Computed dipole along edir(3) : 
        Dipole               -0.9027 Ry au,         -2.2945 Debye
        Dipole field         -0.0006 Ry au, 
 
        Potential amp.        0.0609 Ry
        Total length         55.1515 bohr
 
 
     Adding external electric field

     Computed dipole along edir(3) : 
        Dipole               -0.9027 Ry au,         -2.2945 Debye
        Dipole field         -0.0006 Ry au, 
 
        Potential amp.        0.0609 Ry
        Total length         55.1515 bohr
 

     total cpu time spent up to now is      354.1 secs

     total energy              =   -7738.27250001 Ry
     estimated scf accuracy    <       0.29024443 Ry

     total magnetization       =    89.90 Bohr mag/cell
     absolute magnetization    =    91.17 Bohr mag/cell

     iteration # 25     ecut=    50.00 Ry     beta= 0.10
     Davidson diagonalization with overlap
     ethr =  2.62E-05,  avg # of iterations = 11.5

     negative rho (up, down):  9.887E-05 3.317E-06
 
     Adding external electric field

     Computed dipole along edir(3) : 
        Dipole               -0.8811 Ry au,         -2.2395 Debye
        Dipole field         -0.0005 Ry au, 
 
        Potential amp.        0.0595 Ry
        Total length         55.1515 bohr
 
 
     Adding external electric field

     Computed dipole along edir(3) : 
        Dipole               -0.8811 Ry au,         -2.2395 Debye
        Dipole field         -0.0005 Ry au, 
 
        Potential amp.        0.0595 Ry
        Total length         55.1515 bohr
 

     total cpu time spent up to now is      375.9 secs

     total energy              =   -7738.29774909 Ry
     estimated scf accuracy    <       0.14217847 Ry

     total magnetization       =    89.19 Bohr mag/cell
     absolute magnetization    =    90.10 Bohr mag/cell

     iteration # 26     ecut=    50.00 Ry     beta= 0.10
     Davidson diagonalization with overlap
     ethr =  1.30E-05,  avg # of iterations =  3.0

     negative rho (up, down):  1.157E-03 6.429E-04
 
     Adding external electric field

     Computed dipole along edir(3) : 
        Dipole               -0.8151 Ry au,         -2.0717 Debye
        Dipole field         -0.0005 Ry au, 
 
        Potential amp.        0.0550 Ry
        Total length         55.1515 bohr
 
 
     Adding external electric field

     Computed dipole along edir(3) : 
        Dipole               -0.8151 Ry au,         -2.0717 Debye
        Dipole field         -0.0005 Ry au, 
 
        Potential amp.        0.0550 Ry
        Total length         55.1515 bohr
 

     total cpu time spent up to now is      389.2 secs

     total energy              =   -7738.30117584 Ry
     estimated scf accuracy    <       0.23571997 Ry

     total magnetization       =    89.17 Bohr mag/cell
     absolute magnetization    =    90.51 Bohr mag/cell

     iteration # 27     ecut=    50.00 Ry     beta= 0.10
     Davidson diagonalization with overlap
     ethr =  1.30E-05,  avg # of iterations =  2.0

     negative rho (up, down):  4.051E-04 1.205E-04
 
     Adding external electric field

     Computed dipole along edir(3) : 
        Dipole               -0.8085 Ry au,         -2.0551 Debye
        Dipole field         -0.0005 Ry au, 
 
        Potential amp.        0.0546 Ry
        Total length         55.1515 bohr
 
 
     Adding external electric field

     Computed dipole along edir(3) : 
        Dipole               -0.8085 Ry au,         -2.0551 Debye
        Dipole field         -0.0005 Ry au, 
 
        Potential amp.        0.0546 Ry
        Total length         55.1515 bohr
 

     total cpu time spent up to now is      401.5 secs

     total energy              =   -7738.30928171 Ry
     estimated scf accuracy    <       0.23073145 Ry

     total magnetization       =    89.24 Bohr mag/cell
     absolute magnetization    =    90.48 Bohr mag/cell

     iteration # 28     ecut=    50.00 Ry     beta= 0.10
     Davidson diagonalization with overlap
     ethr =  1.30E-05,  avg # of iterations =  2.0

     negative rho (up, down):  1.328E-04 1.336E-05
 
     Adding external electric field

     Computed dipole along edir(3) : 
        Dipole               -0.8217 Ry au,         -2.0885 Debye
        Dipole field         -0.0005 Ry au, 
 
        Potential amp.        0.0555 Ry
        Total length         55.1515 bohr
 
 
     Adding external electric field

     Computed dipole along edir(3) : 
        Dipole               -0.8217 Ry au,         -2.0885 Debye
        Dipole field         -0.0005 Ry au, 
 
        Potential amp.        0.0555 Ry
        Total length         55.1515 bohr
 

     total cpu time spent up to now is      414.1 secs

     total energy              =   -7738.31050808 Ry
     estimated scf accuracy    <       0.19641666 Ry

     total magnetization       =    89.19 Bohr mag/cell
     absolute magnetization    =    90.53 Bohr mag/cell

     iteration # 29     ecut=    50.00 Ry     beta= 0.10
     Davidson diagonalization with overlap
     ethr =  1.30E-05,  avg # of iterations =  1.0

     negative rho (up, down):  3.571E-05 9.494E-07
 
     Adding external electric field

     Computed dipole along edir(3) : 
        Dipole               -0.8330 Ry au,         -2.1173 Debye
        Dipole field         -0.0005 Ry au, 
 
        Potential amp.        0.0562 Ry
        Total length         55.1515 bohr
 
 
     Adding external electric field

     Computed dipole along edir(3) : 
        Dipole               -0.8330 Ry au,         -2.1173 Debye
        Dipole field         -0.0005 Ry au, 
 
        Potential amp.        0.0562 Ry
        Total length         55.1515 bohr
 

     total cpu time spent up to now is      425.4 secs

     total energy              =   -7738.31352819 Ry
     estimated scf accuracy    <       0.21194783 Ry

     total magnetization       =    89.29 Bohr mag/cell
     absolute magnetization    =    90.64 Bohr mag/cell

     iteration # 30     ecut=    50.00 Ry     beta= 0.10
     Davidson diagonalization with overlap
     ethr =  1.30E-05,  avg # of iterations =  1.5

     negative rho (up, down):  2.317E-03 1.154E-03
 
     Adding external electric field

     Computed dipole along edir(3) : 
        Dipole               -0.7919 Ry au,         -2.0129 Debye
        Dipole field         -0.0005 Ry au, 
 
        Potential amp.        0.0535 Ry
        Total length         55.1515 bohr
 
 
     Adding external electric field

     Computed dipole along edir(3) : 
        Dipole               -0.7919 Ry au,         -2.0129 Debye
        Dipole field         -0.0005 Ry au, 
 
        Potential amp.        0.0535 Ry
        Total length         55.1515 bohr
 

     total cpu time spent up to now is      437.7 secs

     total energy              =   -7738.29557091 Ry
     estimated scf accuracy    <       0.24085487 Ry

     total magnetization       =    89.21 Bohr mag/cell
     absolute magnetization    =    90.52 Bohr mag/cell

     iteration # 31     ecut=    50.00 Ry     beta= 0.10
     Davidson diagonalization with overlap
     ethr =  1.30E-05,  avg # of iterations =  1.5

     negative rho (up, down):  2.840E-03 1.969E-03
 
     Adding external electric field

     Computed dipole along edir(3) : 
        Dipole               -0.7714 Ry au,         -1.9606 Debye
        Dipole field         -0.0005 Ry au, 
 
        Potential amp.        0.0521 Ry
        Total length         55.1515 bohr
 
 
     Adding external electric field

     Computed dipole along edir(3) : 
        Dipole               -0.7714 Ry au,         -1.9606 Debye
        Dipole field         -0.0005 Ry au, 
 
        Potential amp.        0.0521 Ry
        Total length         55.1515 bohr
 

     total cpu time spent up to now is      449.6 secs

     total energy              =   -7738.31305126 Ry
     estimated scf accuracy    <       0.24226182 Ry

     total magnetization       =    88.17 Bohr mag/cell
     absolute magnetization    =    89.33 Bohr mag/cell

     iteration # 32     ecut=    50.00 Ry     beta= 0.10
     Davidson diagonalization with overlap
     ethr =  1.30E-05,  avg # of iterations =  1.5

     negative rho (up, down):  2.237E-03 1.251E-03
 
     Adding external electric field

     Computed dipole along edir(3) : 
        Dipole               -0.7646 Ry au,         -1.9434 Debye
        Dipole field         -0.0005 Ry au, 
 
        Potential amp.        0.0516 Ry
        Total length         55.1515 bohr
 
 
     Adding external electric field

     Computed dipole along edir(3) : 
        Dipole               -0.7646 Ry au,         -1.9434 Debye
        Dipole field         -0.0005 Ry au, 
 
        Potential amp.        0.0516 Ry
        Total length         55.1515 bohr
 

     total cpu time spent up to now is      461.2 secs

     total energy              =   -7738.29945681 Ry
     estimated scf accuracy    <       0.66966029 Ry

     total magnetization       =    86.89 Bohr mag/cell
     absolute magnetization    =    88.12 Bohr mag/cell

     iteration # 33     ecut=    50.00 Ry     beta= 0.10
     Davidson diagonalization with overlap
     ethr =  1.30E-05,  avg # of iterations =  1.5

     negative rho (up, down):  4.069E-03 2.558E-03
 
     Adding external electric field

     Computed dipole along edir(3) : 
        Dipole               -0.7566 Ry au,         -1.9232 Debye
        Dipole field         -0.0005 Ry au, 
 
        Potential amp.        0.0511 Ry
        Total length         55.1515 bohr
 
 
     Adding external electric field

     Computed dipole along edir(3) : 
        Dipole               -0.7566 Ry au,         -1.9232 Debye
        Dipole field         -0.0005 Ry au, 
 
        Potential amp.        0.0511 Ry
        Total length         55.1515 bohr
 

     total cpu time spent up to now is      473.1 secs

     total energy              =   -7738.28638110 Ry
     estimated scf accuracy    <       0.31651042 Ry

     total magnetization       =    87.55 Bohr mag/cell
     absolute magnetization    =    88.70 Bohr mag/cell

     iteration # 34     ecut=    50.00 Ry     beta= 0.10
     Davidson diagonalization with overlap
     ethr =  1.30E-05,  avg # of iterations =  1.0

     negative rho (up, down):  4.334E-03 2.798E-03
 
     Adding external electric field

     Computed dipole along edir(3) : 
        Dipole               -0.7543 Ry au,         -1.9173 Debye
        Dipole field         -0.0005 Ry au, 
 
        Potential amp.        0.0509 Ry
        Total length         55.1515 bohr
 
 
     Adding external electric field

     Computed dipole along edir(3) : 
        Dipole               -0.7543 Ry au,         -1.9173 Debye
        Dipole field         -0.0005 Ry au, 
 
        Potential amp.        0.0509 Ry
        Total length         55.1515 bohr
 

     total cpu time spent up to now is      484.9 secs

     total energy              =   -7738.29065316 Ry
     estimated scf accuracy    <       0.11656356 Ry

     total magnetization       =    88.85 Bohr mag/cell
     absolute magnetization    =    89.92 Bohr mag/cell

     iteration # 35     ecut=    50.00 Ry     beta= 0.10
     Davidson diagonalization with overlap
     ethr =  1.07E-05,  avg # of iterations =  1.0

     negative rho (up, down):  6.123E-03 4.201E-03
 
     Adding external electric field

     Computed dipole along edir(3) : 
        Dipole               -0.7188 Ry au,         -1.8270 Debye
        Dipole field         -0.0004 Ry au, 
 
        Potential amp.        0.0485 Ry
        Total length         55.1515 bohr
 
 
     Adding external electric field

     Computed dipole along edir(3) : 
        Dipole               -0.7188 Ry au,         -1.8270 Debye
        Dipole field         -0.0004 Ry au, 
 
        Potential amp.        0.0485 Ry
        Total length         55.1515 bohr
 

     total cpu time spent up to now is      496.1 secs

     total energy              =   -7738.28798977 Ry
     estimated scf accuracy    <       0.12616023 Ry

     total magnetization       =    88.73 Bohr mag/cell
     absolute magnetization    =    89.81 Bohr mag/cell

     iteration # 36     ecut=    50.00 Ry     beta= 0.10
     Davidson diagonalization with overlap
     ethr =  1.07E-05,  avg # of iterations =  1.0

     negative rho (up, down):  1.003E-02 7.696E-03
 
     Adding external electric field

     Computed dipole along edir(3) : 
        Dipole               -0.6825 Ry au,         -1.7348 Debye
        Dipole field         -0.0004 Ry au, 
 
        Potential amp.        0.0461 Ry
        Total length         55.1515 bohr
 
 
     Adding external electric field

     Computed dipole along edir(3) : 
        Dipole               -0.6825 Ry au,         -1.7348 Debye
        Dipole field         -0.0004 Ry au, 
 
        Potential amp.        0.0461 Ry
        Total length         55.1515 bohr
 

     total cpu time spent up to now is      507.3 secs

     total energy              =   -7738.29165520 Ry
     estimated scf accuracy    <       0.12407297 Ry

     total magnetization       =    88.52 Bohr mag/cell
     absolute magnetization    =    89.63 Bohr mag/cell

     iteration # 37     ecut=    50.00 Ry     beta= 0.10
     Davidson diagonalization with overlap
     ethr =  1.07E-05,  avg # of iterations =  2.0

     negative rho (up, down):  1.397E-02 1.034E-02
 
     Adding external electric field

     Computed dipole along edir(3) : 
        Dipole               -0.6571 Ry au,         -1.6703 Debye
        Dipole field         -0.0004 Ry au, 
 
        Potential amp.        0.0444 Ry
        Total length         55.1515 bohr
 
 
     Adding external electric field

     Computed dipole along edir(3) : 
        Dipole               -0.6571 Ry au,         -1.6703 Debye
        Dipole field         -0.0004 Ry au, 
 
        Potential amp.        0.0444 Ry
        Total length         55.1515 bohr
 

     total cpu time spent up to now is      519.7 secs

     total energy              =   -7738.28073906 Ry
     estimated scf accuracy    <       0.16695410 Ry

     total magnetization       =    88.17 Bohr mag/cell
     absolute magnetization    =    89.36 Bohr mag/cell

     iteration # 38     ecut=    50.00 Ry     beta= 0.10
     Davidson diagonalization with overlap
     ethr =  1.07E-05,  avg # of iterations =  1.0

     negative rho (up, down):  9.434E-03 6.930E-03
 
     Adding external electric field

     Computed dipole along edir(3) : 
        Dipole               -0.6760 Ry au,         -1.7181 Debye
        Dipole field         -0.0004 Ry au, 
 
        Potential amp.        0.0456 Ry
        Total length         55.1515 bohr
 
 
     Adding external electric field

     Computed dipole along edir(3) : 
        Dipole               -0.6760 Ry au,         -1.7181 Debye
        Dipole field         -0.0004 Ry au, 
 
        Potential amp.        0.0456 Ry
        Total length         55.1515 bohr
 

     total cpu time spent up to now is      531.0 secs

     total energy              =   -7738.28986229 Ry
     estimated scf accuracy    <       0.10764321 Ry

     total magnetization       =    88.82 Bohr mag/cell
     absolute magnetization    =    90.06 Bohr mag/cell

     iteration # 39     ecut=    50.00 Ry     beta= 0.10
     Davidson diagonalization with overlap
     ethr =  9.85E-06,  avg # of iterations =  1.5

     negative rho (up, down):  6.445E-03 4.486E-03
 
     Adding external electric field

     Computed dipole along edir(3) : 
        Dipole               -0.6898 Ry au,         -1.7532 Debye
        Dipole field         -0.0004 Ry au, 
 
        Potential amp.        0.0466 Ry
        Total length         55.1515 bohr
 
 
     Adding external electric field

     Computed dipole along edir(3) : 
        Dipole               -0.6898 Ry au,         -1.7532 Debye
        Dipole field         -0.0004 Ry au, 
 
        Potential amp.        0.0466 Ry
        Total length         55.1515 bohr
 

     total cpu time spent up to now is      543.1 secs

     total energy              =   -7738.29522324 Ry
     estimated scf accuracy    <       0.12504702 Ry

     total magnetization       =    88.55 Bohr mag/cell
     absolute magnetization    =    89.68 Bohr mag/cell

     iteration # 40     ecut=    50.00 Ry     beta= 0.10
     Davidson diagonalization with overlap
     ethr =  9.85E-06,  avg # of iterations =  1.0

     negative rho (up, down):  1.647E-02 1.297E-02
 
     Adding external electric field

     Computed dipole along edir(3) : 
        Dipole               -0.6268 Ry au,         -1.5931 Debye
        Dipole field         -0.0004 Ry au, 
 
        Potential amp.        0.0423 Ry
        Total length         55.1515 bohr
 
 
     Adding external electric field

     Computed dipole along edir(3) : 
        Dipole               -0.6268 Ry au,         -1.5931 Debye
        Dipole field         -0.0004 Ry au, 
 
        Potential amp.        0.0423 Ry
        Total length         55.1515 bohr
 

     total cpu time spent up to now is      554.6 secs

     total energy              =   -7738.28296674 Ry
     estimated scf accuracy    <       0.14604483 Ry

     total magnetization       =    88.41 Bohr mag/cell
     absolute magnetization    =    89.55 Bohr mag/cell

     iteration # 41     ecut=    50.00 Ry     beta= 0.10
     Davidson diagonalization with overlap
     ethr =  9.85E-06,  avg # of iterations =  2.0

     negative rho (up, down):  2.694E-02 2.303E-02
 
     Adding external electric field

     Computed dipole along edir(3) : 
        Dipole               -0.5803 Ry au,         -1.4750 Debye
        Dipole field         -0.0004 Ry au, 
 
        Potential amp.        0.0392 Ry
        Total length         55.1515 bohr
 
 
     Adding external electric field

     Computed dipole along edir(3) : 
        Dipole               -0.5803 Ry au,         -1.4750 Debye
        Dipole field         -0.0004 Ry au, 
 
        Potential amp.        0.0392 Ry
        Total length         55.1515 bohr
 

     total cpu time spent up to now is      568.1 secs

     total energy              =   -7738.27898492 Ry
     estimated scf accuracy    <       0.10915400 Ry

     total magnetization       =    88.66 Bohr mag/cell
     absolute magnetization    =    89.72 Bohr mag/cell

     iteration # 42     ecut=    50.00 Ry     beta= 0.10
     Davidson diagonalization with overlap
     ethr =  9.85E-06,  avg # of iterations =  1.0

     negative rho (up, down):  2.966E-02 2.578E-02
 
     Adding external electric field

     Computed dipole along edir(3) : 
        Dipole               -0.5533 Ry au,         -1.4064 Debye
        Dipole field         -0.0003 Ry au, 
 
        Potential amp.        0.0374 Ry
        Total length         55.1515 bohr
 
 
     Adding external electric field

     Computed dipole along edir(3) : 
        Dipole               -0.5533 Ry au,         -1.4064 Debye
        Dipole field         -0.0003 Ry au, 
 
        Potential amp.        0.0374 Ry
        Total length         55.1515 bohr
 

     total cpu time spent up to now is      579.2 secs

     total energy              =   -7738.27957370 Ry
     estimated scf accuracy    <       0.09196719 Ry

     total magnetization       =    88.89 Bohr mag/cell
     absolute magnetization    =    89.87 Bohr mag/cell

     iteration # 43     ecut=    50.00 Ry     beta= 0.10
     Davidson diagonalization with overlap
     ethr =  8.41E-06,  avg # of iterations =  1.5

     negative rho (up, down):  4.355E-02 3.800E-02
 
     Adding external electric field

     Computed dipole along edir(3) : 
        Dipole               -0.3463 Ry au,         -0.8802 Debye
        Dipole field         -0.0002 Ry au, 
 
        Potential amp.        0.0234 Ry
        Total length         55.1515 bohr
 
 
     Adding external electric field

     Computed dipole along edir(3) : 
        Dipole               -0.3463 Ry au,         -0.8802 Debye
        Dipole field         -0.0002 Ry au, 
 
        Potential amp.        0.0234 Ry
        Total length         55.1515 bohr
 

     total cpu time spent up to now is      591.3 secs

     total energy              =   -7738.27001380 Ry
     estimated scf accuracy    <       0.09096724 Ry

     total magnetization       =    88.85 Bohr mag/cell
     absolute magnetization    =    89.81 Bohr mag/cell

     iteration # 44     ecut=    50.00 Ry     beta= 0.10
     Davidson diagonalization with overlap
     c_bands:  3 eigenvalues not converged
     ethr =  8.32E-06,  avg # of iterations = 25.5

     negative rho (up, down):  3.180E-02 2.771E-02
 
     Adding external electric field

     Computed dipole along edir(3) : 
        Dipole               -0.4361 Ry au,         -1.1085 Debye
        Dipole field         -0.0003 Ry au, 
 
        Potential amp.        0.0294 Ry
        Total length         55.1515 bohr
 
 
     Adding external electric field

     Computed dipole along edir(3) : 
        Dipole               -0.4361 Ry au,         -1.1085 Debye
        Dipole field         -0.0003 Ry au, 
 
        Potential amp.        0.0294 Ry
        Total length         55.1515 bohr
 

     total cpu time spent up to now is      622.7 secs

     total energy              =   -7738.28043495 Ry
     estimated scf accuracy    <       0.10252774 Ry

     total magnetization       =    88.84 Bohr mag/cell
     absolute magnetization    =    89.73 Bohr mag/cell

     iteration # 45     ecut=    50.00 Ry     beta= 0.10
     Davidson diagonalization with overlap
     ethr =  8.32E-06,  avg # of iterations =  2.0

     negative rho (up, down):  3.588E-02 3.207E-02
 
     Adding external electric field

     Computed dipole along edir(3) : 
        Dipole               -0.4068 Ry au,         -1.0339 Debye
        Dipole field         -0.0002 Ry au, 
 
        Potential amp.        0.0275 Ry
        Total length         55.1515 bohr
 
 
     Adding external electric field

     Computed dipole along edir(3) : 
        Dipole               -0.4068 Ry au,         -1.0339 Debye
        Dipole field         -0.0002 Ry au, 
 
        Potential amp.        0.0275 Ry
        Total length         55.1515 bohr
 

     total cpu time spent up to now is      635.5 secs

     total energy              =   -7738.28343094 Ry
     estimated scf accuracy    <       0.08990347 Ry

     total magnetization       =    88.68 Bohr mag/cell
     absolute magnetization    =    89.57 Bohr mag/cell

     iteration # 46     ecut=    50.00 Ry     beta= 0.10
     Davidson diagonalization with overlap
     ethr =  8.23E-06,  avg # of iterations =  1.5

     negative rho (up, down):  6.382E-02 6.114E-02
 
     Adding external electric field

     Computed dipole along edir(3) : 
        Dipole               -0.2019 Ry au,         -0.5131 Debye
        Dipole field         -0.0001 Ry au, 
 
        Potential amp.        0.0136 Ry
        Total length         55.1515 bohr
 
 
     Adding external electric field

     Computed dipole along edir(3) : 
        Dipole               -0.2019 Ry au,         -0.5131 Debye
        Dipole field         -0.0001 Ry au, 
 
        Potential amp.        0.0136 Ry
        Total length         55.1515 bohr
 

     total cpu time spent up to now is      647.6 secs

     total energy              =   -7738.30052120 Ry
     estimated scf accuracy    <       0.08409640 Ry

     total magnetization       =    88.68 Bohr mag/cell
     absolute magnetization    =    89.58 Bohr mag/cell

     iteration # 47     ecut=    50.00 Ry     beta= 0.10
     Davidson diagonalization with overlap
     ethr =  7.69E-06,  avg # of iterations =  2.0

     negative rho (up, down):  6.203E-02 5.960E-02
 
     Adding external electric field

     Computed dipole along edir(3) : 
        Dipole               -0.2213 Ry au,         -0.5625 Debye
        Dipole field         -0.0001 Ry au, 
 
        Potential amp.        0.0149 Ry
        Total length         55.1515 bohr
 
 
     Adding external electric field

     Computed dipole along edir(3) : 
        Dipole               -0.2213 Ry au,         -0.5625 Debye
        Dipole field         -0.0001 Ry au, 
 
        Potential amp.        0.0149 Ry
        Total length         55.1515 bohr
 

     total cpu time spent up to now is      661.0 secs

     total energy              =   -7738.30400889 Ry
     estimated scf accuracy    <       0.07676640 Ry

     total magnetization       =    88.77 Bohr mag/cell
     absolute magnetization    =    89.78 Bohr mag/cell

     iteration # 48     ecut=    50.00 Ry     beta= 0.10
     Davidson diagonalization with overlap
     ethr =  7.02E-06,  avg # of iterations =  1.0

     negative rho (up, down):  4.227E-02 3.956E-02
 
     Adding external electric field

     Computed dipole along edir(3) : 
        Dipole               -0.2270 Ry au,         -0.5770 Debye
        Dipole field         -0.0001 Ry au, 
 
        Potential amp.        0.0153 Ry
        Total length         55.1515 bohr
 
 
     Adding external electric field

     Computed dipole along edir(3) : 
        Dipole               -0.2270 Ry au,         -0.5770 Debye
        Dipole field         -0.0001 Ry au, 
 
        Potential amp.        0.0153 Ry
        Total length         55.1515 bohr
 

     total cpu time spent up to now is      672.0 secs

     total energy              =   -7738.30332165 Ry
     estimated scf accuracy    <       0.08001258 Ry

     total magnetization       =    88.57 Bohr mag/cell
     absolute magnetization    =    89.64 Bohr mag/cell

     iteration # 49     ecut=    50.00 Ry     beta= 0.10
     Davidson diagonalization with overlap
     ethr =  7.02E-06,  avg # of iterations =  2.0

     negative rho (up, down):  6.723E-03 5.255E-03
 
     Adding external electric field

     Computed dipole along edir(3) : 
        Dipole               -0.3419 Ry au,         -0.8690 Debye
        Dipole field         -0.0002 Ry au, 
 
        Potential amp.        0.0231 Ry
        Total length         55.1515 bohr
 
 
     Adding external electric field

     Computed dipole along edir(3) : 
        Dipole               -0.3419 Ry au,         -0.8690 Debye
        Dipole field         -0.0002 Ry au, 
 
        Potential amp.        0.0231 Ry
        Total length         55.1515 bohr
 

     total cpu time spent up to now is      684.7 secs

     total energy              =   -7738.30852809 Ry
     estimated scf accuracy    <       0.06662759 Ry

     total magnetization       =    88.85 Bohr mag/cell
     absolute magnetization    =    89.82 Bohr mag/cell

     iteration # 50     ecut=    50.00 Ry     beta= 0.10
     Davidson diagonalization with overlap
     c_bands:  3 eigenvalues not converged
     ethr =  6.10E-06,  avg # of iterations = 16.0

     negative rho (up, down):  7.067E-03 6.201E-03
 
     Adding external electric field

     Computed dipole along edir(3) : 
        Dipole               -0.2495 Ry au,         -0.6341 Debye
        Dipole field         -0.0002 Ry au, 
 
        Potential amp.        0.0168 Ry
        Total length         55.1515 bohr
 
 
     Adding external electric field

     Computed dipole along edir(3) : 
        Dipole               -0.2495 Ry au,         -0.6341 Debye
        Dipole field         -0.0002 Ry au, 
 
        Potential amp.        0.0168 Ry
        Total length         55.1515 bohr
 

     total cpu time spent up to now is      706.7 secs

     total energy              =   -7738.31485680 Ry
     estimated scf accuracy    <       0.05306730 Ry

     total magnetization       =    88.79 Bohr mag/cell
     absolute magnetization    =    89.83 Bohr mag/cell

     iteration # 51     ecut=    50.00 Ry     beta= 0.10
     Davidson diagonalization with overlap
     ethr =  4.86E-06,  avg # of iterations = 10.5

     negative rho (up, down):  1.101E-02 1.054E-02
 
     Adding external electric field

     Computed dipole along edir(3) : 
        Dipole               -0.1720 Ry au,         -0.4371 Debye
        Dipole field         -0.0001 Ry au, 
 
        Potential amp.        0.0116 Ry
        Total length         55.1515 bohr
 
 
     Adding external electric field

     Computed dipole along edir(3) : 
        Dipole               -0.1720 Ry au,         -0.4371 Debye
        Dipole field         -0.0001 Ry au, 
 
        Potential amp.        0.0116 Ry
        Total length         55.1515 bohr
 

     total cpu time spent up to now is      724.8 secs

     total energy              =   -7738.31608979 Ry
     estimated scf accuracy    <       0.04489617 Ry

     total magnetization       =    88.68 Bohr mag/cell
     absolute magnetization    =    89.99 Bohr mag/cell

     iteration # 52     ecut=    50.00 Ry     beta= 0.10
     Davidson diagonalization with overlap
     ethr =  4.11E-06,  avg # of iterations =  2.0

     negative rho (up, down):  1.222E-02 1.242E-02
 
     Adding external electric field

     Computed dipole along edir(3) : 
        Dipole               -0.1253 Ry au,         -0.3184 Debye
        Dipole field         -0.0001 Ry au, 
 
        Potential amp.        0.0085 Ry
        Total length         55.1515 bohr
 
 
     Adding external electric field

     Computed dipole along edir(3) : 
        Dipole               -0.1253 Ry au,         -0.3184 Debye
        Dipole field         -0.0001 Ry au, 
 
        Potential amp.        0.0085 Ry
        Total length         55.1515 bohr
 

     total cpu time spent up to now is      737.2 secs

     total energy              =   -7738.31591637 Ry
     estimated scf accuracy    <       0.02866005 Ry

     total magnetization       =    88.67 Bohr mag/cell
     absolute magnetization    =    89.99 Bohr mag/cell

     iteration # 53     ecut=    50.00 Ry     beta= 0.10
     Davidson diagonalization with overlap
     ethr =  2.62E-06,  avg # of iterations =  2.0

     negative rho (up, down):  2.439E-03 2.320E-03
 
     Adding external electric field

     Computed dipole along edir(3) : 
        Dipole               -0.1890 Ry au,         -0.4805 Debye
        Dipole field         -0.0001 Ry au, 
 
        Potential amp.        0.0128 Ry
        Total length         55.1515 bohr
 
 
     Adding external electric field

     Computed dipole along edir(3) : 
        Dipole               -0.1890 Ry au,         -0.4805 Debye
        Dipole field         -0.0001 Ry au, 
 
        Potential amp.        0.0128 Ry
        Total length         55.1515 bohr
 

     total cpu time spent up to now is      750.1 secs

     total energy              =   -7738.31611138 Ry
     estimated scf accuracy    <       0.01550367 Ry

     total magnetization       =    88.65 Bohr mag/cell
     absolute magnetization    =    89.95 Bohr mag/cell

     iteration # 54     ecut=    50.00 Ry     beta= 0.10
     Davidson diagonalization with overlap
     c_bands:  4 eigenvalues not converged
     ethr =  1.42E-06,  avg # of iterations = 12.0

     negative rho (up, down):  1.926E-03 1.547E-03
 
     Adding external electric field

     Computed dipole along edir(3) : 
        Dipole               -0.1967 Ry au,         -0.5000 Debye
        Dipole field         -0.0001 Ry au, 
 
        Potential amp.        0.0133 Ry
        Total length         55.1515 bohr
 
 
     Adding external electric field

     Computed dipole along edir(3) : 
        Dipole               -0.1967 Ry au,         -0.5000 Debye
        Dipole field         -0.0001 Ry au, 
 
        Potential amp.        0.0133 Ry
        Total length         55.1515 bohr
 

     total cpu time spent up to now is      769.6 secs

     total energy              =   -7738.31655978 Ry
     estimated scf accuracy    <       0.00744752 Ry

     total magnetization       =    88.62 Bohr mag/cell
     absolute magnetization    =    89.92 Bohr mag/cell

     iteration # 55     ecut=    50.00 Ry     beta= 0.10
     Davidson diagonalization with overlap
     ethr =  6.81E-07,  avg # of iterations =  5.5

     negative rho (up, down):  2.231E-03 1.889E-03
 
     Adding external electric field

     Computed dipole along edir(3) : 
        Dipole               -0.2446 Ry au,         -0.6216 Debye
        Dipole field         -0.0001 Ry au, 
 
        Potential amp.        0.0165 Ry
        Total length         55.1515 bohr
 
 
     Adding external electric field

     Computed dipole along edir(3) : 
        Dipole               -0.2446 Ry au,         -0.6216 Debye
        Dipole field         -0.0001 Ry au, 
 
        Potential amp.        0.0165 Ry
        Total length         55.1515 bohr
 

     total cpu time spent up to now is      784.3 secs

     total energy              =   -7738.31646350 Ry
     estimated scf accuracy    <       0.00282717 Ry

     total magnetization       =    88.70 Bohr mag/cell
     absolute magnetization    =    90.02 Bohr mag/cell

     iteration # 56     ecut=    50.00 Ry     beta= 0.10
     Davidson diagonalization with overlap
     ethr =  2.59E-07,  avg # of iterations =  8.5

     negative rho (up, down):  1.751E-03 1.342E-03
 
     Adding external electric field

     Computed dipole along edir(3) : 
        Dipole               -0.2555 Ry au,         -0.6494 Debye
        Dipole field         -0.0002 Ry au, 
 
        Potential amp.        0.0172 Ry
        Total length         55.1515 bohr
 
 
     Adding external electric field

     Computed dipole along edir(3) : 
        Dipole               -0.2555 Ry au,         -0.6494 Debye
        Dipole field         -0.0002 Ry au, 
 
        Potential amp.        0.0172 Ry
        Total length         55.1515 bohr
 

     total cpu time spent up to now is      801.3 secs

     total energy              =   -7738.31645742 Ry
     estimated scf accuracy    <       0.00193373 Ry

     total magnetization       =    88.68 Bohr mag/cell
     absolute magnetization    =    90.03 Bohr mag/cell

     iteration # 57     ecut=    50.00 Ry     beta= 0.10
     Davidson diagonalization with overlap
     c_bands:  1 eigenvalues not converged
     ethr =  1.77E-07,  avg # of iterations = 11.0

     negative rho (up, down):  7.656E-04 5.334E-04
 
     Adding external electric field

     Computed dipole along edir(3) : 
        Dipole               -0.2739 Ry au,         -0.6962 Debye
        Dipole field         -0.0002 Ry au, 
 
        Potential amp.        0.0185 Ry
        Total length         55.1515 bohr
 
 
     Adding external electric field

     Computed dipole along edir(3) : 
        Dipole               -0.2739 Ry au,         -0.6962 Debye
        Dipole field         -0.0002 Ry au, 
 
        Potential amp.        0.0185 Ry
        Total length         55.1515 bohr
 

     total cpu time spent up to now is      819.4 secs

     total energy              =   -7738.31659865 Ry
     estimated scf accuracy    <       0.00096083 Ry

     total magnetization       =    88.70 Bohr mag/cell
     absolute magnetization    =    90.05 Bohr mag/cell

     iteration # 58     ecut=    50.00 Ry     beta= 0.10
     Davidson diagonalization with overlap
     ethr =  8.79E-08,  avg # of iterations =  2.0

     negative rho (up, down):  2.922E-04 1.889E-04
 
     Adding external electric field

     Computed dipole along edir(3) : 
        Dipole               -0.2967 Ry au,         -0.7542 Debye
[...]
    -5.9699  -5.9385  -5.9297  -5.9067  -5.8855  -5.8773  -5.8645  -5.8406
    -5.8257  -5.7791  -5.7503  -5.7403  -5.7276  -5.6935  -5.6685  -5.6527
    -5.6389  -5.6281  -5.5853  -5.5676  -5.5623  -5.5451  -5.5371  -5.5249
    -5.5144  -5.4873  -5.4741  -5.4428  -5.4003  -5.3656  -5.3308  -5.3149
    -5.2796  -5.2603  -5.2341  -5.1633  -5.1458  -5.1416  -5.1256  -5.1029
    -5.0640  -5.0104  -4.9638  -4.9365  -4.8976  -4.8884  -4.8588  -4.8465
    -4.8201  -4.7924  -4.7810  -4.7404  -4.7245  -4.6913  -4.6376  -4.6019
    -4.5424  -4.4749  -4.4414  -4.4218  -4.4032  -4.3931  -4.3660  -4.3522
    -4.3278  -4.2806  -4.2538  -4.2420  -4.2039  -4.1918  -4.1081  -4.1035
    -4.0874  -4.0440  -4.0379  -4.0180  -3.9552  -3.9319  -3.9188  -3.8797
    -3.8568  -3.8203  -3.8110  -3.7934  -3.7742  -3.7419  -3.7048  -3.6934
    -3.6862  -3.6693  -3.6593  -3.5866  -3.5770  -3.5752  -3.5607  -3.5448
    -3.5331  -3.5161  -3.5069  -3.4820  -3.4479  -3.4419  -3.4275  -3.4063
    -3.3843  -3.3735  -3.3695  -3.3538  -3.3374  -3.3057  -3.2856  -3.2567
    -3.2450  -3.2134  -3.1914  -3.1680  -3.1441  -3.1172  -3.1003  -3.0824
    -3.0741  -3.0637  -3.0528  -3.0346  -3.0183  -3.0013  -2.9853  -2.9372
    -2.9255  -2.9135  -2.9019  -2.8904  -2.8683  -2.8460  -2.8122  -2.7899
    -2.7848  -2.7603  -2.7517  -2.7277  -2.7215  -2.7129  -2.7075  -2.6940
    -2.6729  -2.6660  -2.6620  -2.6370  -2.6276  -2.6148  -2.6066  -2.5790
    -2.5730  -2.5728  -2.5387  -2.5260  -2.5062  -2.4826  -2.4703  -2.4584
    -2.4517  -2.4110  -2.4022  -2.3718  -2.3563  -2.3434  -2.3162  -2.2797
    -2.2740  -2.2688  -2.2245  -2.2108  -2.1881  -2.1762  -2.1525  -2.1396
    -2.1080  -2.0870  -2.0715  -2.0666  -2.0506  -2.0378  -2.0272  -2.0215
    -1.9944  -1.9515  -1.9375  -1.9178  -1.9059  -1.8887  -1.8832  -1.8660
    -1.8388  -1.8337  -1.8288  -1.8215  -1.7919  -1.7146  -1.7080  -1.6782
    -1.6707  -1.6518  -1.6330  -1.6268  -1.6153  -1.6062  -1.5891  -1.5815
    -1.5530  -1.5485  -1.5024  -1.4894  -1.4648  -1.4544  -1.4481  -1.4226
    -1.4030  -1.3929  -1.3835  -1.3621  -1.3573  -1.3310  -1.3051  -1.2973
    -1.2323  -1.2252  -1.1720  -1.1473  -1.1323  -1.1303  -1.0948  -1.0585
    -1.0362  -0.9935  -0.9274  -0.8634  -0.7277  -0.7187  -0.6305  -0.5738
    -0.5219  -0.5075  -0.3551  -0.2518   0.1800   0.2158   0.2381   0.2478
     0.2980   0.3091   0.3213   0.3300   0.3474   0.3590   0.3664   0.3697
     0.3773   0.3871   0.3996   0.4008   0.4057   0.4158   0.4204   0.4270
     0.4352   0.4404   0.4633   0.4665   0.4768   0.4836   0.4899   0.4933
     0.4986   0.4989   0.5094   0.5160   0.5232   0.5332   0.5377   0.5396
     0.5420   0.5656   0.5695   0.5739   0.5976   0.6005   0.6169   0.6197
     0.6268   0.6347   0.6439   0.6468   0.6535   0.6631   0.6649   0.6793
     0.6823   0.6858   0.6997   0.7044   0.7144   0.7156   0.7212   0.7341
     0.7436   0.7507   0.7661   0.7669   0.7781   0.7846   0.7938   0.8097
     0.8114   0.8275   0.8496   0.8576   0.8644   0.8682   0.8708   0.8778
     0.8848   0.9048   0.9098   0.9148   0.9216   0.9535   0.9664   0.9820
     0.9873   1.0355   1.0852   1.1130   1.1239   1.6877   1.7367   1.7485
     1.7754   1.8012   1.8119   1.8182   1.8241   1.8425   1.9100   1.9204
     1.9346   1.9714   1.9815   2.0067   2.0422   2.0468   2.0850   2.0919
     2.1378   2.1447   2.1748   2.1917   2.1966   2.2002   2.2109   2.2345
     2.2437   2.2760   2.2860   2.3056   2.3138   2.3255   2.3446   2.3574
     2.3731   2.3815   2.3876   2.4088   2.4178   2.4220   2.4400   2.4903
     2.5278   2.5329   2.5399   2.5490   2.5539   2.5783   2.5964   2.6169
     2.6618   2.6812   2.7005   2.7077   2.7278   2.8032   2.8058   2.8729
     2.8769   2.8904   3.7082   3.7218   3.7258   3.7841   3.7873   3.7986
     3.9070   3.9339   3.9598   3.9602   3.9833   4.0012   4.0124   4.0389
     4.0546   4.0610   4.1466   4.1487   4.1609   4.1823   4.6608   4.7177
     4.7962   4.8574   4.8845   4.9134   4.9384   4.9700   5.0432   5.0980
     5.1184   5.1489   5.4247   6.2429   6.3752   6.6142   6.6587   6.7599
     6.8098   6.8858   6.8915   6.9221   7.0224   7.0825   7.0921   7.1349
     7.2664   7.3478   7.3552   7.4355   7.4815   7.5349   7.5873   7.6321
     7.6396   7.6799   7.7363   7.7606   7.8096   7.8838   7.9009   7.9086
     8.0159   8.0279   8.0651   8.0912   8.1141   8.1784   8.1891   8.2092
     8.2636   8.2851   8.3032   8.3329   8.3794   8.4256   8.4298   8.4496
     8.4665   8.4788   8.4967   8.5258   8.5545   8.5736   8.5999   8.6223
     8.6645   8.6850   8.7242   8.7520   8.7715   8.7830   8.8290   8.8483

     the Fermi energy is     1.6609 ev

!    total energy              =   -7738.31676967 Ry
     estimated scf accuracy    <       0.00000069 Ry
     smearing contrib. (-TS)   =      -0.02220275 Ry
     internal energy E=F+TS    =   -7738.29456692 Ry

     The total energy is F=E-TS. E is the sum of the following terms:
     one-electron contribution =  -94719.04872102 Ry
     hartree contribution      =   47976.88422447 Ry
     xc contribution           =   -2218.71785425 Ry
     ewald contribution        =   41224.39525720 Ry
     Dispersion Correction     =      -1.80753314 Ry
     electric field correction =       0.00005981 Ry

     total magnetization       =    88.66 Bohr mag/cell
     absolute magnetization    =    90.03 Bohr mag/cell

     convergence has been achieved in  72 iterations

     negative rho (up, down):  1.053E-03 5.886E-04

     Forces acting on atoms (cartesian axes, Ry/au):

     atom    1 type  1   force =    -0.00003411    0.00091478    0.00047832
     atom    2 type  2   force =     0.00037187    0.00007139   -0.00031769
     atom    3 type  1   force =    -0.00176904   -0.00101628   -0.00241102
     atom    4 type  1   force =    -0.00029676   -0.00028197    0.00047214
     atom    5 type  1   force =     0.00084248    0.00006193    0.00004517
     atom    6 type  1   force =    -0.00009238    0.00013970   -0.00051374
     atom    7 type  3   force =    -0.00043210    0.00009534    0.00046780
     atom    8 type  3   force =     0.00015583   -0.00029046   -0.00004878
     atom    9 type  3   force =    -0.00058049   -0.00046234   -0.00000268
     atom   10 type  3   force =     0.00009553   -0.00005425   -0.00029897
     atom   11 type  4   force =    -0.00072090   -0.00007666    0.00042652
     atom   12 type  4   force =    -0.00000983   -0.00027388    0.00046871
     atom   13 type  4   force =    -0.00064847   -0.00031521    0.00067262
     atom   14 type  4   force =     0.00041419   -0.00011668    0.00012955
     atom   15 type  4   force =     0.00039054    0.00004168    0.00002891
     atom   16 type  4   force =     0.00002761    0.00020506    0.00016579
     atom   17 type  4   force =    -0.00021073    0.00079503    0.00092513
     atom   18 type  4   force =     0.00013793    0.00003112   -0.00020726
     atom   19 type  4   force =    -0.00031099    0.00033334   -0.00004540
     atom   20 type  4   force =     0.00003051    0.00039493   -0.00018480
     atom   21 type  4   force =    -0.00006256   -0.00028160    0.00023065
     atom   22 type  4   force =    -0.00027288   -0.00013417    0.00050011
     atom   23 type  4   force =    -0.00026124    0.00014116    0.00035336
     atom   24 type  4   force =     0.00066277   -0.00046759   -0.00043616
     atom   25 type  4   force =     0.00040220   -0.00023269   -0.00077619
     atom   26 type  4   force =     0.00019181    0.00027442    0.00049364
     atom   27 type  1   force =    -0.00645058   -0.00817556   -0.00409251
     atom   28 type  2   force =    -0.01211511    0.00019190   -0.00206783
     atom   29 type  1   force =     0.00435103   -0.00271043    0.00330178
     atom   30 type  1   force =     0.00246170    0.00392259   -0.00185214
     atom   31 type  1   force =     0.00179356   -0.00496343   -0.00046394
     atom   32 type  1   force =    -0.00123936    0.00128211    0.00166589
     atom   33 type  3   force =    -0.00711611   -0.00083641   -0.00042686
     atom   34 type  3   force =    -0.00622480    0.00320687   -0.00198417
     atom   35 type  3   force =     0.00408766   -0.00003015   -0.00411077
     atom   36 type  3   force =     0.00105475   -0.00131570    0.00299235
     atom   37 type  4   force =     0.00871780    0.00530070   -0.00764782
     atom   38 type  4   force =     0.00360158   -0.00099941    0.02066862
     atom   39 type  4   force =    -0.00110521    0.00371259    0.01006585
     atom   40 type  4   force =    -0.00156413   -0.00238324   -0.00876054
     atom   41 type  4   force =     0.00210277    0.00856744    0.00655407
     atom   42 type  4   force =    -0.00688834   -0.00308992   -0.01934801
     atom   43 type  4   force =     0.00951794    0.00739171   -0.00634619
     atom   44 type  4   force =     0.00726194   -0.00308185    0.00597245
     atom   45 type  4   force =     0.00230955    0.00593185   -0.00061354
     atom   46 type  4   force =     0.00341219    0.00085395    0.00501315
     atom   47 type  4   force =    -0.01329856    0.00024055    0.00329819
     atom   48 type  4   force =    -0.01463990    0.00255174   -0.00331652
     atom   49 type  4   force =     0.01325703    0.00289520   -0.00438319
     atom   50 type  4   force =    -0.00415983   -0.00406351    0.00003998
     atom   51 type  4   force =    -0.00443192    0.00272173   -0.00066219
     atom   52 type  4   force =     0.01632036   -0.00323701    0.00421656
     atom   53 type  1   force =    -0.00753376   -0.00700215   -0.00849698
     atom   54 type  2   force =     0.01574170    0.01712574   -0.01001796
     atom   55 type  1   force =     0.00582276   -0.00492876   -0.00612900
     atom   56 type  1   force =    -0.02044791    0.01935494    0.01966140
     atom   57 type  1   force =     0.00446802   -0.00746825   -0.00156474
     atom   58 type  1   force =    -0.00389185   -0.00545988   -0.00122402
     atom   59 type  3   force =    -0.03904393   -0.03835093   -0.05602735
     atom   60 type  3   force =    -0.00487221   -0.00127116   -0.00116629
     atom   61 type  3   force =     0.00273069   -0.00100719   -0.01013509
     atom   62 type  3   force =     0.02908677   -0.04949494   -0.06058536
     atom   63 type  4   force =     0.00627492    0.00351439    0.02096000
     atom   64 type  4   force =     0.00449279    0.00230625    0.01455302
     atom   65 type  4   force =    -0.00067613    0.00292425    0.01274788
     atom   66 type  4   force =     0.00013711    0.00214526    0.01615069
     atom   67 type  4   force =     0.00106567   -0.00060968    0.03917599
     atom   68 type  4   force =    -0.00569052   -0.00392089   -0.01718288
     atom   69 type  4   force =     0.00782056    0.00450071   -0.00260342
     atom   70 type  4   force =     0.00172542   -0.00731458    0.03552585
     atom   71 type  4   force =    -0.00913671    0.03910171    0.00094026
     atom   72 type  4   force =     0.00227222   -0.00044604    0.00793230
     atom   73 type  4   force =    -0.03004125    0.00087256    0.00763694
     atom   74 type  4   force =    -0.01349763    0.00143598   -0.00043864
     atom   75 type  4   force =     0.01196068    0.00348681   -0.00252386
     atom   76 type  4   force =    -0.00241035   -0.00290347    0.00254648
     atom   77 type  4   force =     0.00918528    0.02576179   -0.00256317
     atom   78 type  4   force =     0.03347203   -0.00637429    0.00618318
     atom   79 type  1   force =    -0.00017422    0.00065866    0.00004552
     atom   80 type  2   force =     0.00009509   -0.00024492   -0.00005086
     atom   81 type  1   force =     0.00054613   -0.00006050    0.00007085
     atom   82 type  1   force =    -0.00027118    0.00005132    0.00050875
     atom   83 type  1   force =     0.00090771    0.00005655    0.00049659
     atom   84 type  1   force =    -0.00044391   -0.00015211   -0.00054105
     atom   85 type  3   force =    -0.00035234   -0.00009242    0.00030726
     atom   86 type  3   force =    -0.00032095   -0.00009436    0.00011675
     atom   87 type  3   force =     0.00010952    0.00002259    0.00039741
     atom   88 type  3   force =     0.00067965    0.00010406   -0.00031775
     atom   89 type  4   force =    -0.00061107   -0.00040646    0.00038361
     atom   90 type  4   force =     0.00060495    0.00036873    0.00013377
     atom   91 type  4   force =    -0.00038594    0.00043712    0.00073830
     atom   92 type  4   force =     0.00017812    0.00032314    0.00010572
     atom   93 type  4   force =     0.00005456    0.00059651   -0.00030145
     atom   94 type  4   force =     0.00002853    0.00063571    0.00023940
     atom   95 type  4   force =    -0.00020483    0.00053948    0.00047424
     atom   96 type  4   force =     0.00013279    0.00035504   -0.00018362
     atom   97 type  4   force =    -0.00065609    0.00028496   -0.00048782
     atom   98 type  4   force =    -0.00023776    0.00011242   -0.00007929
     atom   99 type  4   force =     0.00053999    0.00012493   -0.00001231
     atom  100 type  4   force =    -0.00013976    0.00035007    0.00017759
     atom  101 type  4   force =     0.00031690   -0.00010243   -0.00035854
     atom  102 type  4   force =     0.00024793   -0.00031461   -0.00076295
     atom  103 type  4   force =     0.00051512    0.00006255   -0.00047194
     atom  104 type  4   force =    -0.00027870   -0.00006091    0.00072731
     atom  105 type  1   force =    -0.00580978   -0.00888480   -0.00437886
     atom  106 type  2   force =    -0.01211226    0.00014259   -0.00195453
     atom  107 type  1   force =     0.00280225   -0.00409100    0.00045720
     atom  108 type  1   force =     0.00241938    0.00384406   -0.00182119
     atom  109 type  1   force =     0.00182834   -0.00495479   -0.00042095
     atom  110 type  1   force =    -0.00091652    0.00129371    0.00176231
     atom  111 type  3   force =    -0.00707270   -0.00081232   -0.00046702
     atom  112 type  3   force =    -0.00681123    0.00249913   -0.00021754
     atom  113 type  3   force =     0.00400507   -0.00063043   -0.00540874
     atom  114 type  3   force =     0.00114386   -0.00127503    0.00290612
     atom  115 type  4   force =     0.00868352    0.00503149   -0.00758545
     atom  116 type  4   force =     0.00355208   -0.00102599    0.02021966
     atom  117 type  4   force =    -0.00121422    0.00355671    0.01013986
     atom  118 type  4   force =    -0.00152396   -0.00246334   -0.00886622
     atom  119 type  4   force =     0.00212913    0.00851950    0.00642667
     atom  120 type  4   force =    -0.00553942   -0.00348614   -0.01956102
     atom  121 type  4   force =     0.00985151    0.00664082   -0.00827445
     atom  122 type  4   force =     0.00706446   -0.00306024    0.00596495
     atom  123 type  4   force =     0.00205509    0.00596113   -0.00058356
     atom  124 type  4   force =     0.00314853    0.00129305    0.00508639
     atom  125 type  4   force =    -0.01318229    0.00021346    0.00322356
     atom  126 type  4   force =    -0.01463012    0.00262165   -0.00347200
     atom  127 type  4   force =     0.01257184    0.00264028   -0.00460381
     atom  128 type  4   force =    -0.00407136   -0.00420686   -0.00039724
     atom  129 type  4   force =    -0.00443053    0.00268155   -0.00057015
     atom  130 type  4   force =     0.01640220   -0.00322803    0.00418085
     atom  131 type  1   force =    -0.00757596   -0.00700328   -0.00850257
     atom  132 type  2   force =     0.01574867    0.01712229   -0.01003220
     atom  133 type  1   force =     0.00583255   -0.00492365   -0.00612625
     atom  134 type  1   force =    -0.02044763    0.01935258    0.01966486
     atom  135 type  1   force =     0.00445410   -0.00745863   -0.00157397
     atom  136 type  1   force =    -0.00391001   -0.00546894   -0.00122611
     atom  137 type  3   force =    -0.03904023   -0.03834667   -0.05603208
     atom  138 type  3   force =    -0.00486675   -0.00127045   -0.00115376
     atom  139 type  3   force =     0.00272221   -0.00100904   -0.01014013
     atom  140 type  3   force =     0.02907753   -0.04949336   -0.06058469
     atom  141 type  4   force =     0.00621080    0.00353701    0.02103360
     atom  142 type  4   force =     0.00439867    0.00231459    0.01457157
     atom  143 type  4   force =    -0.00060587    0.00283076    0.01278835
     atom  144 type  4   force =     0.00017803    0.00223699    0.01634979
     atom  145 type  4   force =     0.00121347   -0.00060724    0.03918247
     atom  146 type  4   force =    -0.00547571   -0.00391367   -0.01720148
     atom  147 type  4   force =     0.00780557    0.00455422   -0.00276304
     atom  148 type  4   force =     0.00162075   -0.00735246    0.03558272
     atom  149 type  4   force =    -0.00934224    0.03909959    0.00094172
     atom  150 type  4   force =     0.00206224   -0.00045007    0.00793366
     atom  151 type  4   force =    -0.02993187    0.00087049    0.00764051
     atom  152 type  4   force =    -0.01359318    0.00144053   -0.00044482
     atom  153 type  4   force =     0.01210983    0.00360387   -0.00253149
     atom  154 type  4   force =    -0.00245809   -0.00279335    0.00246054
     atom  155 type  4   force =     0.00909032    0.02578817   -0.00261973
     atom  156 type  4   force =     0.03344199   -0.00618289    0.00601811
     atom  157 type  4   force =     0.01226495   -0.00548250    0.00433960
     atom  158 type  5   force =    -0.01025841    0.00727124   -0.00239918

     Total force =     0.237843     Total SCF correction =     0.003602
 
     init_run     :      7.59s CPU      8.30s WALL (       1 calls)
     electrons    :    952.60s CPU   1003.32s WALL (       1 calls)
     forces       :      4.12s CPU      4.46s WALL (       1 calls)
     force_london :      0.09s CPU      0.09s WALL (       1 calls)

     Called by init_run:
     wfcinit      :      4.70s CPU      4.90s WALL (       1 calls)
     potinit      :      0.54s CPU      0.72s WALL (       1 calls)
     hinit0       :      1.21s CPU      1.35s WALL (       1 calls)

     Called by electrons:
     c_bands      :    756.57s CPU    783.80s WALL (      72 calls)
     sum_band     :    123.17s CPU    135.35s WALL (      72 calls)
     v_of_rho     :     16.14s CPU     18.06s WALL (      73 calls)
     newd         :     36.05s CPU     45.37s WALL (      73 calls)
     mix_rho      :     19.90s CPU     20.01s WALL (      72 calls)
     energy_londo :      0.09s CPU      0.09s WALL (       1 calls)

     Called by c_bands:
     init_us_2    :      2.27s CPU      2.33s WALL (     292 calls)
     init_us_2:cp :      2.27s CPU      2.33s WALL (     292 calls)
     regterg      :    740.84s CPU    767.88s WALL (     147 calls)

     Called by *egterg:
     rdiaghg      :    221.83s CPU    234.81s WALL (     605 calls)
     h_psi        :    286.94s CPU    293.90s WALL (     607 calls)
     s_psi        :     52.76s CPU     52.84s WALL (     607 calls)
     g_psi        :      0.38s CPU      0.38s WALL (     458 calls)

     Called by h_psi:
     h_psi:calbec :     71.12s CPU     76.71s WALL (     607 calls)
     vloc_psi     :    161.81s CPU    162.58s WALL (     607 calls)
     add_vuspsi   :     53.25s CPU     53.83s WALL (     607 calls)

     General routines
     calbec       :    105.23s CPU    113.59s WALL (     759 calls)
     fft          :     13.83s CPU     16.32s WALL (    1327 calls)
     ffts         :     12.28s CPU     12.31s WALL (    8951 calls)
     fftw         :    183.07s CPU    183.89s WALL (  247560 calls)
     interpolate  :      1.37s CPU      1.60s WALL (     146 calls)
 
     Parallel routines
 
     PWSCF        :  16m 6.43s CPU  16m58.50s WALL

 
   This run was terminated on:  22:33:53  17Nov2025            

=------------------------------------------------------------------------------=
   JOB DONE.
=------------------------------------------------------------------------------=
