
     Program PWSCF v.7.2 starts on 17Nov2025 at 22:50:58 

     This program is part of the open-source Quantum ESPRESSO suite
     for quantum simulation of materials; please cite
         "P. Giannozzi et al., J. Phys.:Condens. Matter 21 395502 (2009);
         "P. Giannozzi et al., J. Phys.:Condens. Matter 29 465901 (2017);
         "P. Giannozzi et al., J. Chem. Phys. 152 154105 (2020);
          URL http://www.quantum-espresso.org", 
     in publications or presentations arising from this work. More details at
     http://www.quantum-espresso.org/quote

     Parallel version (MPI), running on    64 processors

     MPI processes distributed on     4 nodes
     446773 MiB available memory on the printing compute node when the environment starts
 
     Reading input from PWINPUT_atm157_ym

     Current dimensions of program PWSCF are:
     Max number of different atomic species (ntypx) = 10
     Max number of k-points (npk) =  40000
     Max angular momentum in pseudopotentials (lmaxx) =  4
     Presently no symmetry can be used with electric field

     file Ni.pbe-n-rrkjus_psl.1.0.0.UPF: wavefunction(s)  3D renormalized
     file Mn.pbe-spn-rrkjus_psl.0.3.1.UPF: wavefunction(s)  3D renormalized
     file O.pbe-rrkjus.UPF: wavefunction(s)  2S renormalized
     file H.pbe-rrkjus.UPF: wavefunction(s)  1S renormalized

     gamma-point specific algorithms are used
 
     R & G space division:  proc/nbgrp/npool/nimage =      64
     Subspace diagonalization in iterative solution of the eigenvalue problem:
     one sub-group per band group will be used
     custom distributed-memory algorithm (size of sub-group:  7*  7 procs)

 
     Parallelization info
     --------------------
     sticks:   dense  smooth     PW     G-vecs:    dense   smooth      PW
     Min         207      82     20                60552    15302    1896
     Max         210      84     22                60574    15336    1950
     Sum       13325    5345   1333              3876045   980655  122653
 
     Using Slab Decomposition
 


     bravais-lattice index     =            0
     lattice parameter (alat)  =      17.4067  a.u.
     unit-cell volume          =   20529.8182 (a.u.)^3
     number of atoms/cell      =          158
     number of atomic types    =            5
     number of electrons       =      1093.00
     number of Kohn-Sham states=          656
     kinetic-energy cutoff     =      50.0000  Ry
     charge density cutoff     =     500.0000  Ry
     scf convergence threshold =      1.0E-06
     mixing beta               =       0.1000
     number of iterations used =            8  local-TF  mixing
     Exchange-correlation=  SLA  PW   PBE  PBE
                           (   1   4   3   4   0   0   0)

     celldm(1)=  17.406729  celldm(2)=   0.000000  celldm(3)=   0.000000
     celldm(4)=   0.000000  celldm(5)=   0.000000  celldm(6)=   0.000000

     crystal axes: (cart. coord. in units of alat)
               a(1) = (   1.000000   0.000000   0.000000 )  
               a(2) = (  -0.001404   1.105696   0.000000 )  
               a(3) = (   0.000000   0.000000   3.520448 )  

     reciprocal axes: (cart. coord. in units 2 pi/alat)
               b(1) = (  1.000000  0.001270  0.000000 )  
               b(2) = (  0.000000  0.904408  0.000000 )  
               b(3) = (  0.000000  0.000000  0.284055 )  


     PseudoPot. # 1 for Ni read from file:
     ~/PSEUDO/Ni.pbe-n-rrkjus_psl.1.0.0.UPF
     MD5 check sum: Not computed, couldn't open file
     Pseudo is Ultrasoft + core correction, Zval = 10.0
     Generated using "atomic" code by A. Dal Corso  v.5.1.2
     Using radial grid of 1195 points,  6 beta functions with: 
                l(1) =   0
                l(2) =   0
                l(3) =   1
                l(4) =   1
                l(5) =   2
                l(6) =   2
     Q(r) pseudized with 0 coefficients 


     PseudoPot. # 2 for Mn read from file:
     ~/PSEUDO/Mn.pbe-spn-rrkjus_psl.0.3.1.UPF
     MD5 check sum: Not computed, couldn't open file
     Pseudo is Ultrasoft + core correction, Zval = 15.0
     Generated using &quot;atomic&quot; code by A. Dal Corso  v.6.2.2
     Using radial grid of 1187 points,  6 beta functions with: 
                l(1) =   0
                l(2) =   0
                l(3) =   1
                l(4) =   1
                l(5) =   2
                l(6) =   2
     Q(r) pseudized with 0 coefficients 


     PseudoPot. # 3 for P  read from file:
     ~/PSEUDO/P.pbe-n-rrkjus_psl.1.0.0.UPF
     MD5 check sum: Not computed, couldn't open file
     Pseudo is Ultrasoft + core correction, Zval =  5.0
     Generated using "atomic" code by A. Dal Corso  v.5.1
     Using radial grid of 1147 points,  6 beta functions with: 
                l(1) =   0
                l(2) =   0
                l(3) =   1
                l(4) =   1
                l(5) =   2
                l(6) =   2
     Q(r) pseudized with 0 coefficients 


     PseudoPot. # 4 for O  read from file:
     ~/PSEUDO/O.pbe-rrkjus.UPF
     MD5 check sum: Not computed, couldn't open file
     Pseudo is Ultrasoft, Zval =  6.0
     Generated by new atomic code, or converted to UPF format
     Using radial grid of 1269 points,  4 beta functions with: 
                l(1) =   0
                l(2) =   0
                l(3) =   1
                l(4) =   1
     Q(r) pseudized with 0 coefficients 


     PseudoPot. # 5 for H  read from file:
     ~/PSEUDO/H.pbe-rrkjus.UPF
     MD5 check sum: Not computed, couldn't open file
     Pseudo is Ultrasoft, Zval =  1.0
     Generated by new atomic code, or converted to UPF format
     Using radial grid of 1061 points,  2 beta functions with: 
                l(1) =   0
                l(2) =   0
     Q(r) pseudized with 0 coefficients 


     atomic species   valence    mass     pseudopotential
     Ni               10.00    58.69300     Ni( 1.00)
     Mn               15.00    54.93800     Mn( 1.00)
     P                 5.00    30.97300     P ( 1.00)
     O                 6.00    15.99900     O ( 1.00)
     H                 1.00     1.00790     H ( 1.00)

     Starting magnetic structure 
     atomic species   magnetization
     Ni              1.000
     Mn              1.000
     P               1.000
     O               1.000
     H               0.000

     No symmetry found



   Cartesian axes

     site n.     atom                  positions (alat units)
         1        Ni     tau(   1) = (   0.2506570   0.8586301   1.7460606  )
         2        Mn     tau(   2) = (   0.4849727   0.7922569   1.4298438  )
         3        Ni     tau(   3) = (   0.0099166   0.3147980   1.7770697  )
         4        Ni     tau(   4) = (   0.2559633   0.2443239   1.4306739  )
         5        Ni     tau(   5) = (   0.4961466   1.1064648   1.5948314  )
         6        Ni     tau(   6) = (   0.2497854   0.5481636   1.6051322  )
         7        P      tau(   7) = (   0.2072152   1.0031948   1.4309315  )
         8        P      tau(   8) = (   0.4627705   0.6639515   1.7680067  )
         9        P      tau(   9) = (   0.2880368   0.1077753   1.7607118  )
        10        P      tau(  10) = (   0.0387468   0.4409683   1.4352442  )
        11        O      tau(  11) = (   0.1330935   0.9304818   1.5706977  )
        12        O      tau(  12) = (   0.3831504   0.7264978   1.6204600  )
        13        O      tau(  13) = (   0.3628275   0.1744689   1.6127481  )
        14        O      tau(  14) = (   0.1155931   0.3681480   1.5734176  )
        15        O      tau(  15) = (   0.1485558   0.9123257   1.3024039  )
        16        O      tau(  16) = (   0.3999411   0.7624960   1.8844666  )
        17        O      tau(  17) = (   0.3533233   0.2035263   1.8795646  )
        18        O      tau(  18) = (   0.0986482   0.3547482   1.3039728  )
        19        O      tau(  19) = (   0.0982500   0.5998695   1.4410699  )
        20        O      tau(  20) = (   0.3443251   1.0535330   1.7571523  )
        21        O      tau(  21) = (   0.3728385   0.4379153   1.4465920  )
        22        O      tau(  22) = (   0.1208408   0.1132369   1.7503220  )
        23        O      tau(  23) = (   0.1278822   0.6735676   1.7463016  )
        24        O      tau(  24) = (   0.4096499   0.5020876   1.7635143  )
        25        O      tau(  25) = (   0.1476551   0.0545948   1.4347483  )
        26        O      tau(  26) = (   0.3739202   0.9939412   1.4421146  )
        27        Ni     tau(  27) = (   0.2413539   0.8509941   1.1121345  )
        28        Mn     tau(  28) = (   0.4917018   0.7787406   0.7768134  )
        29        Ni     tau(  29) = (   0.0044877   0.2932623   1.1138982  )
        30        Ni     tau(  30) = (   0.2563139   0.2275682   0.7805625  )
        31        Ni     tau(  31) = (   0.4969120   1.0949007   0.9459116  )
        32        Ni     tau(  32) = (   0.2488318   0.5341111   0.9469721  )
        33        P      tau(  33) = (   0.2076029   0.9882917   0.7835381  )
        34        P      tau(  34) = (   0.4577012   0.6460068   1.1076436  )
        35        P      tau(  35) = (   0.2881931   0.0932770   1.1104179  )
        36        P      tau(  36) = (   0.0392916   0.4238898   0.7837243  )
        37        O      tau(  37) = (   0.1306755   0.9148866   0.9233554  )
        38        O      tau(  38) = (   0.3789780   0.7172835   0.9680652  )
        39        O      tau(  39) = (   0.3654852   0.1662865   0.9702638  )
        40        O      tau(  40) = (   0.1163776   0.3546954   0.9254186  )
        41        O      tau(  41) = (   0.1502901   0.8969129   0.6541592  )
        42        O      tau(  42) = (   0.3974525   0.7354243   1.2370031  )
        43        O      tau(  43) = (   0.3483097   0.1789497   1.2412670  )
        44        O      tau(  44) = (   0.0974932   0.3376387   0.6529083  )
        45        O      tau(  45) = (   0.0984699   0.5818903   0.7881021  )
        46        O      tau(  46) = (   0.3459978   1.0405493   1.1018526  )
        47        O      tau(  47) = (   0.3731719   0.4204123   0.7945555  )
        48        O      tau(  48) = (   0.1223503   0.0989699   1.1000566  )
        49        O      tau(  49) = (   0.1235438   0.6536772   1.0980598  )
        50        O      tau(  50) = (   0.4004339   0.4872435   1.1047245  )
        51        O      tau(  51) = (   0.1476543   0.0398268   0.7872561  )
        52        O      tau(  52) = (   0.3728637   0.9843360   0.7931368  )
        53        Ni     tau(  53) = (   0.2406075   0.8410745   0.4603118  )
        54        Mn     tau(  54) = (   0.4909555   0.7688210   0.1249907  )
        55        Ni     tau(  55) = (   0.0037414   0.2833427   0.4620755  )
        56        Ni     tau(  56) = (   0.2555676   0.2176485   0.1287398  )
        57        Ni     tau(  57) = (   0.4961657   1.0849810   0.2940889  )
        58        Ni     tau(  58) = (   0.2480854   0.5241915   0.2951494  )
        59        P      tau(  59) = (   0.2068565   0.9783721   0.1317154  )
        60        P      tau(  60) = (   0.4569549   0.6360871   0.4558210  )
        61        P      tau(  61) = (   0.2874467   0.0833574   0.4585952  )
        62        P      tau(  62) = (   0.0385452   0.4139702   0.1319017  )
        63        O      tau(  63) = (   0.1299291   0.9049669   0.2715327  )
        64        O      tau(  64) = (   0.3782317   0.7073639   0.3162425  )
        65        O      tau(  65) = (   0.3647389   0.1563669   0.3184411  )
        66        O      tau(  66) = (   0.1156313   0.3447757   0.2735959  )
        67        O      tau(  67) = (   0.1495437   0.8869933   0.0023366  )
        68        O      tau(  68) = (   0.3967062   0.7255047   0.5851804  )
        69        O      tau(  69) = (   0.3475634   0.1690300   0.5894443  )
        70        O      tau(  70) = (   0.0967469   0.3277190   0.0010856  )
        71        O      tau(  71) = (   0.0977236   0.5719706   0.1362794  )
        72        O      tau(  72) = (   0.3452514   1.0306297   0.4500300  )
        73        O      tau(  73) = (   0.3724256   0.4104926   0.1427328  )
        74        O      tau(  74) = (   0.1216040   0.0890503   0.4482339  )
        75        O      tau(  75) = (   0.1227974   0.6437575   0.4462371  )
        76        O      tau(  76) = (   0.3996875   0.4773239   0.4529018  )
        77        O      tau(  77) = (   0.1469079   0.0299071   0.1354334  )
        78        O      tau(  78) = (   0.3721173   0.9744163   0.1413141  )
        79        Ni     tau(  79) = (   0.7512968   0.8629757   1.7463792  )
        80        Mn     tau(  80) = (   0.9856283   0.7922987   1.4298132  )
        81        Ni     tau(  81) = (   0.4994156   0.3046718   1.7432553  )
        82        Ni     tau(  82) = (   0.7561331   0.2436078   1.4290244  )
        83        Ni     tau(  83) = (   0.9969098   1.1094576   1.5975923  )
        84        Ni     tau(  84) = (   0.7520413   0.5511724   1.6011549  )
        85        P      tau(  85) = (   0.7080384   1.0032090   1.4301353  )
        86        P      tau(  86) = (   0.9611635   0.6679249   1.7676684  )
        87        P      tau(  87) = (   0.7866251   0.1146576   1.7538485  )
        88        P      tau(  88) = (   0.5392440   0.4429935   1.4323773  )
        89        O      tau(  89) = (   0.6332873   0.9305214   1.5700818  )
        90        O      tau(  90) = (   0.8817828   0.7322621   1.6197895  )
        91        O      tau(  91) = (   0.8630260   0.1746843   1.6073185  )
        92        O      tau(  92) = (   0.6180632   0.3716942   1.5710585  )
        93        O      tau(  93) = (   0.6497195   0.9106468   1.3026397  )
        94        O      tau(  94) = (   0.9019451   0.7695149   1.8836030  )
        95        O      tau(  95) = (   0.8435869   0.2142205   1.8732697  )
        96        O      tau(  96) = (   0.5989220   0.3556149   1.3022932  )
        97        O      tau(  97) = (   0.5988978   0.6014494   1.4382358  )
        98        O      tau(  98) = (   0.8418133   1.0593846   1.7579884  )
        99        O      tau(  99) = (   0.8718788   0.4384067   1.4450747  )
       100        O      tau( 100) = (   0.6185655   0.1172295   1.7419182  )
       101        O      tau( 101) = (   0.6296522   0.6725592   1.7491468  )
       102        O      tau( 102) = (   0.9012154   0.5091499   1.7607365  )
       103        O      tau( 103) = (   0.6461684   0.0538532   1.4316752  )
       104        O      tau( 104) = (   0.8745741   0.9956699   1.4422503  )
       105        Ni     tau( 105) = (   0.7413539   0.8509941   1.1121345  )
       106        Mn     tau( 106) = (   0.9917018   0.7787406   0.7768134  )
       107        Ni     tau( 107) = (   0.5044877   0.2932623   1.1138982  )
       108        Ni     tau( 108) = (   0.7563139   0.2275682   0.7805625  )
       109        Ni     tau( 109) = (   0.9969120   1.0949007   0.9459116  )
       110        Ni     tau( 110) = (   0.7488318   0.5341111   0.9469721  )
       111        P      tau( 111) = (   0.7076029   0.9882917   0.7835381  )
       112        P      tau( 112) = (   0.9577012   0.6460068   1.1076436  )
       113        P      tau( 113) = (   0.7881931   0.0932770   1.1104179  )
       114        P      tau( 114) = (   0.5392916   0.4238898   0.7837243  )
       115        O      tau( 115) = (   0.6306755   0.9148866   0.9233554  )
       116        O      tau( 116) = (   0.8789780   0.7172835   0.9680652  )
       117        O      tau( 117) = (   0.8654852   0.1662865   0.9702638  )
       118        O      tau( 118) = (   0.6163776   0.3546954   0.9254186  )
       119        O      tau( 119) = (   0.6502901   0.8969129   0.6541592  )
       120        O      tau( 120) = (   0.8974525   0.7354243   1.2370031  )
       121        O      tau( 121) = (   0.8483097   0.1789497   1.2412670  )
       122        O      tau( 122) = (   0.5974932   0.3376387   0.6529083  )
       123        O      tau( 123) = (   0.5984699   0.5818903   0.7881021  )
       124        O      tau( 124) = (   0.8459978   1.0405493   1.1018526  )
       125        O      tau( 125) = (   0.8731719   0.4204123   0.7945555  )
       126        O      tau( 126) = (   0.6223503   0.0989699   1.1000566  )
       127        O      tau( 127) = (   0.6235438   0.6536772   1.0980598  )
       128        O      tau( 128) = (   0.9004339   0.4872435   1.1047245  )
       129        O      tau( 129) = (   0.6476543   0.0398268   0.7872561  )
       130        O      tau( 130) = (   0.8728637   0.9843360   0.7931368  )
       131        Ni     tau( 131) = (   0.7406075   0.8410745   0.4603118  )
       132        Mn     tau( 132) = (   0.9909555   0.7688210   0.1249907  )
       133        Ni     tau( 133) = (   0.5037414   0.2833427   0.4620755  )
       134        Ni     tau( 134) = (   0.7555676   0.2176485   0.1287398  )
       135        Ni     tau( 135) = (   0.9961657   1.0849810   0.2940889  )
       136        Ni     tau( 136) = (   0.7480854   0.5241915   0.2951494  )
       137        P      tau( 137) = (   0.7068565   0.9783721   0.1317154  )
       138        P      tau( 138) = (   0.9569549   0.6360871   0.4558210  )
       139        P      tau( 139) = (   0.7874467   0.0833574   0.4585952  )
       140        P      tau( 140) = (   0.5385452   0.4139702   0.1319017  )
       141        O      tau( 141) = (   0.6299291   0.9049669   0.2715327  )
       142        O      tau( 142) = (   0.8782317   0.7073639   0.3162425  )
       143        O      tau( 143) = (   0.8647389   0.1563669   0.3184411  )
       144        O      tau( 144) = (   0.6156313   0.3447757   0.2735959  )
       145        O      tau( 145) = (   0.6495437   0.8869933   0.0023366  )
       146        O      tau( 146) = (   0.8967062   0.7255047   0.5851804  )
       147        O      tau( 147) = (   0.8475634   0.1690300   0.5894443  )
       148        O      tau( 148) = (   0.5967469   0.3277190   0.0010856  )
       149        O      tau( 149) = (   0.5977236   0.5719706   0.1362794  )
       150        O      tau( 150) = (   0.8452514   1.0306297   0.4500300  )
       151        O      tau( 151) = (   0.8724256   0.4104926   0.1427328  )
       152        O      tau( 152) = (   0.6216040   0.0890503   0.4482339  )
       153        O      tau( 153) = (   0.6227974   0.6437575   0.4462371  )
       154        O      tau( 154) = (   0.8996875   0.4773239   0.4529018  )
       155        O      tau( 155) = (   0.6469079   0.0299071   0.1354334  )
       156        O      tau( 156) = (   0.8721173   0.9744163   0.1413141  )
       157        O      tau( 157) = (   0.1278368   0.3964000   1.9116046  )
       158        H      tau( 158) = (   0.2123993   0.3350718   1.9350536  )

     -------------------------------------------------
     Parameters for Dispersion (Grimme-D2) Correction:
     -------------------------------------------------
       atom      VdW radius       C_6     

        Ni         2.952        374.666
        Mn         2.952        374.666
        P          3.222        271.980
        O          2.536         24.284
        H          1.892          4.857

     number of k points=     1  Gaussian smearing, width (Ry)=  0.0100
                       cart. coord. in units 2pi/alat
        k(    1) = (   0.0000000   0.0000000   0.0000000), wk =   1.0000000

     Dense  grid:  1938023 G-vectors     FFT dimensions: ( 125, 144, 450)

     Smooth grid:   490328 G-vectors     FFT dimensions: (  80,  90, 288)

     Estimated max dynamical RAM per process >     326.29 MB

     Estimated total dynamical RAM >      20.39 GB

     Check: negative core charge=   -0.000001
     Generating pointlists ...
     new r_m :   0.0811 (alat units)  1.4119 (a.u.) for type    1
     new r_m :   0.0904 (alat units)  1.5744 (a.u.) for type    2
     new r_m :   0.0681 (alat units)  1.1847 (a.u.) for type    3
     new r_m :   0.0442 (alat units)  0.7687 (a.u.) for type    4
     new r_m :   0.0442 (alat units)  0.7687 (a.u.) for type    5

     Initial potential from superposition of free atoms

     starting charge    1092.8893, renormalised to    1093.0000

     negative rho (up, down):  1.399E-03 4.538E-04
 
     Adding external electric field

     Computed dipole along edir(3) : 
        Dipole                1.6505 Ry au,          4.1952 Debye
        Dipole field          0.0010 Ry au, 
 
        Potential amp.       -0.1114 Ry
        Total length         55.1515 bohr
 
 
     Adding external electric field

     Computed dipole along edir(3) : 
        Dipole                1.6505 Ry au,          4.1952 Debye
        Dipole field          0.0010 Ry au, 
 
        Potential amp.       -0.1114 Ry
        Total length         55.1515 bohr
 
     Starting wfcs are  815 randomized atomic wfcs

     total cpu time spent up to now is       10.5 secs

     Self-consistent Calculation

     iteration #  1     ecut=    50.00 Ry     beta= 0.10
     Davidson diagonalization with overlap
     ethr =  1.00E-02,  avg # of iterations =  6.0

     negative rho (up, down):  3.793E-01 8.542E-07
 
     Adding external electric field

     Computed dipole along edir(3) : 
        Dipole               -3.6873 Ry au,         -9.3721 Debye
        Dipole field         -0.0023 Ry au, 
 
        Potential amp.        0.2490 Ry
        Total length         55.1515 bohr
 
 
     Adding external electric field

     Computed dipole along edir(3) : 
        Dipole               -3.6873 Ry au,         -9.3721 Debye
        Dipole field         -0.0023 Ry au, 
 
        Potential amp.        0.2490 Ry
        Total length         55.1515 bohr
 

     total cpu time spent up to now is       39.6 secs

     total energy              =   -7517.30244969 Ry
     estimated scf accuracy    <     800.74671346 Ry

     total magnetization       =   219.00 Bohr mag/cell
     absolute magnetization    =   307.25 Bohr mag/cell

     iteration #  2     ecut=    50.00 Ry     beta= 0.10
     Davidson diagonalization with overlap
     ethr =  1.00E-02,  avg # of iterations =  2.0

     negative rho (up, down):  3.609E-01 4.628E-07
 
     Adding external electric field

     Computed dipole along edir(3) : 
        Dipole               -2.4243 Ry au,         -6.1618 Debye
        Dipole field         -0.0015 Ry au, 
 
        Potential amp.        0.1637 Ry
        Total length         55.1515 bohr
 
 
     Adding external electric field

     Computed dipole along edir(3) : 
        Dipole               -2.4243 Ry au,         -6.1618 Debye
        Dipole field         -0.0015 Ry au, 
 
        Potential amp.        0.1637 Ry
        Total length         55.1515 bohr
 

     total cpu time spent up to now is       56.1 secs

     total energy              =   -7600.26897538 Ry
     estimated scf accuracy    <     228.04562035 Ry

     total magnetization       =   160.53 Bohr mag/cell
     absolute magnetization    =   208.67 Bohr mag/cell

     iteration #  3     ecut=    50.00 Ry     beta= 0.10
     Davidson diagonalization with overlap
     ethr =  1.00E-02,  avg # of iterations =  1.5

     negative rho (up, down):  3.238E-01 4.014E-07
 
     Adding external electric field

     Computed dipole along edir(3) : 
        Dipole               -2.1448 Ry au,         -5.4517 Debye
        Dipole field         -0.0013 Ry au, 
 
        Potential amp.        0.1448 Ry
        Total length         55.1515 bohr
 
 
     Adding external electric field

     Computed dipole along edir(3) : 
        Dipole               -2.1448 Ry au,         -5.4517 Debye
        Dipole field         -0.0013 Ry au, 
 
        Potential amp.        0.1448 Ry
        Total length         55.1515 bohr
 

     total cpu time spent up to now is       69.2 secs

     total energy              =   -7628.57824664 Ry
     estimated scf accuracy    <     102.07004927 Ry

     total magnetization       =   136.43 Bohr mag/cell
     absolute magnetization    =   186.78 Bohr mag/cell

     iteration #  4     ecut=    50.00 Ry     beta= 0.10
     Davidson diagonalization with overlap
     ethr =  9.34E-03,  avg # of iterations =  1.5

     negative rho (up, down):  2.532E-01 1.519E-07
 
     Adding external electric field

     Computed dipole along edir(3) : 
        Dipole               -1.9463 Ry au,         -4.9469 Debye
        Dipole field         -0.0012 Ry au, 
 
        Potential amp.        0.1314 Ry
        Total length         55.1515 bohr
 
 
     Adding external electric field

     Computed dipole along edir(3) : 
        Dipole               -1.9463 Ry au,         -4.9469 Debye
        Dipole field         -0.0012 Ry au, 
 
        Potential amp.        0.1314 Ry
        Total length         55.1515 bohr
 

     total cpu time spent up to now is       82.2 secs

     total energy              =   -7662.54699698 Ry
     estimated scf accuracy    <      83.67743635 Ry

     total magnetization       =   120.80 Bohr mag/cell
     absolute magnetization    =   172.62 Bohr mag/cell

     iteration #  5     ecut=    50.00 Ry     beta= 0.10
     Davidson diagonalization with overlap
     ethr =  7.66E-03,  avg # of iterations =  1.0

     negative rho (up, down):  3.664E-02 1.104E-07
 
     Adding external electric field

     Computed dipole along edir(3) : 
        Dipole               -1.5173 Ry au,         -3.8566 Debye
        Dipole field         -0.0009 Ry au, 
 
        Potential amp.        0.1024 Ry
        Total length         55.1515 bohr
 
 
     Adding external electric field

     Computed dipole along edir(3) : 
        Dipole               -1.5173 Ry au,         -3.8566 Debye
        Dipole field         -0.0009 Ry au, 
 
        Potential amp.        0.1024 Ry
        Total length         55.1515 bohr
 

     total cpu time spent up to now is       94.7 secs

     total energy              =   -7721.70225215 Ry
     estimated scf accuracy    <      66.36481078 Ry

     total magnetization       =    97.50 Bohr mag/cell
     absolute magnetization    =   153.16 Bohr mag/cell

     iteration #  6     ecut=    50.00 Ry     beta= 0.10
     Davidson diagonalization with overlap
     ethr =  6.07E-03,  avg # of iterations =  1.0

     negative rho (up, down):  7.809E-04 1.303E-03
 
     Adding external electric field

     Computed dipole along edir(3) : 
        Dipole               -1.1600 Ry au,         -2.9484 Debye
        Dipole field         -0.0007 Ry au, 
 
        Potential amp.        0.0783 Ry
        Total length         55.1515 bohr
 
 
     Adding external electric field

     Computed dipole along edir(3) : 
        Dipole               -1.1600 Ry au,         -2.9484 Debye
        Dipole field         -0.0007 Ry au, 
 
        Potential amp.        0.0783 Ry
        Total length         55.1515 bohr
 

     total cpu time spent up to now is      106.1 secs

     total energy              =   -7735.75818381 Ry
     estimated scf accuracy    <      15.36935141 Ry

     total magnetization       =    91.00 Bohr mag/cell
     absolute magnetization    =   125.93 Bohr mag/cell

     iteration #  7     ecut=    50.00 Ry     beta= 0.10
     Davidson diagonalization with overlap
     ethr =  1.41E-03,  avg # of iterations =  6.0

     negative rho (up, down):  7.552E-04 1.273E-03
 
     Adding external electric field

     Computed dipole along edir(3) : 
        Dipole               -1.1644 Ry au,         -2.9597 Debye
        Dipole field         -0.0007 Ry au, 
 
        Potential amp.        0.0786 Ry
        Total length         55.1515 bohr
 
 
     Adding external electric field

     Computed dipole along edir(3) : 
        Dipole               -1.1644 Ry au,         -2.9597 Debye
        Dipole field         -0.0007 Ry au, 
 
        Potential amp.        0.0786 Ry
        Total length         55.1515 bohr
 

     total cpu time spent up to now is      128.2 secs

     total energy              =   -7738.30064465 Ry
     estimated scf accuracy    <      20.58691769 Ry

     total magnetization       =    70.36 Bohr mag/cell
     absolute magnetization    =    87.49 Bohr mag/cell

     iteration #  8     ecut=    50.00 Ry     beta= 0.10
     Davidson diagonalization with overlap
     ethr =  1.41E-03,  avg # of iterations =  1.0

     negative rho (up, down):  7.539E-04 1.267E-03
 
     Adding external electric field

     Computed dipole along edir(3) : 
        Dipole               -1.1501 Ry au,         -2.9233 Debye
        Dipole field         -0.0007 Ry au, 
 
        Potential amp.        0.0777 Ry
        Total length         55.1515 bohr
 
 
     Adding external electric field

     Computed dipole along edir(3) : 
        Dipole               -1.1501 Ry au,         -2.9233 Debye
        Dipole field         -0.0007 Ry au, 
 
        Potential amp.        0.0777 Ry
        Total length         55.1515 bohr
 

     total cpu time spent up to now is      140.7 secs

     total energy              =   -7738.35198605 Ry
     estimated scf accuracy    <      19.94865006 Ry

     total magnetization       =    70.62 Bohr mag/cell
     absolute magnetization    =    87.32 Bohr mag/cell

     iteration #  9     ecut=    50.00 Ry     beta= 0.10
     Davidson diagonalization with overlap
     ethr =  1.41E-03,  avg # of iterations =  1.0

     negative rho (up, down):  7.588E-04 1.260E-03
 
     Adding external electric field

     Computed dipole along edir(3) : 
        Dipole               -1.3073 Ry au,         -3.3230 Debye
        Dipole field         -0.0008 Ry au, 
 
        Potential amp.        0.0883 Ry
        Total length         55.1515 bohr
 
 
     Adding external electric field

     Computed dipole along edir(3) : 
        Dipole               -1.3073 Ry au,         -3.3230 Debye
        Dipole field         -0.0008 Ry au, 
 
        Potential amp.        0.0883 Ry
        Total length         55.1515 bohr
 

     total cpu time spent up to now is      153.0 secs

     total energy              =   -7738.35059033 Ry
     estimated scf accuracy    <      19.91354728 Ry

     total magnetization       =    70.64 Bohr mag/cell
     absolute magnetization    =    87.05 Bohr mag/cell

     iteration # 10     ecut=    50.00 Ry     beta= 0.10
     Davidson diagonalization with overlap
     ethr =  1.41E-03,  avg # of iterations =  1.0

     negative rho (up, down):  4.370E-02 4.980E-02
 
     Adding external electric field

     Computed dipole along edir(3) : 
        Dipole               -2.2942 Ry au,         -5.8312 Debye
        Dipole field         -0.0014 Ry au, 
 
        Potential amp.        0.1549 Ry
        Total length         55.1515 bohr
 
 
     Adding external electric field

     Computed dipole along edir(3) : 
        Dipole               -2.2942 Ry au,         -5.8312 Debye
        Dipole field         -0.0014 Ry au, 
 
        Potential amp.        0.1549 Ry
        Total length         55.1515 bohr
 

     total cpu time spent up to now is      165.2 secs

     total energy              =   -7738.34937738 Ry
     estimated scf accuracy    <      19.60212794 Ry

     total magnetization       =    70.72 Bohr mag/cell
     absolute magnetization    =    86.84 Bohr mag/cell

     iteration # 11     ecut=    50.00 Ry     beta= 0.10
     Davidson diagonalization with overlap
     ethr =  1.41E-03,  avg # of iterations =  1.0

     negative rho (up, down):  1.267E-02 1.647E-02
 
     Adding external electric field

     Computed dipole along edir(3) : 
        Dipole               -1.9552 Ry au,         -4.9696 Debye
        Dipole field         -0.0012 Ry au, 
 
        Potential amp.        0.1320 Ry
        Total length         55.1515 bohr
 
 
     Adding external electric field

     Computed dipole along edir(3) : 
        Dipole               -1.9552 Ry au,         -4.9696 Debye
        Dipole field         -0.0012 Ry au, 
 
        Potential amp.        0.1320 Ry
        Total length         55.1515 bohr
 

     total cpu time spent up to now is      176.6 secs

     total energy              =   -7738.37657741 Ry
     estimated scf accuracy    <      23.76230546 Ry

     total magnetization       =    68.11 Bohr mag/cell
     absolute magnetization    =    84.33 Bohr mag/cell

     iteration # 12     ecut=    50.00 Ry     beta= 0.10
     Davidson diagonalization with overlap
     ethr =  1.41E-03,  avg # of iterations =  1.0

     negative rho (up, down):  1.600E-02 2.011E-02
 
     Adding external electric field

     Computed dipole along edir(3) : 
        Dipole               -1.9783 Ry au,         -5.0283 Debye
        Dipole field         -0.0012 Ry au, 
 
        Potential amp.        0.1336 Ry
        Total length         55.1515 bohr
 
 
     Adding external electric field

     Computed dipole along edir(3) : 
        Dipole               -1.9783 Ry au,         -5.0283 Debye
        Dipole field         -0.0012 Ry au, 
 
        Potential amp.        0.1336 Ry
        Total length         55.1515 bohr
 

     total cpu time spent up to now is      188.3 secs

     total energy              =   -7738.38464040 Ry
     estimated scf accuracy    <      20.75809408 Ry

     total magnetization       =    69.71 Bohr mag/cell
     absolute magnetization    =    85.55 Bohr mag/cell

     iteration # 13     ecut=    50.00 Ry     beta= 0.10
     Davidson diagonalization with overlap
     ethr =  1.41E-03,  avg # of iterations =  1.0

     negative rho (up, down):  5.025E-03 9.290E-03
 
     Adding external electric field

     Computed dipole along edir(3) : 
        Dipole               -1.8734 Ry au,         -4.7617 Debye
        Dipole field         -0.0011 Ry au, 
 
        Potential amp.        0.1265 Ry
        Total length         55.1515 bohr
 
 
     Adding external electric field

     Computed dipole along edir(3) : 
        Dipole               -1.8734 Ry au,         -4.7617 Debye
        Dipole field         -0.0011 Ry au, 
 
        Potential amp.        0.1265 Ry
        Total length         55.1515 bohr
 

     total cpu time spent up to now is      200.5 secs

     total energy              =   -7738.44164612 Ry
     estimated scf accuracy    <      20.83058327 Ry

     total magnetization       =    69.72 Bohr mag/cell
     absolute magnetization    =    85.51 Bohr mag/cell

     iteration # 14     ecut=    50.00 Ry     beta= 0.10
     Davidson diagonalization with overlap
     ethr =  1.41E-03,  avg # of iterations =  1.0

     negative rho (up, down):  1.109E-02 4.381E-03
 
     Adding external electric field

     Computed dipole along edir(3) : 
        Dipole               -1.4898 Ry au,         -3.7867 Debye
        Dipole field         -0.0009 Ry au, 
 
        Potential amp.        0.1006 Ry
        Total length         55.1515 bohr
 
 
     Adding external electric field

     Computed dipole along edir(3) : 
        Dipole               -1.4898 Ry au,         -3.7867 Debye
        Dipole field         -0.0009 Ry au, 
 
        Potential amp.        0.1006 Ry
        Total length         55.1515 bohr
 

     total cpu time spent up to now is      212.0 secs

     total energy              =   -7737.01642296 Ry
     estimated scf accuracy    <      24.17747217 Ry

     total magnetization       =    67.90 Bohr mag/cell
     absolute magnetization    =    83.25 Bohr mag/cell

     iteration # 15     ecut=    50.00 Ry     beta= 0.10
     Davidson diagonalization with overlap
     ethr =  1.41E-03,  avg # of iterations =  1.0

     negative rho (up, down):  1.314E-03 2.405E-04
 
     Adding external electric field

     Computed dipole along edir(3) : 
        Dipole               -1.7775 Ry au,         -4.5180 Debye
        Dipole field         -0.0011 Ry au, 
 
        Potential amp.        0.1200 Ry
        Total length         55.1515 bohr
 
 
     Adding external electric field

     Computed dipole along edir(3) : 
        Dipole               -1.7775 Ry au,         -4.5180 Debye
        Dipole field         -0.0011 Ry au, 
 
        Potential amp.        0.1200 Ry
        Total length         55.1515 bohr
 

     total cpu time spent up to now is      223.2 secs

     total energy              =   -7737.41094990 Ry
     estimated scf accuracy    <      10.45251033 Ry

     total magnetization       =    82.98 Bohr mag/cell
     absolute magnetization    =    96.26 Bohr mag/cell

     iteration # 16     ecut=    50.00 Ry     beta= 0.10
     Davidson diagonalization with overlap
     ethr =  9.56E-04,  avg # of iterations =  1.0

     negative rho (up, down):  1.835E-02 1.047E-02
 
     Adding external electric field

     Computed dipole along edir(3) : 
        Dipole               -2.0680 Ry au,         -5.2564 Debye
        Dipole field         -0.0013 Ry au, 
 
        Potential amp.        0.1396 Ry
        Total length         55.1515 bohr
 
 
     Adding external electric field

     Computed dipole along edir(3) : 
        Dipole               -2.0680 Ry au,         -5.2564 Debye
        Dipole field         -0.0013 Ry au, 
 
        Potential amp.        0.1396 Ry
        Total length         55.1515 bohr
 

     total cpu time spent up to now is      234.8 secs

     total energy              =   -7737.57105284 Ry
     estimated scf accuracy    <       3.93560923 Ry

     total magnetization       =    85.83 Bohr mag/cell
     absolute magnetization    =    98.98 Bohr mag/cell

     iteration # 17     ecut=    50.00 Ry     beta= 0.10
     Davidson diagonalization with overlap
     ethr =  3.60E-04,  avg # of iterations =  1.5

     negative rho (up, down):  4.065E-02 3.495E-02
 
     Adding external electric field

     Computed dipole along edir(3) : 
        Dipole               -2.0148 Ry au,         -5.1211 Debye
        Dipole field         -0.0012 Ry au, 
 
        Potential amp.        0.1360 Ry
        Total length         55.1515 bohr
 
 
     Adding external electric field

     Computed dipole along edir(3) : 
        Dipole               -2.0148 Ry au,         -5.1211 Debye
        Dipole field         -0.0012 Ry au, 
 
        Potential amp.        0.1360 Ry
        Total length         55.1515 bohr
 

     total cpu time spent up to now is      247.0 secs

     total energy              =   -7737.89978553 Ry
     estimated scf accuracy    <       2.00253687 Ry

     total magnetization       =    87.12 Bohr mag/cell
     absolute magnetization    =    99.38 Bohr mag/cell

     iteration # 18     ecut=    50.00 Ry     beta= 0.10
     Davidson diagonalization with overlap
     ethr =  1.83E-04,  avg # of iterations =  1.5

     negative rho (up, down):  2.125E-02 1.964E-02
 
     Adding external electric field

     Computed dipole along edir(3) : 
        Dipole               -1.7412 Ry au,         -4.4258 Debye
        Dipole field         -0.0011 Ry au, 
 
        Potential amp.        0.1176 Ry
        Total length         55.1515 bohr
 
 
     Adding external electric field

     Computed dipole along edir(3) : 
        Dipole               -1.7412 Ry au,         -4.4258 Debye
        Dipole field         -0.0011 Ry au, 
 
        Potential amp.        0.1176 Ry
        Total length         55.1515 bohr
 

     total cpu time spent up to now is      259.3 secs

     total energy              =   -7738.11648555 Ry
     estimated scf accuracy    <       0.81965731 Ry

     total magnetization       =    88.21 Bohr mag/cell
     absolute magnetization    =    97.52 Bohr mag/cell

     iteration # 19     ecut=    50.00 Ry     beta= 0.10
     Davidson diagonalization with overlap
     c_bands:  4 eigenvalues not converged
     ethr =  7.50E-05,  avg # of iterations = 11.0

     negative rho (up, down):  1.846E-02 1.981E-02
 
     Adding external electric field

     Computed dipole along edir(3) : 
        Dipole               -1.6816 Ry au,         -4.2741 Debye
        Dipole field         -0.0010 Ry au, 
 
        Potential amp.        0.1135 Ry
        Total length         55.1515 bohr
 
 
     Adding external electric field

     Computed dipole along edir(3) : 
        Dipole               -1.6816 Ry au,         -4.2741 Debye
        Dipole field         -0.0010 Ry au, 
 
        Potential amp.        0.1135 Ry
        Total length         55.1515 bohr
 

     total cpu time spent up to now is      279.7 secs

     total energy              =   -7738.21891443 Ry
     estimated scf accuracy    <       0.66919796 Ry

     total magnetization       =    89.19 Bohr mag/cell
     absolute magnetization    =    95.96 Bohr mag/cell

     iteration # 20     ecut=    50.00 Ry     beta= 0.10
     Davidson diagonalization with overlap
     ethr =  6.12E-05,  avg # of iterations =  1.5

     negative rho (up, down):  1.016E-03 1.751E-03
 
     Adding external electric field

     Computed dipole along edir(3) : 
        Dipole               -1.5655 Ry au,         -3.9792 Debye
        Dipole field         -0.0010 Ry au, 
 
        Potential amp.        0.1057 Ry
        Total length         55.1515 bohr
 
 
     Adding external electric field

     Computed dipole along edir(3) : 
        Dipole               -1.5655 Ry au,         -3.9792 Debye
        Dipole field         -0.0010 Ry au, 
 
        Potential amp.        0.1057 Ry
        Total length         55.1515 bohr
 

     total cpu time spent up to now is      292.1 secs

     total energy              =   -7738.26605475 Ry
     estimated scf accuracy    <       0.64938482 Ry

     total magnetization       =    88.88 Bohr mag/cell
     absolute magnetization    =    93.91 Bohr mag/cell

     iteration # 21     ecut=    50.00 Ry     beta= 0.10
     Davidson diagonalization with overlap
     ethr =  5.94E-05,  avg # of iterations =  1.5

     negative rho (up, down):  1.243E-05 7.154E-05
 
     Adding external electric field

     Computed dipole along edir(3) : 
        Dipole               -1.3123 Ry au,         -3.3355 Debye
        Dipole field         -0.0008 Ry au, 
 
        Potential amp.        0.0886 Ry
        Total length         55.1515 bohr
 
 
     Adding external electric field

     Computed dipole along edir(3) : 
        Dipole               -1.3123 Ry au,         -3.3355 Debye
        Dipole field         -0.0008 Ry au, 
 
        Potential amp.        0.0886 Ry
        Total length         55.1515 bohr
 

     total cpu time spent up to now is      304.7 secs

     total energy              =   -7738.29119150 Ry
     estimated scf accuracy    <       0.22880956 Ry

     total magnetization       =    89.33 Bohr mag/cell
     absolute magnetization    =    92.73 Bohr mag/cell

     iteration # 22     ecut=    50.00 Ry     beta= 0.10
     Davidson diagonalization with overlap
     ethr =  2.09E-05,  avg # of iterations =  2.5

     negative rho (up, down):  2.080E-05 1.156E-04
 
     Adding external electric field

     Computed dipole along edir(3) : 
        Dipole               -1.2822 Ry au,         -3.2589 Debye
        Dipole field         -0.0008 Ry au, 
 
        Potential amp.        0.0866 Ry
        Total length         55.1515 bohr
 
 
     Adding external electric field

     Computed dipole along edir(3) : 
        Dipole               -1.2822 Ry au,         -3.2589 Debye
        Dipole field         -0.0008 Ry au, 
 
        Potential amp.        0.0866 Ry
        Total length         55.1515 bohr
 

     total cpu time spent up to now is      318.2 secs

     total energy              =   -7738.29591010 Ry
     estimated scf accuracy    <       0.16303369 Ry

     total magnetization       =    88.79 Bohr mag/cell
     absolute magnetization    =    91.65 Bohr mag/cell

     iteration # 23     ecut=    50.00 Ry     beta= 0.10
     Davidson diagonalization with overlap
     ethr =  1.49E-05,  avg # of iterations =  1.5

     negative rho (up, down):  5.552E-04 1.035E-03
 
     Adding external electric field

     Computed dipole along edir(3) : 
        Dipole               -1.1545 Ry au,         -2.9346 Debye
        Dipole field         -0.0007 Ry au, 
 
        Potential amp.        0.0780 Ry
        Total length         55.1515 bohr
 
 
     Adding external electric field

     Computed dipole along edir(3) : 
        Dipole               -1.1545 Ry au,         -2.9346 Debye
        Dipole field         -0.0007 Ry au, 
 
        Potential amp.        0.0780 Ry
        Total length         55.1515 bohr
 

     total cpu time spent up to now is      330.5 secs

     total energy              =   -7738.30129100 Ry
     estimated scf accuracy    <       0.15859206 Ry

     total magnetization       =    88.71 Bohr mag/cell
     absolute magnetization    =    91.47 Bohr mag/cell

     iteration # 24     ecut=    50.00 Ry     beta= 0.10
     Davidson diagonalization with overlap
     ethr =  1.45E-05,  avg # of iterations = 13.0

     negative rho (up, down):  5.148E-04 9.342E-04
 
     Adding external electric field

     Computed dipole along edir(3) : 
        Dipole               -1.1184 Ry au,         -2.8426 Debye
        Dipole field         -0.0007 Ry au, 
 
        Potential amp.        0.0755 Ry
        Total length         55.1515 bohr
 
 
     Adding external electric field

     Computed dipole along edir(3) : 
        Dipole               -1.1184 Ry au,         -2.8426 Debye
        Dipole field         -0.0007 Ry au, 
 
        Potential amp.        0.0755 Ry
        Total length         55.1515 bohr
 

     total cpu time spent up to now is      355.1 secs

     total energy              =   -7738.31115335 Ry
     estimated scf accuracy    <       0.13965492 Ry

     total magnetization       =    88.68 Bohr mag/cell
     absolute magnetization    =    91.20 Bohr mag/cell

     iteration # 25     ecut=    50.00 Ry     beta= 0.10
     Davidson diagonalization with overlap
     ethr =  1.28E-05,  avg # of iterations =  3.0

     negative rho (up, down):  8.210E-04 1.132E-03
 
     Adding external electric field

     Computed dipole along edir(3) : 
        Dipole               -1.0945 Ry au,         -2.7819 Debye
        Dipole field         -0.0007 Ry au, 
 
        Potential amp.        0.0739 Ry
        Total length         55.1515 bohr
 
 
     Adding external electric field

     Computed dipole along edir(3) : 
        Dipole               -1.0945 Ry au,         -2.7819 Debye
        Dipole field         -0.0007 Ry au, 
 
        Potential amp.        0.0739 Ry
        Total length         55.1515 bohr
 

     total cpu time spent up to now is      369.0 secs

     total energy              =   -7738.31816578 Ry
     estimated scf accuracy    <       0.08616976 Ry

     total magnetization       =    88.22 Bohr mag/cell
     absolute magnetization    =    90.24 Bohr mag/cell

     iteration # 26     ecut=    50.00 Ry     beta= 0.10
     Davidson diagonalization with overlap
     ethr =  7.88E-06,  avg # of iterations =  3.0

     negative rho (up, down):  4.492E-04 4.405E-04
 
     Adding external electric field

     Computed dipole along edir(3) : 
        Dipole               -1.2190 Ry au,         -3.0983 Debye
        Dipole field         -0.0007 Ry au, 
 
        Potential amp.        0.0823 Ry
        Total length         55.1515 bohr
 
 
     Adding external electric field

     Computed dipole along edir(3) : 
        Dipole               -1.2190 Ry au,         -3.0983 Debye
        Dipole field         -0.0007 Ry au, 
 
        Potential amp.        0.0823 Ry
        Total length         55.1515 bohr
 

     total cpu time spent up to now is      382.4 secs

     total energy              =   -7738.32021809 Ry
     estimated scf accuracy    <       0.04584222 Ry

     total magnetization       =    88.28 Bohr mag/cell
     absolute magnetization    =    89.79 Bohr mag/cell

     iteration # 27     ecut=    50.00 Ry     beta= 0.10
     Davidson diagonalization with overlap
     c_bands:  4 eigenvalues not converged
     c_bands:  3 eigenvalues not converged
     ethr =  4.19E-06,  avg # of iterations = 20.0

     negative rho (up, down):  2.397E-04 1.722E-04
 
     Adding external electric field

     Computed dipole along edir(3) : 
        Dipole               -1.1292 Ry au,         -2.8700 Debye
        Dipole field         -0.0007 Ry au, 
 
        Potential amp.        0.0762 Ry
        Total length         55.1515 bohr
 
 
     Adding external electric field

     Computed dipole along edir(3) : 
        Dipole               -1.1292 Ry au,         -2.8700 Debye
        Dipole field         -0.0007 Ry au, 
 
        Potential amp.        0.0762 Ry
        Total length         55.1515 bohr
 

     total cpu time spent up to now is      409.1 secs

     total energy              =   -7738.31975934 Ry
     estimated scf accuracy    <       0.04550675 Ry

     total magnetization       =    88.90 Bohr mag/cell
     absolute magnetization    =    90.37 Bohr mag/cell

     iteration # 28     ecut=    50.00 Ry     beta= 0.10
     Davidson diagonalization with overlap
     ethr =  4.16E-06,  avg # of iterations =  8.5

     negative rho (up, down):  1.974E-04 9.986E-05
 
     Adding external electric field

     Computed dipole along edir(3) : 
        Dipole               -1.0847 Ry au,         -2.7570 Debye
        Dipole field         -0.0007 Ry au, 
 
        Potential amp.        0.0732 Ry
        Total length         55.1515 bohr
 
 
     Adding external electric field

     Computed dipole along edir(3) : 
        Dipole               -1.0847 Ry au,         -2.7570 Debye
        Dipole field         -0.0007 Ry au, 
 
        Potential amp.        0.0732 Ry
        Total length         55.1515 bohr
 

     total cpu time spent up to now is      426.4 secs

     total energy              =   -7738.31914003 Ry
     estimated scf accuracy    <       0.02358855 Ry

     total magnetization       =    88.63 Bohr mag/cell
     absolute magnetization    =    89.95 Bohr mag/cell

     iteration # 29     ecut=    50.00 Ry     beta= 0.10
     Davidson diagonalization with overlap
     c_bands:  1 eigenvalues not converged
     ethr =  2.16E-06,  avg # of iterations = 11.0

     negative rho (up, down):  1.414E-03 1.073E-03
 
     Adding external electric field

     Computed dipole along edir(3) : 
        Dipole               -1.1315 Ry au,         -2.8759 Debye
        Dipole field         -0.0007 Ry au, 
 
        Potential amp.        0.0764 Ry
        Total length         55.1515 bohr
 
 
     Adding external electric field

     Computed dipole along edir(3) : 
        Dipole               -1.1315 Ry au,         -2.8759 Debye
        Dipole field         -0.0007 Ry au, 
 
        Potential amp.        0.0764 Ry
        Total length         55.1515 bohr
 

     total cpu time spent up to now is      444.5 secs

     total energy              =   -7738.31806084 Ry
     estimated scf accuracy    <       0.02462478 Ry

     total magnetization       =    88.65 Bohr mag/cell
     absolute magnetization    =    90.00 Bohr mag/cell

     iteration # 30     ecut=    50.00 Ry     beta= 0.10
     Davidson diagonalization with overlap
     c_bands:  1 eigenvalues not converged
     ethr =  2.16E-06,  avg # of iterations = 11.0

     negative rho (up, down):  5.714E-04 3.453E-04
 
     Adding external electric field

     Computed dipole along edir(3) : 
        Dipole               -1.0231 Ry au,         -2.6004 Debye
        Dipole field         -0.0006 Ry au, 
 
        Potential amp.        0.0691 Ry
        Total length         55.1515 bohr
 
 
     Adding external electric field

     Computed dipole along edir(3) : 
        Dipole               -1.0231 Ry au,         -2.6004 Debye
        Dipole field         -0.0006 Ry au, 
 
        Potential amp.        0.0691 Ry
        Total length         55.1515 bohr
 

     total cpu time spent up to now is      462.5 secs

     total energy              =   -7738.31753204 Ry
     estimated scf accuracy    <       0.02748331 Ry

     total magnetization       =    88.92 Bohr mag/cell
     absolute magnetization    =    90.28 Bohr mag/cell

     iteration # 31     ecut=    50.00 Ry     beta= 0.10
     Davidson diagonalization with overlap
     c_bands:  1 eigenvalues not converged
     c_bands:  2 eigenvalues not converged
     ethr =  2.16E-06,  avg # of iterations = 20.0

     negative rho (up, down):  1.304E-03 1.015E-03
 
     Adding external electric field

     Computed dipole along edir(3) : 
        Dipole               -1.0277 Ry au,         -2.6121 Debye
        Dipole field         -0.0006 Ry au, 
 
        Potential amp.        0.0694 Ry
        Total length         55.1515 bohr
 
 
     Adding external electric field

     Computed dipole along edir(3) : 
        Dipole               -1.0277 Ry au,         -2.6121 Debye
        Dipole field         -0.0006 Ry au, 
 
        Potential amp.        0.0694 Ry
        Total length         55.1515 bohr
 

     total cpu time spent up to now is      486.4 secs

     total energy              =   -7738.31795752 Ry
     estimated scf accuracy    <       0.02507370 Ry

     total magnetization       =    88.64 Bohr mag/cell
     absolute magnetization    =    89.96 Bohr mag/cell

     iteration # 32     ecut=    50.00 Ry     beta= 0.10
     Davidson diagonalization with overlap
     ethr =  2.16E-06,  avg # of iterations =  9.5

     negative rho (up, down):  1.314E-03 1.036E-03
 
     Adding external electric field

     Computed dipole along edir(3) : 
        Dipole               -0.9728 Ry au,         -2.4727 Debye
        Dipole field         -0.0006 Ry au, 
 
        Potential amp.        0.0657 Ry
        Total length         55.1515 bohr
 
 
     Adding external electric field

     Computed dipole along edir(3) : 
        Dipole               -0.9728 Ry au,         -2.4727 Debye
        Dipole field         -0.0006 Ry au, 
 
        Potential amp.        0.0657 Ry
        Total length         55.1515 bohr
 

     total cpu time spent up to now is      503.4 secs

     total energy              =   -7738.31785895 Ry
     estimated scf accuracy    <       0.01916199 Ry

     total magnetization       =    88.72 Bohr mag/cell
     absolute magnetization    =    90.01 Bohr mag/cell

     iteration # 33     ecut=    50.00 Ry     beta= 0.10
     Davidson diagonalization with overlap
     ethr =  1.75E-06,  avg # of iterations =  2.0

     negative rho (up, down):  1.464E-03 1.171E-03
 
     Adding external electric field

     Computed dipole along edir(3) : 
        Dipole               -0.9925 Ry au,         -2.5226 Debye
        Dipole field         -0.0006 Ry au, 
 
        Potential amp.        0.0670 Ry
        Total length         55.1515 bohr
 
 
     Adding external electric field

     Computed dipole along edir(3) : 
        Dipole               -0.9925 Ry au,         -2.5226 Debye
        Dipole field         -0.0006 Ry au, 
 
        Potential amp.        0.0670 Ry
        Total length         55.1515 bohr
 

     total cpu time spent up to now is      516.7 secs

     total energy              =   -7738.31796149 Ry
     estimated scf accuracy    <       0.02065706 Ry

     total magnetization       =    88.74 Bohr mag/cell
     absolute magnetization    =    90.02 Bohr mag/cell

     iteration # 34     ecut=    50.00 Ry     beta= 0.10
     Davidson diagonalization with overlap
     ethr =  1.75E-06,  avg # of iterations =  2.0

     negative rho (up, down):  1.875E-03 1.548E-03
 
     Adding external electric field

     Computed dipole along edir(3) : 
        Dipole               -0.9640 Ry au,         -2.4503 Debye
        Dipole field         -0.0006 Ry au, 
 
        Potential amp.        0.0651 Ry
        Total length         55.1515 bohr
 
 
     Adding external electric field

     Computed dipole along edir(3) : 
        Dipole               -0.9640 Ry au,         -2.4503 Debye
        Dipole field         -0.0006 Ry au, 
 
        Potential amp.        0.0651 Ry
        Total length         55.1515 bohr
 

     total cpu time spent up to now is      529.7 secs

     total energy              =   -7738.31756441 Ry
     estimated scf accuracy    <       0.02133094 Ry

     total magnetization       =    88.75 Bohr mag/cell
     absolute magnetization    =    90.03 Bohr mag/cell

     iteration # 35     ecut=    50.00 Ry     beta= 0.10
     Davidson diagonalization with overlap
     ethr =  1.75E-06,  avg # of iterations =  2.0

     negative rho (up, down):  1.149E-03 9.154E-04
 
     Adding external electric field

     Computed dipole along edir(3) : 
        Dipole               -0.9262 Ry au,         -2.3543 Debye
        Dipole field         -0.0006 Ry au, 
 
        Potential amp.        0.0625 Ry
        Total length         55.1515 bohr
 
 
     Adding external electric field

     Computed dipole along edir(3) : 
        Dipole               -0.9262 Ry au,         -2.3543 Debye
        Dipole field         -0.0006 Ry au, 
 
        Potential amp.        0.0625 Ry
        Total length         55.1515 bohr
 

     total cpu time spent up to now is      543.6 secs

     total energy              =   -7738.31736633 Ry
     estimated scf accuracy    <       0.02175375 Ry

     total magnetization       =    88.76 Bohr mag/cell
     absolute magnetization    =    90.04 Bohr mag/cell

     iteration # 36     ecut=    50.00 Ry     beta= 0.10
     Davidson diagonalization with overlap
     ethr =  1.75E-06,  avg # of iterations =  2.0

     negative rho (up, down):  1.082E-03 8.644E-04
 
     Adding external electric field

     Computed dipole along edir(3) : 
        Dipole               -0.9174 Ry au,         -2.3318 Debye
        Dipole field         -0.0006 Ry au, 
 
        Potential amp.        0.0619 Ry
        Total length         55.1515 bohr
 
 
     Adding external electric field

     Computed dipole along edir(3) : 
        Dipole               -0.9174 Ry au,         -2.3318 Debye
        Dipole field         -0.0006 Ry au, 
 
        Potential amp.        0.0619 Ry
        Total length         55.1515 bohr
 

     total cpu time spent up to now is      556.9 secs

     total energy              =   -7738.31726454 Ry
     estimated scf accuracy    <       0.02007497 Ry

     total magnetization       =    88.78 Bohr mag/cell
     absolute magnetization    =    90.03 Bohr mag/cell

     iteration # 37     ecut=    50.00 Ry     beta= 0.10
     Davidson diagonalization with overlap
     ethr =  1.75E-06,  avg # of iterations =  1.5

     negative rho (up, down):  8.562E-04 6.952E-04
 
     Adding external electric field

     Computed dipole along edir(3) : 
        Dipole               -0.8815 Ry au,         -2.2406 Debye
        Dipole field         -0.0005 Ry au, 
 
        Potential amp.        0.0595 Ry
        Total length         55.1515 bohr
 
 
     Adding external electric field

     Computed dipole along edir(3) : 
        Dipole               -0.8815 Ry au,         -2.2406 Debye
        Dipole field         -0.0005 Ry au, 
 
        Potential amp.        0.0595 Ry
        Total length         55.1515 bohr
 

     total cpu time spent up to now is      569.2 secs

     total energy              =   -7738.31613436 Ry
     estimated scf accuracy    <       0.01918304 Ry

     total magnetization       =    88.79 Bohr mag/cell
     absolute magnetization    =    90.02 Bohr mag/cell

     iteration # 38     ecut=    50.00 Ry     beta= 0.10
     Davidson diagonalization with overlap
     ethr =  1.75E-06,  avg # of iterations =  2.0

     negative rho (up, down):  9.752E-04 7.964E-04
 
     Adding external electric field

     Computed dipole along edir(3) : 
        Dipole               -0.8780 Ry au,         -2.2316 Debye
        Dipole field         -0.0005 Ry au, 
 
        Potential amp.        0.0593 Ry
        Total length         55.1515 bohr
 
 
     Adding external electric field

     Computed dipole along edir(3) : 
        Dipole               -0.8780 Ry au,         -2.2316 Debye
        Dipole field         -0.0005 Ry au, 
 
        Potential amp.        0.0593 Ry
        Total length         55.1515 bohr
 

     total cpu time spent up to now is      582.2 secs

     total energy              =   -7738.31630731 Ry
     estimated scf accuracy    <       0.01746566 Ry

     total magnetization       =    88.78 Bohr mag/cell
     absolute magnetization    =    89.93 Bohr mag/cell

     iteration # 39     ecut=    50.00 Ry     beta= 0.10
     Davidson diagonalization with overlap
     ethr =  1.60E-06,  avg # of iterations =  1.5

     negative rho (up, down):  9.464E-04 7.839E-04
 
     Adding external electric field

     Computed dipole along edir(3) : 
        Dipole               -0.8486 Ry au,         -2.1568 Debye
        Dipole field         -0.0005 Ry au, 
 
        Potential amp.        0.0573 Ry
        Total length         55.1515 bohr
 
 
     Adding external electric field

     Computed dipole along edir(3) : 
        Dipole               -0.8486 Ry au,         -2.1568 Debye
        Dipole field         -0.0005 Ry au, 
 
        Potential amp.        0.0573 Ry
        Total length         55.1515 bohr
 

     total cpu time spent up to now is      595.0 secs

     total energy              =   -7738.31637821 Ry
     estimated scf accuracy    <       0.01702176 Ry

     total magnetization       =    88.80 Bohr mag/cell
     absolute magnetization    =    89.95 Bohr mag/cell

     iteration # 40     ecut=    50.00 Ry     beta= 0.10
     Davidson diagonalization with overlap
     ethr =  1.56E-06,  avg # of iterations =  3.0

     negative rho (up, down):  1.009E-03 7.896E-04
 
     Adding external electric field

     Computed dipole along edir(3) : 
        Dipole               -0.8397 Ry au,         -2.1343 Debye
        Dipole field         -0.0005 Ry au, 
 
        Potential amp.        0.0567 Ry
        Total length         55.1515 bohr
 
 
     Adding external electric field

     Computed dipole along edir(3) : 
        Dipole               -0.8397 Ry au,         -2.1343 Debye
        Dipole field         -0.0005 Ry au, 
 
        Potential amp.        0.0567 Ry
        Total length         55.1515 bohr
 

     total cpu time spent up to now is      608.1 secs

     total energy              =   -7738.31585801 Ry
     estimated scf accuracy    <       0.01733401 Ry

     total magnetization       =    88.80 Bohr mag/cell
     absolute magnetization    =    89.95 Bohr mag/cell

     iteration # 41     ecut=    50.00 Ry     beta= 0.10
     Davidson diagonalization with overlap
     ethr =  1.56E-06,  avg # of iterations =  2.0

     negative rho (up, down):  1.290E-03 1.127E-03
 
     Adding external electric field

     Computed dipole along edir(3) : 
        Dipole               -0.8886 Ry au,         -2.2587 Debye
        Dipole field         -0.0005 Ry au, 
 
        Potential amp.        0.0600 Ry
        Total length         55.1515 bohr
 
 
     Adding external electric field

     Computed dipole along edir(3) : 
        Dipole               -0.8886 Ry au,         -2.2587 Debye
        Dipole field         -0.0005 Ry au, 
 
        Potential amp.        0.0600 Ry
        Total length         55.1515 bohr
 

     total cpu time spent up to now is      621.0 secs

     total energy              =   -7738.31720058 Ry
     estimated scf accuracy    <       0.01892864 Ry

     total magnetization       =    88.81 Bohr mag/cell
     absolute magnetization    =    89.96 Bohr mag/cell

     iteration # 42     ecut=    50.00 Ry     beta= 0.10
     Davidson diagonalization with overlap
     ethr =  1.56E-06,  avg # of iterations =  2.0

     negative rho (up, down):  2.179E-03 1.976E-03
 
     Adding external electric field

     Computed dipole along edir(3) : 
        Dipole               -0.9351 Ry au,         -2.3767 Debye
        Dipole field         -0.0006 Ry au, 
 
        Potential amp.        0.0631 Ry
        Total length         55.1515 bohr
 
 
     Adding external electric field

     Computed dipole along edir(3) : 
        Dipole               -0.9351 Ry au,         -2.3767 Debye
        Dipole field         -0.0006 Ry au, 
 
        Potential amp.        0.0631 Ry
        Total length         55.1515 bohr
 

     total cpu time spent up to now is      633.7 secs

     total energy              =   -7738.31739161 Ry
     estimated scf accuracy    <       0.01651347 Ry

     total magnetization       =    88.81 Bohr mag/cell
     absolute magnetization    =    90.00 Bohr mag/cell

     iteration # 43     ecut=    50.00 Ry     beta= 0.10
     Davidson diagonalization with overlap
     ethr =  1.51E-06,  avg # of iterations =  2.0

     negative rho (up, down):  2.687E-03 2.455E-03
 
     Adding external electric field

     Computed dipole along edir(3) : 
        Dipole               -0.9317 Ry au,         -2.3680 Debye
        Dipole field         -0.0006 Ry au, 
 
        Potential amp.        0.0629 Ry
        Total length         55.1515 bohr
 
 
     Adding external electric field

     Computed dipole along edir(3) : 
        Dipole               -0.9317 Ry au,         -2.3680 Debye
        Dipole field         -0.0006 Ry au, 
 
        Potential amp.        0.0629 Ry
        Total length         55.1515 bohr
 

     total cpu time spent up to now is      646.1 secs

     total energy              =   -7738.31725302 Ry
     estimated scf accuracy    <       0.01514042 Ry

     total magnetization       =    88.83 Bohr mag/cell
     absolute magnetization    =    90.04 Bohr mag/cell

     iteration # 44     ecut=    50.00 Ry     beta= 0.10
     Davidson diagonalization with overlap
     ethr =  1.39E-06,  avg # of iterations =  1.5

     negative rho (up, down):  3.059E-03 2.816E-03
 
     Adding external electric field

     Computed dipole along edir(3) : 
        Dipole               -0.9169 Ry au,         -2.3304 Debye
        Dipole field         -0.0006 Ry au, 
 
        Potential amp.        0.0619 Ry
        Total length         55.1515 bohr
 
 
     Adding external electric field

     Computed dipole along edir(3) : 
        Dipole               -0.9169 Ry au,         -2.3304 Debye
        Dipole field         -0.0006 Ry au, 
 
        Potential amp.        0.0619 Ry
        Total length         55.1515 bohr
 

     total cpu time spent up to now is      658.3 secs

     total energy              =   -7738.31710273 Ry
     estimated scf accuracy    <       0.01512276 Ry

     total magnetization       =    88.85 Bohr mag/cell
     absolute magnetization    =    90.06 Bohr mag/cell

     iteration # 45     ecut=    50.00 Ry     beta= 0.10
     Davidson diagonalization with overlap
     ethr =  1.38E-06,  avg # of iterations =  2.0

     negative rho (up, down):  3.371E-03 3.112E-03
 
     Adding external electric field

     Computed dipole along edir(3) : 
        Dipole               -0.9005 Ry au,         -2.2889 Debye
        Dipole field         -0.0006 Ry au, 
 
        Potential amp.        0.0608 Ry
        Total length         55.1515 bohr
 
 
     Adding external electric field

     Computed dipole along edir(3) : 
        Dipole               -0.9005 Ry au,         -2.2889 Debye
        Dipole field         -0.0006 Ry au, 
 
        Potential amp.        0.0608 Ry
        Total length         55.1515 bohr
 

     total cpu time spent up to now is      670.9 secs

     total energy              =   -7738.31696234 Ry
     estimated scf accuracy    <       0.01495922 Ry

     total magnetization       =    88.86 Bohr mag/cell
     absolute magnetization    =    90.07 Bohr mag/cell

     iteration # 46     ecut=    50.00 Ry     beta= 0.10
     Davidson diagonalization with overlap
     ethr =  1.37E-06,  avg # of iterations =  2.0

     negative rho (up, down):  4.189E-03 3.933E-03
 
     Adding external electric field

     Computed dipole along edir(3) : 
        Dipole               -0.8990 Ry au,         -2.2851 Debye
        Dipole field         -0.0006 Ry au, 
 
        Potential amp.        0.0607 Ry
        Total length         55.1515 bohr
 
 
     Adding external electric field

     Computed dipole along edir(3) : 
        Dipole               -0.8990 Ry au,         -2.2851 Debye
        Dipole field         -0.0006 Ry au, 
 
        Potential amp.        0.0607 Ry
        Total length         55.1515 bohr
 

     total cpu time spent up to now is      683.6 secs

     total energy              =   -7738.31705076 Ry
     estimated scf accuracy    <       0.01480050 Ry

     total magnetization       =    88.85 Bohr mag/cell
     absolute magnetization    =    90.06 Bohr mag/cell

     iteration # 47     ecut=    50.00 Ry     beta= 0.10
     Davidson diagonalization with overlap
     ethr =  1.35E-06,  avg # of iterations =  2.0

     negative rho (up, down):  3.079E-03 2.912E-03
 
     Adding external electric field

     Computed dipole along edir(3) : 
        Dipole               -0.8883 Ry au,         -2.2578 Debye
        Dipole field         -0.0005 Ry au, 
 
        Potential amp.        0.0600 Ry
        Total length         55.1515 bohr
 
 
     Adding external electric field

     Computed dipole along edir(3) : 
        Dipole               -0.8883 Ry au,         -2.2578 Debye
        Dipole field         -0.0005 Ry au, 
 
        Potential amp.        0.0600 Ry
        Total length         55.1515 bohr
 

     total cpu time spent up to now is      695.7 secs

     total energy              =   -7738.31726662 Ry
     estimated scf accuracy    <       0.01562014 Ry

     total magnetization       =    88.80 Bohr mag/cell
     absolute magnetization    =    90.03 Bohr mag/cell

     iteration # 48     ecut=    50.00 Ry     beta= 0.10
     Davidson diagonalization with overlap
     ethr =  1.35E-06,  avg # of iterations =  1.5

     negative rho (up, down):  4.210E-03 3.994E-03
 
     Adding external electric field

     Computed dipole along edir(3) : 
        Dipole               -0.8982 Ry au,         -2.2831 Debye
        Dipole field         -0.0005 Ry au, 
 
        Potential amp.        0.0606 Ry
        Total length         55.1515 bohr
 
 
     Adding external electric field

     Computed dipole along edir(3) : 
        Dipole               -0.8982 Ry au,         -2.2831 Debye
        Dipole field         -0.0005 Ry au, 
 
        Potential amp.        0.0606 Ry
        Total length         55.1515 bohr
 

     total cpu time spent up to now is      708.1 secs

     total energy              =   -7738.31713161 Ry
     estimated scf accuracy    <       0.01723658 Ry

     total magnetization       =    88.77 Bohr mag/cell
     absolute magnetization    =    90.00 Bohr mag/cell

     iteration # 49     ecut=    50.00 Ry     beta= 0.10
     Davidson diagonalization with overlap
     ethr =  1.35E-06,  avg # of iterations =  2.0

     negative rho (up, down):  5.609E-03 5.276E-03
 
     Adding external electric field

     Computed dipole along edir(3) : 
        Dipole               -0.9345 Ry au,         -2.3752 Debye
        Dipole field         -0.0006 Ry au, 
 
        Potential amp.        0.0631 Ry
        Total length         55.1515 bohr
 
 
     Adding external electric field

     Computed dipole along edir(3) : 
        Dipole               -0.9345 Ry au,         -2.3752 Debye
        Dipole field         -0.0006 Ry au, 
 
        Potential amp.        0.0631 Ry
        Total length         55.1515 bohr
 

     total cpu time spent up to now is      720.7 secs

     total energy              =   -7738.31724116 Ry
     estimated scf accuracy    <       0.01560022 Ry

     total magnetization       =    88.81 Bohr mag/cell
     absolute magnetization    =    90.03 Bohr mag/cell

     iteration # 50     ecut=    50.00 Ry     beta= 0.10
     Davidson diagonalization with overlap
     ethr =  1.35E-06,  avg # of iterations =  1.5

     negative rho (up, down):  4.561E-03 4.240E-03
 
     Adding external electric field

     Computed dipole along edir(3) : 
        Dipole               -0.8968 Ry au,         -2.2793 Debye
        Dipole field         -0.0005 Ry au, 
 
        Potential amp.        0.0605 Ry
        Total length         55.1515 bohr
 
 
     Adding external electric field

     Computed dipole along edir(3) : 
        Dipole               -0.8968 Ry au,         -2.2793 Debye
        Dipole field         -0.0005 Ry au, 
 
        Potential amp.        0.0605 Ry
        Total length         55.1515 bohr
 

     total cpu time spent up to now is      732.2 secs

     total energy              =   -7738.31636226 Ry
     estimated scf accuracy    <       0.01581629 Ry

     total magnetization       =    88.82 Bohr mag/cell
     absolute magnetization    =    90.11 Bohr mag/cell

     iteration # 51     ecut=    50.00 Ry     beta= 0.10
     Davidson diagonalization with overlap
     ethr =  1.35E-06,  avg # of iterations =  2.0

     negative rho (up, down):  3.352E-03 3.031E-03
 
     Adding external electric field

     Computed dipole along edir(3) : 
        Dipole               -0.8454 Ry au,         -2.1489 Debye
        Dipole field         -0.0005 Ry au, 
 
        Potential amp.        0.0571 Ry
        Total length         55.1515 bohr
 
 
     Adding external electric field

     Computed dipole along edir(3) : 
        Dipole               -0.8454 Ry au,         -2.1489 Debye
        Dipole field         -0.0005 Ry au, 
 
        Potential amp.        0.0571 Ry
        Total length         55.1515 bohr
 

     total cpu time spent up to now is      744.9 secs

     total energy              =   -7738.31660562 Ry
     estimated scf accuracy    <       0.01558990 Ry

     total magnetization       =    88.82 Bohr mag/cell
     absolute magnetization    =    90.03 Bohr mag/cell

     iteration # 52     ecut=    50.00 Ry     beta= 0.10
     Davidson diagonalization with overlap
     ethr =  1.35E-06,  avg # of iterations =  1.5

     negative rho (up, down):  4.349E-03 4.126E-03
 
     Adding external electric field

     Computed dipole along edir(3) : 
        Dipole               -0.8901 Ry au,         -2.2624 Debye
        Dipole field         -0.0005 Ry au, 
 
        Potential amp.        0.0601 Ry
        Total length         55.1515 bohr
 
 
     Adding external electric field

     Computed dipole along edir(3) : 
        Dipole               -0.8901 Ry au,         -2.2624 Debye
        Dipole field         -0.0005 Ry au, 
 
        Potential amp.        0.0601 Ry
        Total length         55.1515 bohr
 

     total cpu time spent up to now is      756.8 secs

     total energy              =   -7738.31717698 Ry
     estimated scf accuracy    <       0.01710825 Ry

     total magnetization       =    88.83 Bohr mag/cell
     absolute magnetization    =    90.04 Bohr mag/cell

     iteration # 53     ecut=    50.00 Ry     beta= 0.10
     Davidson diagonalization with overlap
     ethr =  1.35E-06,  avg # of iterations =  1.5

     negative rho (up, down):  5.379E-03 5.117E-03
 
     Adding external electric field

     Computed dipole along edir(3) : 
        Dipole               -0.8946 Ry au,         -2.2737 Debye
        Dipole field         -0.0005 Ry au, 
 
        Potential amp.        0.0604 Ry
        Total length         55.1515 bohr
 
 
     Adding external electric field

     Computed dipole along edir(3) : 
        Dipole               -0.8946 Ry au,         -2.2737 Debye
        Dipole field         -0.0005 Ry au, 
 
        Potential amp.        0.0604 Ry
        Total length         55.1515 bohr
 

     total cpu time spent up to now is      768.2 secs

     total energy              =   -7738.31723312 Ry
     estimated scf accuracy    <       0.01557252 Ry

     total magnetization       =    88.80 Bohr mag/cell
     absolute magnetization    =    90.04 Bohr mag/cell

     iteration # 54     ecut=    50.00 Ry     beta= 0.10
     Davidson diagonalization with overlap
     ethr =  1.35E-06,  avg # of iterations =  1.5

     negative rho (up, down):  6.887E-03 6.595E-03
 
     Adding external electric field

     Computed dipole along edir(3) : 
        Dipole               -0.8949 Ry au,         -2.2747 Debye
        Dipole field         -0.0005 Ry au, 
 
        Potential amp.        0.0604 Ry
        Total length         55.1515 bohr
 
 
     Adding external electric field

     Computed dipole along edir(3) : 
        Dipole               -0.8949 Ry au,         -2.2747 Debye
        Dipole field         -0.0005 Ry au, 
 
        Potential amp.        0.0604 Ry
        Total length         55.1515 bohr
 

     total cpu time spent up to now is      780.1 secs

     total energy              =   -7738.31706386 Ry
     estimated scf accuracy    <       0.01469670 Ry

     total magnetization       =    88.81 Bohr mag/cell
     absolute magnetization    =    90.06 Bohr mag/cell

     iteration # 55     ecut=    50.00 Ry     beta= 0.10
     Davidson diagonalization with overlap
     ethr =  1.34E-06,  avg # of iterations =  2.0

     negative rho (up, down):  1.129E-02 1.101E-02
 
     Adding external electric field

     Computed dipole along edir(3) : 
        Dipole               -0.8661 Ry au,         -2.2013 Debye
        Dipole field         -0.0005 Ry au, 
 
        Potential amp.        0.0585 Ry
        Total length         55.1515 bohr
 
 
     Adding external electric field

     Computed dipole along edir(3) : 
        Dipole               -0.8661 Ry au,         -2.2013 Debye
        Dipole field         -0.0005 Ry au, 
 
        Potential amp.        0.0585 Ry
        Total length         55.1515 bohr
 

     total cpu time spent up to now is      792.9 secs

     total energy              =   -7738.31687737 Ry
     estimated scf accuracy    <       0.01408450 Ry

     total magnetization       =    88.83 Bohr mag/cell
     absolute magnetization    =    90.08 Bohr mag/cell

     iteration # 56     ecut=    50.00 Ry     beta= 0.10
     Davidson diagonalization with overlap
     ethr =  1.29E-06,  avg # of iterations =  5.5

     negative rho (up, down):  6.222E-03 5.911E-03
 
     Adding external electric field

     Computed dipole along edir(3) : 
        Dipole               -0.9067 Ry au,         -2.3046 Debye
        Dipole field         -0.0006 Ry au, 
 
        Potential amp.        0.0612 Ry
        Total length         55.1515 bohr
 
 
     Adding external electric field

     Computed dipole along edir(3) : 
        Dipole               -0.9067 Ry au,         -2.3046 Debye
        Dipole field         -0.0006 Ry au, 
 
        Potential amp.        0.0612 Ry
        Total length         55.1515 bohr
 

     total cpu time spent up to now is      807.3 secs

     total energy              =   -7738.31710083 Ry
     estimated scf accuracy    <       0.01668703 Ry

     total magnetization       =    88.80 Bohr mag/cell
     absolute magnetization    =    90.07 Bohr mag/cell

     iteration # 57     ecut=    50.00 Ry     beta= 0.10
     Davidson diagonalization with overlap
     ethr =  1.29E-06,  avg # of iterations =  2.5

     negative rho (up, down):  5.297E-03 5.061E-03
 
     Adding external electric field

     Computed dipole along edir(3) : 
        Dipole               -0.9051 Ry au,         -2.3005 Debye
        Dipole field         -0.0006 Ry au, 
 
        Potential amp.        0.0611 Ry
        Total length         55.1515 bohr
 
 
     Adding external electric field

     Computed dipole along edir(3) : 
        Dipole               -0.9051 Ry au,         -2.3005 Debye
        Dipole field         -0.0006 Ry au, 
 
        Potential amp.        0.0611 Ry
        Total length         55.1515 bohr
 

     total cpu time spent up to now is      820.3 secs

     total energy              =   -7738.31738586 Ry
     estimated scf accuracy    <       0.01392593 Ry

     total magnetization       =    88.82 Bohr mag/cell
     absolute magnetization    =    90.08 Bohr mag/cell

     iteration # 58     ecut=    50.00 Ry     beta= 0.10
     Davidson diagonalization with overlap
     ethr =  1.27E-06,  avg # of iterations =  1.5

     negative rho (up, down):  5.817E-03 5.539E-03
 
[...]
    -5.9694  -5.9377  -5.9294  -5.9062  -5.8850  -5.8771  -5.8641  -5.8403
    -5.8254  -5.7786  -5.7500  -5.7399  -5.7272  -5.6933  -5.6676  -5.6521
    -5.6381  -5.6282  -5.5849  -5.5673  -5.5619  -5.5443  -5.5361  -5.5244
    -5.5141  -5.4868  -5.4736  -5.4424  -5.3996  -5.3648  -5.3308  -5.3149
    -5.2792  -5.2601  -5.2333  -5.1634  -5.1453  -5.1408  -5.1246  -5.1028
    -5.0631  -5.0101  -4.9638  -4.9360  -4.8974  -4.8884  -4.8587  -4.8458
    -4.8198  -4.7922  -4.7803  -4.7405  -4.7240  -4.6911  -4.6378  -4.6019
    -4.5413  -4.4780  -4.4411  -4.4219  -4.4052  -4.3950  -4.3661  -4.3526
    -4.3266  -4.2832  -4.2547  -4.2421  -4.2037  -4.1927  -4.1078  -4.1033
    -4.0870  -4.0437  -4.0373  -4.0171  -3.9550  -3.9316  -3.9188  -3.8798
    -3.8560  -3.8198  -3.8108  -3.7931  -3.7747  -3.7413  -3.7038  -3.6935
    -3.6861  -3.6693  -3.6595  -3.5863  -3.5764  -3.5751  -3.5605  -3.5443
    -3.5324  -3.5159  -3.5071  -3.4823  -3.4478  -3.4415  -3.4271  -3.4058
    -3.3839  -3.3731  -3.3686  -3.3535  -3.3371  -3.3056  -3.2852  -3.2565
    -3.2448  -3.2143  -3.1912  -3.1670  -3.1437  -3.1169  -3.0998  -3.0819
    -3.0741  -3.0631  -3.0524  -3.0343  -3.0181  -3.0012  -2.9850  -2.9364
    -2.9247  -2.9130  -2.9012  -2.8900  -2.8683  -2.8457  -2.8119  -2.7895
    -2.7846  -2.7606  -2.7515  -2.7271  -2.7217  -2.7130  -2.7069  -2.6934
    -2.6727  -2.6655  -2.6618  -2.6363  -2.6273  -2.6145  -2.6062  -2.5786
    -2.5726  -2.5725  -2.5389  -2.5258  -2.5060  -2.4828  -2.4704  -2.4584
    -2.4518  -2.4102  -2.4018  -2.3720  -2.3563  -2.3424  -2.3157  -2.2793
    -2.2736  -2.2686  -2.2238  -2.2101  -2.1878  -2.1760  -2.1520  -2.1393
    -2.1075  -2.0863  -2.0713  -2.0667  -2.0504  -2.0372  -2.0271  -2.0208
    -1.9942  -1.9510  -1.9376  -1.9175  -1.9056  -1.8883  -1.8831  -1.8657
    -1.8386  -1.8336  -1.8284  -1.8214  -1.7914  -1.7143  -1.7075  -1.6772
    -1.6703  -1.6511  -1.6319  -1.6270  -1.6145  -1.6050  -1.5886  -1.5800
    -1.5497  -1.5477  -1.5015  -1.4892  -1.4641  -1.4537  -1.4476  -1.4221
    -1.4029  -1.3924  -1.3829  -1.3620  -1.3571  -1.3301  -1.3044  -1.2956
    -1.2323  -1.2238  -1.1699  -1.1478  -1.1315  -1.1307  -1.0940  -1.0560
    -1.0347  -0.9939  -0.9280  -0.8563  -0.7284  -0.7164  -0.6217  -0.5729
    -0.5225  -0.5080  -0.3555  -0.2450   0.1803   0.2160   0.2380   0.2481
     0.2982   0.3092   0.3215   0.3301   0.3473   0.3594   0.3667   0.3701
     0.3774   0.3871   0.3995   0.4009   0.4057   0.4160   0.4204   0.4273
     0.4355   0.4405   0.4637   0.4664   0.4770   0.4838   0.4900   0.4932
     0.4986   0.4989   0.5098   0.5162   0.5234   0.5334   0.5377   0.5398
     0.5421   0.5658   0.5697   0.5740   0.5977   0.6006   0.6172   0.6202
     0.6268   0.6350   0.6441   0.6474   0.6536   0.6634   0.6650   0.6794
     0.6825   0.6859   0.6999   0.7051   0.7144   0.7158   0.7218   0.7341
     0.7436   0.7510   0.7661   0.7670   0.7791   0.7854   0.7953   0.8097
     0.8117   0.8282   0.8502   0.8584   0.8650   0.8680   0.8709   0.8782
     0.8847   0.9059   0.9098   0.9154   0.9218   0.9532   0.9682   0.9826
     0.9871   1.0359   1.0870   1.1128   1.1236   1.6869   1.7365   1.7483
     1.7757   1.8011   1.8119   1.8182   1.8239   1.8425   1.9101   1.9204
     1.9345   1.9715   1.9814   2.0068   2.0423   2.0468   2.0854   2.0920
     2.1380   2.1448   2.1748   2.1919   2.1968   2.2003   2.2114   2.2349
     2.2439   2.2761   2.2860   2.3057   2.3139   2.3256   2.3450   2.3578
     2.3733   2.3819   2.3876   2.4089   2.4178   2.4221   2.4405   2.4907
     2.5278   2.5328   2.5398   2.5491   2.5538   2.5786   2.5964   2.6178
     2.6626   2.6812   2.6996   2.7073   2.7277   2.8029   2.8065   2.8721
     2.8760   2.8910   3.7080   3.7216   3.7252   3.7840   3.7866   3.7984
     3.9066   3.9333   3.9591   3.9600   3.9830   4.0009   4.0117   4.0383
     4.0543   4.0606   4.1461   4.1482   4.1604   4.1818   4.6613   4.7168
     4.7953   4.8571   4.8838   4.9132   4.9383   4.9700   5.0429   5.0976
     5.1182   5.1485   5.4257   6.2436   6.3750   6.6145   6.6587   6.7608
     6.8107   6.8873   6.8921   6.9226   7.0227   7.0828   7.0932   7.1353
     7.2667   7.3482   7.3560   7.4358   7.4820   7.5358   7.5881   7.6332
     7.6400   7.6803   7.7372   7.7610   7.8102   7.8848   7.9033   7.9098
     8.0167   8.0288   8.0655   8.0918   8.1159   8.1793   8.1899   8.2096
     8.2645   8.2868   8.3055   8.3339   8.3800   8.4262   8.4301   8.4501
     8.4672   8.4794   8.4978   8.5273   8.5556   8.5741   8.6005   8.6219
     8.6651   8.6849   8.7237   8.7515   8.7707   8.7805   8.8316   8.8384

     the Fermi energy is     1.6607 ev

!    total energy              =   -7738.31678774 Ry
     estimated scf accuracy    <       0.00000083 Ry
     smearing contrib. (-TS)   =      -0.02219652 Ry
     internal energy E=F+TS    =   -7738.29459121 Ry

     The total energy is F=E-TS. E is the sum of the following terms:
     one-electron contribution =  -94718.96866341 Ry
     hartree contribution      =   47976.74834684 Ry
     xc contribution           =   -2218.72773585 Ry
     ewald contribution        =   41224.46095195 Ry
     Dispersion Correction     =      -1.80754993 Ry
     electric field correction =       0.00005920 Ry

     total magnetization       =    88.65 Bohr mag/cell
     absolute magnetization    =    90.03 Bohr mag/cell

     convergence has been achieved in 122 iterations

     negative rho (up, down):  1.053E-03 5.887E-04

     Forces acting on atoms (cartesian axes, Ry/au):

     atom    1 type  1   force =     0.00007844    0.00075811    0.00030795
     atom    2 type  2   force =     0.00038560   -0.00022758   -0.00029499
     atom    3 type  1   force =    -0.00037989   -0.00108897   -0.00150471
     atom    4 type  1   force =    -0.00031642    0.00001011    0.00043531
     atom    5 type  1   force =     0.00083340    0.00029160    0.00001761
     atom    6 type  1   force =    -0.00011137   -0.00005606   -0.00064267
     atom    7 type  3   force =    -0.00044428    0.00011751    0.00048531
     atom    8 type  3   force =     0.00013045   -0.00039226   -0.00002603
     atom    9 type  3   force =    -0.00041254   -0.00001682    0.00057163
     atom   10 type  3   force =     0.00012315   -0.00010083   -0.00025925
     atom   11 type  4   force =    -0.00070179   -0.00008182    0.00032744
     atom   12 type  4   force =     0.00000102   -0.00028164    0.00046079
     atom   13 type  4   force =    -0.00060089   -0.00030681    0.00056450
     atom   14 type  4   force =     0.00035745    0.00005847   -0.00011667
     atom   15 type  4   force =     0.00041383    0.00005313    0.00006508
     atom   16 type  4   force =     0.00004230    0.00018711    0.00004519
     atom   17 type  4   force =     0.00061731   -0.00018913    0.00011057
     atom   18 type  4   force =     0.00005941    0.00012315   -0.00008342
     atom   19 type  4   force =    -0.00039110    0.00024168   -0.00004924
     atom   20 type  4   force =     0.00000433    0.00022822   -0.00033674
     atom   21 type  4   force =     0.00012688   -0.00028635    0.00021587
     atom   22 type  4   force =    -0.00033208   -0.00035551    0.00020565
     atom   23 type  4   force =    -0.00044140   -0.00000580    0.00039858
     atom   24 type  4   force =     0.00078549   -0.00030018   -0.00057495
     atom   25 type  4   force =     0.00046609   -0.00032167   -0.00079667
     atom   26 type  4   force =     0.00014005    0.00025090    0.00046149
     atom   27 type  1   force =    -0.00643055   -0.00839084   -0.00407270
     atom   28 type  2   force =    -0.01211787   -0.00018509   -0.00201837
     atom   29 type  1   force =     0.00431704   -0.00250260    0.00334002
     atom   30 type  1   force =     0.00242878    0.00427283   -0.00173077
     atom   31 type  1   force =     0.00181858   -0.00474528   -0.00031663
     atom   32 type  1   force =    -0.00124402    0.00107919    0.00172425
     atom   33 type  3   force =    -0.00711963   -0.00083948   -0.00045228
     atom   34 type  3   force =    -0.00621926    0.00320425   -0.00200900
     atom   35 type  3   force =     0.00408883   -0.00002333   -0.00412548
     atom   36 type  3   force =     0.00104347   -0.00132026    0.00296757
     atom   37 type  4   force =     0.00873363    0.00531138   -0.00768838
     atom   38 type  4   force =     0.00362432   -0.00106270    0.02072523
     atom   39 type  4   force =    -0.00114578    0.00367460    0.01014821
     atom   40 type  4   force =    -0.00161903   -0.00228752   -0.00889998
     atom   41 type  4   force =     0.00210866    0.00856118    0.00656429
     atom   42 type  4   force =    -0.00684078   -0.00315309   -0.01943182
     atom   43 type  4   force =     0.00944632    0.00734901   -0.00650039
     atom   44 type  4   force =     0.00720779   -0.00300294    0.00607825
     atom   45 type  4   force =     0.00225044    0.00581197   -0.00060032
     atom   46 type  4   force =     0.00338256    0.00092454    0.00498940
     atom   47 type  4   force =    -0.01314538    0.00023091    0.00331422
     atom   48 type  4   force =    -0.01452946    0.00257921   -0.00335154
     atom   49 type  4   force =     0.01311725    0.00287938   -0.00441086
     atom   50 type  4   force =    -0.00408638   -0.00389318   -0.00001108
     atom   51 type  4   force =    -0.00441152    0.00269013   -0.00065630
     atom   52 type  4   force =     0.01631732   -0.00322826    0.00420842
     atom   53 type  1   force =    -0.00753040   -0.00733233   -0.00840999
     atom   54 type  2   force =     0.01575825    0.01694299   -0.00960264
     atom   55 type  1   force =     0.00580744   -0.00460734   -0.00584786
     atom   56 type  1   force =    -0.02052307    0.01951527    0.01998268
     atom   57 type  1   force =     0.00444887   -0.00750942   -0.00135316
     atom   58 type  1   force =    -0.00389387   -0.00536992   -0.00083349
     atom   59 type  3   force =    -0.03904245   -0.03835043   -0.05604650
     atom   60 type  3   force =    -0.00486454   -0.00127293   -0.00119284
     atom   61 type  3   force =     0.00273071   -0.00100821   -0.01016127
     atom   62 type  3   force =     0.02907862   -0.04949354   -0.06060290
     atom   63 type  4   force =     0.00626372    0.00348622    0.02097426
     atom   64 type  4   force =     0.00449634    0.00227442    0.01459247
     atom   65 type  4   force =    -0.00067893    0.00294042    0.01275518
     atom   66 type  4   force =     0.00012886    0.00217494    0.01615995
     atom   67 type  4   force =     0.00104562   -0.00068147    0.03901635
     atom   68 type  4   force =    -0.00567193   -0.00397272   -0.01724349
     atom   69 type  4   force =     0.00779371    0.00449831   -0.00264814
     atom   70 type  4   force =     0.00175721   -0.00736275    0.03539601
     atom   71 type  4   force =    -0.00912299    0.03913728    0.00095477
     atom   72 type  4   force =     0.00227662   -0.00045883    0.00793113
     atom   73 type  4   force =    -0.03006948    0.00088366    0.00765055
     atom   74 type  4   force =    -0.01349432    0.00144862   -0.00043316
     atom   75 type  4   force =     0.01186400    0.00347928   -0.00252908
     atom   76 type  4   force =    -0.00237389   -0.00280331    0.00253891
     atom   77 type  4   force =     0.00915036    0.02583072   -0.00257780
     atom   78 type  4   force =     0.03355094   -0.00637699    0.00616909
     atom   79 type  1   force =    -0.00005698    0.00049483   -0.00013411
     atom   80 type  2   force =     0.00009020   -0.00053607   -0.00000953
     atom   81 type  1   force =     0.00025519   -0.00013909   -0.00018007
     atom   82 type  1   force =    -0.00029743    0.00027122    0.00044655
     atom   83 type  1   force =     0.00089074    0.00029494    0.00049485
     atom   84 type  1   force =    -0.00048448   -0.00029059   -0.00077574
     atom   85 type  3   force =    -0.00035617   -0.00007179    0.00031230
     atom   86 type  3   force =    -0.00028874    0.00000018    0.00006931
     atom   87 type  3   force =     0.00013314    0.00004175    0.00038618
     atom   88 type  3   force =     0.00064975    0.00007744   -0.00032437
     atom   89 type  4   force =    -0.00057366   -0.00039864    0.00029903
     atom   90 type  4   force =     0.00063097    0.00030369    0.00017712
     atom   91 type  4   force =    -0.00052291    0.00043331    0.00068601
     atom   92 type  4   force =     0.00011886    0.00044014   -0.00005487
     atom   93 type  4   force =     0.00008001    0.00060964   -0.00025897
     atom   94 type  4   force =     0.00005255    0.00057187    0.00011756
     atom   95 type  4   force =    -0.00020575    0.00060948    0.00035065
     atom   96 type  4   force =     0.00003821    0.00046842   -0.00004864
     atom   97 type  4   force =    -0.00072312    0.00017797   -0.00048710
     atom   98 type  4   force =    -0.00026891    0.00012784   -0.00013624
     atom   99 type  4   force =     0.00072359    0.00012990   -0.00001196
     atom  100 type  4   force =    -0.00004448    0.00037173    0.00010076
     atom  101 type  4   force =     0.00026032   -0.00009024   -0.00042094
     atom  102 type  4   force =     0.00082517   -0.00040232   -0.00042371
     atom  103 type  4   force =     0.00057580   -0.00003903   -0.00048666
     atom  104 type  4   force =    -0.00035507   -0.00009084    0.00069510
     atom  105 type  1   force =    -0.00577988   -0.00908622   -0.00434286
     atom  106 type  2   force =    -0.01214777   -0.00022898   -0.00195651
     atom  107 type  1   force =     0.00282371   -0.00386915    0.00050728
     atom  108 type  1   force =     0.00240974    0.00419418   -0.00169276
     atom  109 type  1   force =     0.00181159   -0.00475090   -0.00028524
     atom  110 type  1   force =    -0.00090668    0.00109236    0.00183661
     atom  111 type  3   force =    -0.00708549   -0.00081804   -0.00049471
     atom  112 type  3   force =    -0.00680079    0.00249208   -0.00024189
     atom  113 type  3   force =     0.00400681   -0.00062386   -0.00542454
     atom  114 type  3   force =     0.00113505   -0.00127321    0.00288146
     atom  115 type  4   force =     0.00871010    0.00504885   -0.00761802
     atom  116 type  4   force =     0.00358668   -0.00109058    0.02027578
     atom  117 type  4   force =    -0.00125699    0.00351706    0.01022429
     atom  118 type  4   force =    -0.00157597   -0.00236946   -0.00900177
     atom  119 type  4   force =     0.00214499    0.00851571    0.00642595
     atom  120 type  4   force =    -0.00549172   -0.00354921   -0.01964327
     atom  121 type  4   force =     0.00977917    0.00659452   -0.00844007
     atom  122 type  4   force =     0.00701477   -0.00298376    0.00606969
     atom  123 type  4   force =     0.00201605    0.00583791   -0.00057058
     atom  124 type  4   force =     0.00311437    0.00136976    0.00506057
     atom  125 type  4   force =    -0.01302570    0.00020573    0.00324079
     atom  126 type  4   force =    -0.01451164    0.00264999   -0.00350813
     atom  127 type  4   force =     0.01243638    0.00262516   -0.00462955
     atom  128 type  4   force =    -0.00399655   -0.00403228   -0.00044994
     atom  129 type  4   force =    -0.00440431    0.00265306   -0.00056380
     atom  130 type  4   force =     0.01639450   -0.00323117    0.00417488
     atom  131 type  1   force =    -0.00754267   -0.00732872   -0.00840355
     atom  132 type  2   force =     0.01577092    0.01694894   -0.00962515
     atom  133 type  1   force =     0.00581150   -0.00460475   -0.00585430
     atom  134 type  1   force =    -0.02052384    0.01951623    0.01998042
     atom  135 type  1   force =     0.00444535   -0.00750792   -0.00135743
     atom  136 type  1   force =    -0.00389387   -0.00537266   -0.00083226
     atom  137 type  3   force =    -0.03904070   -0.03834679   -0.05605490
     atom  138 type  3   force =    -0.00485809   -0.00127447   -0.00118190
     atom  139 type  3   force =     0.00272057   -0.00100974   -0.01016811
     atom  140 type  3   force =     0.02907305   -0.04949159   -0.06060313
     atom  141 type  4   force =     0.00620127    0.00350772    0.02105111
     atom  142 type  4   force =     0.00440961    0.00228086    0.01461290
     atom  143 type  4   force =    -0.00060390    0.00284509    0.01279751
     atom  144 type  4   force =     0.00016895    0.00226588    0.01636844
     atom  145 type  4   force =     0.00119518   -0.00068147    0.03901028
     atom  146 type  4   force =    -0.00544191   -0.00396885   -0.01726039
     atom  147 type  4   force =     0.00777819    0.00455039   -0.00281042
     atom  148 type  4   force =     0.00164980   -0.00740248    0.03544549
     atom  149 type  4   force =    -0.00932469    0.03913712    0.00095382
     atom  150 type  4   force =     0.00206790   -0.00046096    0.00793364
     atom  151 type  4   force =    -0.02995812    0.00088625    0.00765323
     atom  152 type  4   force =    -0.01359177    0.00145320   -0.00043825
     atom  153 type  4   force =     0.01202082    0.00359406   -0.00253760
     atom  154 type  4   force =    -0.00241759   -0.00268863    0.00245315
     atom  155 type  4   force =     0.00905058    0.02585842   -0.00263641
     atom  156 type  4   force =     0.03352022   -0.00619003    0.00600375
     atom  157 type  4   force =    -0.00739298    0.00888364   -0.00138143
     atom  158 type  5   force =     0.00686483   -0.00590859    0.00225469

     Total force =     0.237522     Total SCF correction =     0.003648
 
     init_run     :      7.57s CPU      8.21s WALL (       1 calls)
     electrons    :   1551.16s CPU   1630.58s WALL (       1 calls)
     forces       :      3.74s CPU      4.16s WALL (       1 calls)
     force_london :      0.09s CPU      0.09s WALL (       1 calls)

     Called by init_run:
     wfcinit      :      4.72s CPU      4.89s WALL (       1 calls)
     potinit      :      0.55s CPU      0.75s WALL (       1 calls)
     hinit0       :      1.23s CPU      1.33s WALL (       1 calls)

     Called by electrons:
     c_bands      :   1216.55s CPU   1258.26s WALL (     122 calls)
     sum_band     :    210.70s CPU    231.02s WALL (     122 calls)
     v_of_rho     :     28.25s CPU     30.21s WALL (     123 calls)
     newd         :     60.28s CPU     75.46s WALL (     123 calls)
     mix_rho      :     33.58s CPU     33.77s WALL (     122 calls)
     energy_londo :      0.08s CPU      0.08s WALL (       1 calls)

     Called by c_bands:
     init_us_2    :      3.79s CPU      3.88s WALL (     492 calls)
     init_us_2:cp :      3.79s CPU      3.88s WALL (     492 calls)
     regterg      :   1189.91s CPU   1231.34s WALL (     245 calls)

     Called by *egterg:
     rdiaghg      :    335.35s CPU    354.81s WALL (     911 calls)
     h_psi        :    472.03s CPU    481.46s WALL (     913 calls)
     s_psi        :     86.61s CPU     86.65s WALL (     913 calls)
     g_psi        :      0.62s CPU      0.62s WALL (     666 calls)

     Called by h_psi:
     h_psi:calbec :    117.27s CPU    124.71s WALL (     913 calls)
     vloc_psi     :    266.95s CPU    267.98s WALL (     913 calls)
     add_vuspsi   :     86.58s CPU     87.51s WALL (     913 calls)

     General routines
     calbec       :    173.87s CPU    185.46s WALL (    1165 calls)
     fft          :     23.88s CPU     26.68s WALL (    2227 calls)
     ffts         :     20.87s CPU     20.92s WALL (   15251 calls)
     fftw         :    303.75s CPU    304.85s WALL (  409290 calls)
     interpolate  :      2.09s CPU      2.40s WALL (     246 calls)
 
     Parallel routines
 
     PWSCF        :  26m 4.66s CPU  27m25.41s WALL

 
   This run was terminated on:  23:18:23  17Nov2025            

=------------------------------------------------------------------------------=
   JOB DONE.
=------------------------------------------------------------------------------=
