
     Program PWSCF v.7.2 starts on 20Nov2025 at  0: 5:53 

     This program is part of the open-source Quantum ESPRESSO suite
     for quantum simulation of materials; please cite
         "P. Giannozzi et al., J. Phys.:Condens. Matter 21 395502 (2009);
         "P. Giannozzi et al., J. Phys.:Condens. Matter 29 465901 (2017);
         "P. Giannozzi et al., J. Chem. Phys. 152 154105 (2020);
          URL http://www.quantum-espresso.org", 
     in publications or presentations arising from this work. More details at
     http://www.quantum-espresso.org/quote

     Parallel version (MPI), running on    64 processors

     MPI processes distributed on     4 nodes
     389664 MiB available memory on the printing compute node when the environment starts
 
     Reading input from PWINPUT_atm158_zm

     Current dimensions of program PWSCF are:
     Max number of different atomic species (ntypx) = 10
     Max number of k-points (npk) =  40000
     Max angular momentum in pseudopotentials (lmaxx) =  4
     Presently no symmetry can be used with electric field

     file Ni.pbe-n-rrkjus_psl.1.0.0.UPF: wavefunction(s)  3D renormalized
     file Mn.pbe-spn-rrkjus_psl.0.3.1.UPF: wavefunction(s)  3D renormalized
     file O.pbe-rrkjus.UPF: wavefunction(s)  2S renormalized
     file H.pbe-rrkjus.UPF: wavefunction(s)  1S renormalized

     gamma-point specific algorithms are used
 
     R & G space division:  proc/nbgrp/npool/nimage =      64
     Subspace diagonalization in iterative solution of the eigenvalue problem:
     one sub-group per band group will be used
     custom distributed-memory algorithm (size of sub-group:  7*  7 procs)

 
     Parallelization info
     --------------------
     sticks:   dense  smooth     PW     G-vecs:    dense   smooth      PW
     Min         207      82     20                60552    15302    1896
     Max         210      84     22                60574    15336    1950
     Sum       13325    5345   1333              3876045   980655  122653
 
     Using Slab Decomposition
 


     bravais-lattice index     =            0
     lattice parameter (alat)  =      17.4067  a.u.
     unit-cell volume          =   20529.8182 (a.u.)^3
     number of atoms/cell      =          158
     number of atomic types    =            5
     number of electrons       =      1093.00
     number of Kohn-Sham states=          656
     kinetic-energy cutoff     =      50.0000  Ry
     charge density cutoff     =     500.0000  Ry
     scf convergence threshold =      1.0E-06
     mixing beta               =       0.5000
     number of iterations used =            8  local-TF  mixing
     Exchange-correlation=  SLA  PW   PBE  PBE
                           (   1   4   3   4   0   0   0)

     celldm(1)=  17.406729  celldm(2)=   0.000000  celldm(3)=   0.000000
     celldm(4)=   0.000000  celldm(5)=   0.000000  celldm(6)=   0.000000

     crystal axes: (cart. coord. in units of alat)
               a(1) = (   1.000000   0.000000   0.000000 )  
               a(2) = (  -0.001404   1.105696   0.000000 )  
               a(3) = (   0.000000   0.000000   3.520448 )  

     reciprocal axes: (cart. coord. in units 2 pi/alat)
               b(1) = (  1.000000  0.001270  0.000000 )  
               b(2) = (  0.000000  0.904408  0.000000 )  
               b(3) = (  0.000000  0.000000  0.284055 )  


     PseudoPot. # 1 for Ni read from file:
     ~/PSEUDO/Ni.pbe-n-rrkjus_psl.1.0.0.UPF
     MD5 check sum: Not computed, couldn't open file
     Pseudo is Ultrasoft + core correction, Zval = 10.0
     Generated using "atomic" code by A. Dal Corso  v.5.1.2
     Using radial grid of 1195 points,  6 beta functions with: 
                l(1) =   0
                l(2) =   0
                l(3) =   1
                l(4) =   1
                l(5) =   2
                l(6) =   2
     Q(r) pseudized with 0 coefficients 


     PseudoPot. # 2 for Mn read from file:
     ~/PSEUDO/Mn.pbe-spn-rrkjus_psl.0.3.1.UPF
     MD5 check sum: Not computed, couldn't open file
     Pseudo is Ultrasoft + core correction, Zval = 15.0
     Generated using &quot;atomic&quot; code by A. Dal Corso  v.6.2.2
     Using radial grid of 1187 points,  6 beta functions with: 
                l(1) =   0
                l(2) =   0
                l(3) =   1
                l(4) =   1
                l(5) =   2
                l(6) =   2
     Q(r) pseudized with 0 coefficients 


     PseudoPot. # 3 for P  read from file:
     ~/PSEUDO/P.pbe-n-rrkjus_psl.1.0.0.UPF
     MD5 check sum: Not computed, couldn't open file
     Pseudo is Ultrasoft + core correction, Zval =  5.0
     Generated using "atomic" code by A. Dal Corso  v.5.1
     Using radial grid of 1147 points,  6 beta functions with: 
                l(1) =   0
                l(2) =   0
                l(3) =   1
                l(4) =   1
                l(5) =   2
                l(6) =   2
     Q(r) pseudized with 0 coefficients 


     PseudoPot. # 4 for O  read from file:
     ~/PSEUDO/O.pbe-rrkjus.UPF
     MD5 check sum: Not computed, couldn't open file
     Pseudo is Ultrasoft, Zval =  6.0
     Generated by new atomic code, or converted to UPF format
     Using radial grid of 1269 points,  4 beta functions with: 
                l(1) =   0
                l(2) =   0
                l(3) =   1
                l(4) =   1
     Q(r) pseudized with 0 coefficients 


     PseudoPot. # 5 for H  read from file:
     ~/PSEUDO/H.pbe-rrkjus.UPF
     MD5 check sum: Not computed, couldn't open file
     Pseudo is Ultrasoft, Zval =  1.0
     Generated by new atomic code, or converted to UPF format
     Using radial grid of 1061 points,  2 beta functions with: 
                l(1) =   0
                l(2) =   0
     Q(r) pseudized with 0 coefficients 


     atomic species   valence    mass     pseudopotential
     Ni               10.00    58.69300     Ni( 1.00)
     Mn               15.00    54.93800     Mn( 1.00)
     P                 5.00    30.97300     P ( 1.00)
     O                 6.00    15.99900     O ( 1.00)
     H                 1.00     1.00790     H ( 1.00)

     Starting magnetic structure 
     atomic species   magnetization
     Ni              1.000
     Mn              1.000
     P               1.000
     O               1.000
     H               0.000

     No symmetry found



   Cartesian axes

     site n.     atom                  positions (alat units)
         1        Ni     tau(   1) = (   0.2506570   0.8586301   1.7460606  )
         2        Mn     tau(   2) = (   0.4849727   0.7922569   1.4298438  )
         3        Ni     tau(   3) = (   0.0099166   0.3147980   1.7770697  )
         4        Ni     tau(   4) = (   0.2559633   0.2443239   1.4306739  )
         5        Ni     tau(   5) = (   0.4961466   1.1064648   1.5948314  )
         6        Ni     tau(   6) = (   0.2497854   0.5481636   1.6051322  )
         7        P      tau(   7) = (   0.2072152   1.0031948   1.4309315  )
         8        P      tau(   8) = (   0.4627705   0.6639515   1.7680067  )
         9        P      tau(   9) = (   0.2880368   0.1077753   1.7607118  )
        10        P      tau(  10) = (   0.0387468   0.4409683   1.4352442  )
        11        O      tau(  11) = (   0.1330935   0.9304818   1.5706977  )
        12        O      tau(  12) = (   0.3831504   0.7264978   1.6204600  )
        13        O      tau(  13) = (   0.3628275   0.1744689   1.6127481  )
        14        O      tau(  14) = (   0.1155931   0.3681480   1.5734176  )
        15        O      tau(  15) = (   0.1485558   0.9123257   1.3024039  )
        16        O      tau(  16) = (   0.3999411   0.7624960   1.8844666  )
        17        O      tau(  17) = (   0.3533233   0.2035263   1.8795646  )
        18        O      tau(  18) = (   0.0986482   0.3547482   1.3039728  )
        19        O      tau(  19) = (   0.0982500   0.5998695   1.4410699  )
        20        O      tau(  20) = (   0.3443251   1.0535330   1.7571523  )
        21        O      tau(  21) = (   0.3728385   0.4379153   1.4465920  )
        22        O      tau(  22) = (   0.1208408   0.1132369   1.7503220  )
        23        O      tau(  23) = (   0.1278822   0.6735676   1.7463016  )
        24        O      tau(  24) = (   0.4096499   0.5020876   1.7635143  )
        25        O      tau(  25) = (   0.1476551   0.0545948   1.4347483  )
        26        O      tau(  26) = (   0.3739202   0.9939412   1.4421146  )
        27        Ni     tau(  27) = (   0.2413539   0.8509941   1.1121345  )
        28        Mn     tau(  28) = (   0.4917018   0.7787406   0.7768134  )
        29        Ni     tau(  29) = (   0.0044877   0.2932623   1.1138982  )
        30        Ni     tau(  30) = (   0.2563139   0.2275682   0.7805625  )
        31        Ni     tau(  31) = (   0.4969120   1.0949007   0.9459116  )
        32        Ni     tau(  32) = (   0.2488318   0.5341111   0.9469721  )
        33        P      tau(  33) = (   0.2076029   0.9882917   0.7835381  )
        34        P      tau(  34) = (   0.4577012   0.6460068   1.1076436  )
        35        P      tau(  35) = (   0.2881931   0.0932770   1.1104179  )
        36        P      tau(  36) = (   0.0392916   0.4238898   0.7837243  )
        37        O      tau(  37) = (   0.1306755   0.9148866   0.9233554  )
        38        O      tau(  38) = (   0.3789780   0.7172835   0.9680652  )
        39        O      tau(  39) = (   0.3654852   0.1662865   0.9702638  )
        40        O      tau(  40) = (   0.1163776   0.3546954   0.9254186  )
        41        O      tau(  41) = (   0.1502901   0.8969129   0.6541592  )
        42        O      tau(  42) = (   0.3974525   0.7354243   1.2370031  )
        43        O      tau(  43) = (   0.3483097   0.1789497   1.2412670  )
        44        O      tau(  44) = (   0.0974932   0.3376387   0.6529083  )
        45        O      tau(  45) = (   0.0984699   0.5818903   0.7881021  )
        46        O      tau(  46) = (   0.3459978   1.0405493   1.1018526  )
        47        O      tau(  47) = (   0.3731719   0.4204123   0.7945555  )
        48        O      tau(  48) = (   0.1223503   0.0989699   1.1000566  )
        49        O      tau(  49) = (   0.1235438   0.6536772   1.0980598  )
        50        O      tau(  50) = (   0.4004339   0.4872435   1.1047245  )
        51        O      tau(  51) = (   0.1476543   0.0398268   0.7872561  )
        52        O      tau(  52) = (   0.3728637   0.9843360   0.7931368  )
        53        Ni     tau(  53) = (   0.2406075   0.8410745   0.4603118  )
        54        Mn     tau(  54) = (   0.4909555   0.7688210   0.1249907  )
        55        Ni     tau(  55) = (   0.0037414   0.2833427   0.4620755  )
        56        Ni     tau(  56) = (   0.2555676   0.2176485   0.1287398  )
        57        Ni     tau(  57) = (   0.4961657   1.0849810   0.2940889  )
        58        Ni     tau(  58) = (   0.2480854   0.5241915   0.2951494  )
        59        P      tau(  59) = (   0.2068565   0.9783721   0.1317154  )
        60        P      tau(  60) = (   0.4569549   0.6360871   0.4558210  )
        61        P      tau(  61) = (   0.2874467   0.0833574   0.4585952  )
        62        P      tau(  62) = (   0.0385452   0.4139702   0.1319017  )
        63        O      tau(  63) = (   0.1299291   0.9049669   0.2715327  )
        64        O      tau(  64) = (   0.3782317   0.7073639   0.3162425  )
        65        O      tau(  65) = (   0.3647389   0.1563669   0.3184411  )
        66        O      tau(  66) = (   0.1156313   0.3447757   0.2735959  )
        67        O      tau(  67) = (   0.1495437   0.8869933   0.0023366  )
        68        O      tau(  68) = (   0.3967062   0.7255047   0.5851804  )
        69        O      tau(  69) = (   0.3475634   0.1690300   0.5894443  )
        70        O      tau(  70) = (   0.0967469   0.3277190   0.0010856  )
        71        O      tau(  71) = (   0.0977236   0.5719706   0.1362794  )
        72        O      tau(  72) = (   0.3452514   1.0306297   0.4500300  )
        73        O      tau(  73) = (   0.3724256   0.4104926   0.1427328  )
        74        O      tau(  74) = (   0.1216040   0.0890503   0.4482339  )
        75        O      tau(  75) = (   0.1227974   0.6437575   0.4462371  )
        76        O      tau(  76) = (   0.3996875   0.4773239   0.4529018  )
        77        O      tau(  77) = (   0.1469079   0.0299071   0.1354334  )
        78        O      tau(  78) = (   0.3721173   0.9744163   0.1413141  )
        79        Ni     tau(  79) = (   0.7512968   0.8629757   1.7463792  )
        80        Mn     tau(  80) = (   0.9856283   0.7922987   1.4298132  )
        81        Ni     tau(  81) = (   0.4994156   0.3046718   1.7432553  )
        82        Ni     tau(  82) = (   0.7561331   0.2436078   1.4290244  )
        83        Ni     tau(  83) = (   0.9969098   1.1094576   1.5975923  )
        84        Ni     tau(  84) = (   0.7520413   0.5511724   1.6011549  )
        85        P      tau(  85) = (   0.7080384   1.0032090   1.4301353  )
        86        P      tau(  86) = (   0.9611635   0.6679249   1.7676684  )
        87        P      tau(  87) = (   0.7866251   0.1146576   1.7538485  )
        88        P      tau(  88) = (   0.5392440   0.4429935   1.4323773  )
        89        O      tau(  89) = (   0.6332873   0.9305214   1.5700818  )
        90        O      tau(  90) = (   0.8817828   0.7322621   1.6197895  )
        91        O      tau(  91) = (   0.8630260   0.1746843   1.6073185  )
        92        O      tau(  92) = (   0.6180632   0.3716942   1.5710585  )
        93        O      tau(  93) = (   0.6497195   0.9106468   1.3026397  )
        94        O      tau(  94) = (   0.9019451   0.7695149   1.8836030  )
        95        O      tau(  95) = (   0.8435869   0.2142205   1.8732697  )
        96        O      tau(  96) = (   0.5989220   0.3556149   1.3022932  )
        97        O      tau(  97) = (   0.5988978   0.6014494   1.4382358  )
        98        O      tau(  98) = (   0.8418133   1.0593846   1.7579884  )
        99        O      tau(  99) = (   0.8718788   0.4384067   1.4450747  )
       100        O      tau( 100) = (   0.6185655   0.1172295   1.7419182  )
       101        O      tau( 101) = (   0.6296522   0.6725592   1.7491468  )
       102        O      tau( 102) = (   0.9012154   0.5091499   1.7607365  )
       103        O      tau( 103) = (   0.6461684   0.0538532   1.4316752  )
       104        O      tau( 104) = (   0.8745741   0.9956699   1.4422503  )
       105        Ni     tau( 105) = (   0.7413539   0.8509941   1.1121345  )
       106        Mn     tau( 106) = (   0.9917018   0.7787406   0.7768134  )
       107        Ni     tau( 107) = (   0.5044877   0.2932623   1.1138982  )
       108        Ni     tau( 108) = (   0.7563139   0.2275682   0.7805625  )
       109        Ni     tau( 109) = (   0.9969120   1.0949007   0.9459116  )
       110        Ni     tau( 110) = (   0.7488318   0.5341111   0.9469721  )
       111        P      tau( 111) = (   0.7076029   0.9882917   0.7835381  )
       112        P      tau( 112) = (   0.9577012   0.6460068   1.1076436  )
       113        P      tau( 113) = (   0.7881931   0.0932770   1.1104179  )
       114        P      tau( 114) = (   0.5392916   0.4238898   0.7837243  )
       115        O      tau( 115) = (   0.6306755   0.9148866   0.9233554  )
       116        O      tau( 116) = (   0.8789780   0.7172835   0.9680652  )
       117        O      tau( 117) = (   0.8654852   0.1662865   0.9702638  )
       118        O      tau( 118) = (   0.6163776   0.3546954   0.9254186  )
       119        O      tau( 119) = (   0.6502901   0.8969129   0.6541592  )
       120        O      tau( 120) = (   0.8974525   0.7354243   1.2370031  )
       121        O      tau( 121) = (   0.8483097   0.1789497   1.2412670  )
       122        O      tau( 122) = (   0.5974932   0.3376387   0.6529083  )
       123        O      tau( 123) = (   0.5984699   0.5818903   0.7881021  )
       124        O      tau( 124) = (   0.8459978   1.0405493   1.1018526  )
       125        O      tau( 125) = (   0.8731719   0.4204123   0.7945555  )
       126        O      tau( 126) = (   0.6223503   0.0989699   1.1000566  )
       127        O      tau( 127) = (   0.6235438   0.6536772   1.0980598  )
       128        O      tau( 128) = (   0.9004339   0.4872435   1.1047245  )
       129        O      tau( 129) = (   0.6476543   0.0398268   0.7872561  )
       130        O      tau( 130) = (   0.8728637   0.9843360   0.7931368  )
       131        Ni     tau( 131) = (   0.7406075   0.8410745   0.4603118  )
       132        Mn     tau( 132) = (   0.9909555   0.7688210   0.1249907  )
       133        Ni     tau( 133) = (   0.5037414   0.2833427   0.4620755  )
       134        Ni     tau( 134) = (   0.7555676   0.2176485   0.1287398  )
       135        Ni     tau( 135) = (   0.9961657   1.0849810   0.2940889  )
       136        Ni     tau( 136) = (   0.7480854   0.5241915   0.2951494  )
       137        P      tau( 137) = (   0.7068565   0.9783721   0.1317154  )
       138        P      tau( 138) = (   0.9569549   0.6360871   0.4558210  )
       139        P      tau( 139) = (   0.7874467   0.0833574   0.4585952  )
       140        P      tau( 140) = (   0.5385452   0.4139702   0.1319017  )
       141        O      tau( 141) = (   0.6299291   0.9049669   0.2715327  )
       142        O      tau( 142) = (   0.8782317   0.7073639   0.3162425  )
       143        O      tau( 143) = (   0.8647389   0.1563669   0.3184411  )
       144        O      tau( 144) = (   0.6156313   0.3447757   0.2735959  )
       145        O      tau( 145) = (   0.6495437   0.8869933   0.0023366  )
       146        O      tau( 146) = (   0.8967062   0.7255047   0.5851804  )
       147        O      tau( 147) = (   0.8475634   0.1690300   0.5894443  )
       148        O      tau( 148) = (   0.5967469   0.3277190   0.0010856  )
       149        O      tau( 149) = (   0.5977236   0.5719706   0.1362794  )
       150        O      tau( 150) = (   0.8452514   1.0306297   0.4500300  )
       151        O      tau( 151) = (   0.8724256   0.4104926   0.1427328  )
       152        O      tau( 152) = (   0.6216040   0.0890503   0.4482339  )
       153        O      tau( 153) = (   0.6227974   0.6437575   0.4462371  )
       154        O      tau( 154) = (   0.8996875   0.4773239   0.4529018  )
       155        O      tau( 155) = (   0.6469079   0.0299071   0.1354334  )
       156        O      tau( 156) = (   0.8721173   0.9744163   0.1413141  )
       157        O      tau( 157) = (   0.1278368   0.3974856   1.9116046  )
       158        H      tau( 158) = (   0.2123993   0.3350718   1.9339679  )

     -------------------------------------------------
     Parameters for Dispersion (Grimme-D2) Correction:
     -------------------------------------------------
       atom      VdW radius       C_6     

        Ni         2.952        374.666
        Mn         2.952        374.666
        P          3.222        271.980
        O          2.536         24.284
        H          1.892          4.857

     number of k points=     1  Gaussian smearing, width (Ry)=  0.0100
                       cart. coord. in units 2pi/alat
        k(    1) = (   0.0000000   0.0000000   0.0000000), wk =   1.0000000

     Dense  grid:  1938023 G-vectors     FFT dimensions: ( 125, 144, 450)

     Smooth grid:   490328 G-vectors     FFT dimensions: (  80,  90, 288)

     Estimated max dynamical RAM per process >     326.29 MB

     Estimated total dynamical RAM >      20.39 GB

     Check: negative core charge=   -0.000001
     Generating pointlists ...
     new r_m :   0.0813 (alat units)  1.4151 (a.u.) for type    1
     new r_m :   0.0904 (alat units)  1.5744 (a.u.) for type    2
     new r_m :   0.0681 (alat units)  1.1847 (a.u.) for type    3
     new r_m :   0.0443 (alat units)  0.7716 (a.u.) for type    4
     new r_m :   0.0443 (alat units)  0.7716 (a.u.) for type    5

     Initial potential from superposition of free atoms

     starting charge    1092.8893, renormalised to    1093.0000

     negative rho (up, down):  1.399E-03 4.541E-04
 
     Adding external electric field

     Computed dipole along edir(3) : 
        Dipole                1.6487 Ry au,          4.1906 Debye
        Dipole field          0.0010 Ry au, 
 
        Potential amp.       -0.1113 Ry
        Total length         55.1515 bohr
 
 
     Adding external electric field

     Computed dipole along edir(3) : 
        Dipole                1.6487 Ry au,          4.1906 Debye
        Dipole field          0.0010 Ry au, 
 
        Potential amp.       -0.1113 Ry
        Total length         55.1515 bohr
 
     Starting wfcs are  815 randomized atomic wfcs

     total cpu time spent up to now is       11.2 secs

     Self-consistent Calculation

     iteration #  1     ecut=    50.00 Ry     beta= 0.50
     Davidson diagonalization with overlap
     ethr =  1.00E-02,  avg # of iterations =  6.0

     negative rho (up, down):  2.545E+00 1.380E-05
 
     Adding external electric field

     Computed dipole along edir(3) : 
        Dipole              -24.9315 Ry au,        -63.3696 Debye
        Dipole field         -0.0153 Ry au, 
 
        Potential amp.        1.6833 Ry
        Total length         55.1515 bohr
 
 
     Adding external electric field

     Computed dipole along edir(3) : 
        Dipole              -24.9315 Ry au,        -63.3696 Debye
        Dipole field         -0.0153 Ry au, 
 
        Potential amp.        1.6833 Ry
        Total length         55.1515 bohr
 

     total cpu time spent up to now is       40.5 secs

     total energy              =   -7546.81668055 Ry
     estimated scf accuracy    <     800.35237105 Ry

     total magnetization       =   219.00 Bohr mag/cell
     absolute magnetization    =   307.22 Bohr mag/cell

     iteration #  2     ecut=    50.00 Ry     beta= 0.50
     Davidson diagonalization with overlap
     ethr =  1.00E-02,  avg # of iterations =  8.0

     negative rho (up, down):  2.487E+00 1.876E-05
 
     Adding external electric field

     Computed dipole along edir(3) : 
        Dipole                0.7484 Ry au,          1.9022 Debye
        Dipole field          0.0005 Ry au, 
 
        Potential amp.       -0.0505 Ry
        Total length         55.1515 bohr
 
 
     Adding external electric field

     Computed dipole along edir(3) : 
        Dipole                0.7484 Ry au,          1.9022 Debye
        Dipole field          0.0005 Ry au, 
 
        Potential amp.       -0.0505 Ry
        Total length         55.1515 bohr
 

     total cpu time spent up to now is       73.1 secs

     total energy              =   -7625.50006218 Ry
     estimated scf accuracy    <   10570.71705981 Ry

     total magnetization       =   128.45 Bohr mag/cell
     absolute magnetization    =   167.66 Bohr mag/cell

     iteration #  3     ecut=    50.00 Ry     beta= 0.50
     Davidson diagonalization with overlap
     ethr =  1.00E-02,  avg # of iterations = 10.0

     negative rho (up, down):  1.759E+00 1.204E-04
 
     Adding external electric field

     Computed dipole along edir(3) : 
        Dipole               -1.8246 Ry au,         -4.6376 Debye
        Dipole field         -0.0011 Ry au, 
 
        Potential amp.        0.1232 Ry
        Total length         55.1515 bohr
 
 
     Adding external electric field

     Computed dipole along edir(3) : 
        Dipole               -1.8246 Ry au,         -4.6376 Debye
        Dipole field         -0.0011 Ry au, 
 
        Potential amp.        0.1232 Ry
        Total length         55.1515 bohr
 

     total cpu time spent up to now is       99.9 secs

     total energy              =   -7705.41097985 Ry
     estimated scf accuracy    <     667.15127793 Ry

     total magnetization       =   124.69 Bohr mag/cell
     absolute magnetization    =   165.36 Bohr mag/cell

     iteration #  4     ecut=    50.00 Ry     beta= 0.50
     Davidson diagonalization with overlap
     ethr =  1.00E-02,  avg # of iterations =  2.0

     negative rho (up, down):  9.355E-01 5.671E-06
 
     Adding external electric field

     Computed dipole along edir(3) : 
        Dipole               -2.3077 Ry au,         -5.8655 Debye
        Dipole field         -0.0014 Ry au, 
 
        Potential amp.        0.1558 Ry
        Total length         55.1515 bohr
 
 
     Adding external electric field

     Computed dipole along edir(3) : 
        Dipole               -2.3077 Ry au,         -5.8655 Debye
        Dipole field         -0.0014 Ry au, 
 
        Potential amp.        0.1558 Ry
        Total length         55.1515 bohr
 

     total cpu time spent up to now is      115.5 secs

     total energy              =   -7724.86712032 Ry
     estimated scf accuracy    <      60.02596368 Ry

     total magnetization       =    92.81 Bohr mag/cell
     absolute magnetization    =   137.02 Bohr mag/cell

     iteration #  5     ecut=    50.00 Ry     beta= 0.50
     Davidson diagonalization with overlap
     ethr =  5.49E-03,  avg # of iterations =  1.5

     negative rho (up, down):  5.238E-01 0.000E+00
 
     Adding external electric field

     Computed dipole along edir(3) : 
        Dipole               -2.6931 Ry au,         -6.8452 Debye
        Dipole field         -0.0016 Ry au, 
 
        Potential amp.        0.1818 Ry
        Total length         55.1515 bohr
 
 
     Adding external electric field

     Computed dipole along edir(3) : 
        Dipole               -2.6931 Ry au,         -6.8452 Debye
        Dipole field         -0.0016 Ry au, 
 
        Potential amp.        0.1818 Ry
        Total length         55.1515 bohr
 

     total cpu time spent up to now is      129.6 secs

     total energy              =   -7730.62219156 Ry
     estimated scf accuracy    <      69.09631333 Ry

     total magnetization       =    90.99 Bohr mag/cell
     absolute magnetization    =   122.10 Bohr mag/cell

     iteration #  6     ecut=    50.00 Ry     beta= 0.50
     Davidson diagonalization with overlap
     ethr =  5.49E-03,  avg # of iterations =  2.0

     negative rho (up, down):  7.122E-02 2.416E-06
 
     Adding external electric field

     Computed dipole along edir(3) : 
        Dipole               -3.2271 Ry au,         -8.2025 Debye
        Dipole field         -0.0020 Ry au, 
 
        Potential amp.        0.2179 Ry
        Total length         55.1515 bohr
 
 
     Adding external electric field

     Computed dipole along edir(3) : 
        Dipole               -3.2271 Ry au,         -8.2025 Debye
        Dipole field         -0.0020 Ry au, 
 
        Potential amp.        0.2179 Ry
        Total length         55.1515 bohr
 

     total cpu time spent up to now is      144.8 secs

     total energy              =   -7735.24871051 Ry
     estimated scf accuracy    <      25.22449304 Ry

     total magnetization       =    91.00 Bohr mag/cell
     absolute magnetization    =   114.12 Bohr mag/cell

     iteration #  7     ecut=    50.00 Ry     beta= 0.50
     Davidson diagonalization with overlap
     ethr =  2.31E-03,  avg # of iterations =  2.0

     negative rho (up, down):  1.272E-04 4.721E-04
 
     Adding external electric field

     Computed dipole along edir(3) : 
        Dipole               -3.5818 Ry au,         -9.1039 Debye
        Dipole field         -0.0022 Ry au, 
 
        Potential amp.        0.2418 Ry
        Total length         55.1515 bohr
 
 
     Adding external electric field

     Computed dipole along edir(3) : 
        Dipole               -3.5818 Ry au,         -9.1039 Debye
        Dipole field         -0.0022 Ry au, 
 
        Potential amp.        0.2418 Ry
        Total length         55.1515 bohr
 

     total cpu time spent up to now is      160.2 secs

     total energy              =   -7737.28963648 Ry
     estimated scf accuracy    <      26.71055957 Ry

     total magnetization       =    89.66 Bohr mag/cell
     absolute magnetization    =   103.56 Bohr mag/cell

     iteration #  8     ecut=    50.00 Ry     beta= 0.50
     Davidson diagonalization with overlap
     ethr =  2.31E-03,  avg # of iterations =  1.5

     negative rho (up, down):  5.090E-05 7.349E-04
 
     Adding external electric field

     Computed dipole along edir(3) : 
        Dipole               -3.5991 Ry au,         -9.1479 Debye
        Dipole field         -0.0022 Ry au, 
 
        Potential amp.        0.2430 Ry
        Total length         55.1515 bohr
 
 
     Adding external electric field

     Computed dipole along edir(3) : 
        Dipole               -3.5991 Ry au,         -9.1479 Debye
        Dipole field         -0.0022 Ry au, 
 
        Potential amp.        0.2430 Ry
        Total length         55.1515 bohr
 

     total cpu time spent up to now is      174.8 secs

     total energy              =   -7738.19909369 Ry
     estimated scf accuracy    <      27.37985902 Ry

     total magnetization       =    82.85 Bohr mag/cell
     absolute magnetization    =    91.34 Bohr mag/cell

     iteration #  9     ecut=    50.00 Ry     beta= 0.50
     Davidson diagonalization with overlap
     ethr =  2.31E-03,  avg # of iterations =  1.0

     negative rho (up, down):  3.477E-05 1.090E-03
 
     Adding external electric field

     Computed dipole along edir(3) : 
        Dipole               -3.5574 Ry au,         -9.0421 Debye
        Dipole field         -0.0022 Ry au, 
 
        Potential amp.        0.2402 Ry
        Total length         55.1515 bohr
 
 
     Adding external electric field

     Computed dipole along edir(3) : 
        Dipole               -3.5574 Ry au,         -9.0421 Debye
        Dipole field         -0.0022 Ry au, 
 
        Potential amp.        0.2402 Ry
        Total length         55.1515 bohr
 

     total cpu time spent up to now is      188.5 secs

     total energy              =   -7738.27400480 Ry
     estimated scf accuracy    <      10.28938919 Ry

     total magnetization       =    83.69 Bohr mag/cell
     absolute magnetization    =    91.23 Bohr mag/cell

     iteration # 10     ecut=    50.00 Ry     beta= 0.50
     Davidson diagonalization with overlap
     ethr =  9.41E-04,  avg # of iterations =  4.5

     negative rho (up, down):  3.902E-05 2.532E-03
 
     Adding external electric field

     Computed dipole along edir(3) : 
        Dipole               -3.5518 Ry au,         -9.0278 Debye
        Dipole field         -0.0022 Ry au, 
 
        Potential amp.        0.2398 Ry
        Total length         55.1515 bohr
 
 
     Adding external electric field

     Computed dipole along edir(3) : 
        Dipole               -3.5518 Ry au,         -9.0278 Debye
        Dipole field         -0.0022 Ry au, 
 
        Potential amp.        0.2398 Ry
        Total length         55.1515 bohr
 

     total cpu time spent up to now is      204.8 secs

     total energy              =   -7738.19826955 Ry
     estimated scf accuracy    <      25.09604694 Ry

     total magnetization       =    87.57 Bohr mag/cell
     absolute magnetization    =    93.43 Bohr mag/cell

     iteration # 11     ecut=    50.00 Ry     beta= 0.50
     Davidson diagonalization with overlap
     ethr =  9.41E-04,  avg # of iterations =  1.5

     negative rho (up, down):  5.071E-08 1.171E-04
 
     Adding external electric field

     Computed dipole along edir(3) : 
        Dipole               -3.4129 Ry au,         -8.6747 Debye
        Dipole field         -0.0021 Ry au, 
 
        Potential amp.        0.2304 Ry
        Total length         55.1515 bohr
 
 
     Adding external electric field

     Computed dipole along edir(3) : 
        Dipole               -3.4129 Ry au,         -8.6747 Debye
        Dipole field         -0.0021 Ry au, 
 
        Potential amp.        0.2304 Ry
        Total length         55.1515 bohr
 

     total cpu time spent up to now is      219.1 secs

     total energy              =   -7738.33955262 Ry
     estimated scf accuracy    <       5.23928935 Ry

     total magnetization       =    87.37 Bohr mag/cell
     absolute magnetization    =    91.82 Bohr mag/cell

     iteration # 12     ecut=    50.00 Ry     beta= 0.50
     Davidson diagonalization with overlap
     ethr =  4.79E-04,  avg # of iterations =  7.5

     negative rho (up, down):  0.000E+00 1.106E-05
 
     Adding external electric field

     Computed dipole along edir(3) : 
        Dipole               -3.3043 Ry au,         -8.3987 Debye
        Dipole field         -0.0020 Ry au, 
 
        Potential amp.        0.2231 Ry
        Total length         55.1515 bohr
 
 
     Adding external electric field

     Computed dipole along edir(3) : 
        Dipole               -3.3043 Ry au,         -8.3987 Debye
        Dipole field         -0.0020 Ry au, 
 
        Potential amp.        0.2231 Ry
        Total length         55.1515 bohr
 

     total cpu time spent up to now is      238.8 secs

     total energy              =   -7738.42639139 Ry
     estimated scf accuracy    <       6.77032152 Ry

     total magnetization       =    86.25 Bohr mag/cell
     absolute magnetization    =    89.93 Bohr mag/cell

     iteration # 13     ecut=    50.00 Ry     beta= 0.50
     Davidson diagonalization with overlap
     ethr =  4.79E-04,  avg # of iterations =  1.0
 
     Adding external electric field

     Computed dipole along edir(3) : 
        Dipole               -2.9677 Ry au,         -7.5433 Debye
        Dipole field         -0.0018 Ry au, 
 
        Potential amp.        0.2004 Ry
        Total length         55.1515 bohr
 
 
     Adding external electric field

     Computed dipole along edir(3) : 
        Dipole               -2.9677 Ry au,         -7.5433 Debye
        Dipole field         -0.0018 Ry au, 
 
        Potential amp.        0.2004 Ry
        Total length         55.1515 bohr
 

     total cpu time spent up to now is      252.1 secs

     total energy              =   -7738.32262139 Ry
     estimated scf accuracy    <      20.11323411 Ry

     total magnetization       =    85.23 Bohr mag/cell
     absolute magnetization    =    88.77 Bohr mag/cell

     iteration # 14     ecut=    50.00 Ry     beta= 0.50
     Davidson diagonalization with overlap
     ethr =  4.79E-04,  avg # of iterations =  2.0

     negative rho (up, down):  1.277E-08 0.000E+00
 
     Adding external electric field

     Computed dipole along edir(3) : 
        Dipole               -2.8324 Ry au,         -7.1993 Debye
        Dipole field         -0.0017 Ry au, 
 
        Potential amp.        0.1912 Ry
        Total length         55.1515 bohr
 
 
     Adding external electric field

     Computed dipole along edir(3) : 
        Dipole               -2.8324 Ry au,         -7.1993 Debye
        Dipole field         -0.0017 Ry au, 
 
        Potential amp.        0.1912 Ry
        Total length         55.1515 bohr
 

     total cpu time spent up to now is      266.5 secs

     total energy              =   -7738.23650237 Ry
     estimated scf accuracy    <      23.19702290 Ry

     total magnetization       =    88.21 Bohr mag/cell
     absolute magnetization    =    91.15 Bohr mag/cell

     iteration # 15     ecut=    50.00 Ry     beta= 0.50
     Davidson diagonalization with overlap
     ethr =  4.79E-04,  avg # of iterations =  1.5

     negative rho (up, down):  2.486E-07 1.220E-03
 
     Adding external electric field

     Computed dipole along edir(3) : 
        Dipole               -2.6519 Ry au,         -6.7405 Debye
        Dipole field         -0.0016 Ry au, 
 
        Potential amp.        0.1791 Ry
        Total length         55.1515 bohr
 
 
     Adding external electric field

     Computed dipole along edir(3) : 
        Dipole               -2.6519 Ry au,         -6.7405 Debye
        Dipole field         -0.0016 Ry au, 
 
        Potential amp.        0.1791 Ry
        Total length         55.1515 bohr
 

     total cpu time spent up to now is      280.2 secs

     total energy              =   -7738.21979881 Ry
     estimated scf accuracy    <      21.84499815 Ry

     total magnetization       =    88.43 Bohr mag/cell
     absolute magnetization    =    90.65 Bohr mag/cell

     iteration # 16     ecut=    50.00 Ry     beta= 0.50
     Davidson diagonalization with overlap
     ethr =  4.79E-04,  avg # of iterations =  1.5
 
     Adding external electric field

     Computed dipole along edir(3) : 
        Dipole               -2.6664 Ry au,         -6.7774 Debye
        Dipole field         -0.0016 Ry au, 
 
        Potential amp.        0.1800 Ry
        Total length         55.1515 bohr
 
 
     Adding external electric field

     Computed dipole along edir(3) : 
        Dipole               -2.6664 Ry au,         -6.7774 Debye
        Dipole field         -0.0016 Ry au, 
 
        Potential amp.        0.1800 Ry
        Total length         55.1515 bohr
 

     total cpu time spent up to now is      294.0 secs

     total energy              =   -7738.30672188 Ry
     estimated scf accuracy    <       2.46206776 Ry

     total magnetization       =    86.99 Bohr mag/cell
     absolute magnetization    =    88.39 Bohr mag/cell

     iteration # 17     ecut=    50.00 Ry     beta= 0.50
     Davidson diagonalization with overlap
     ethr =  2.25E-04,  avg # of iterations =  2.0
 
     Adding external electric field

     Computed dipole along edir(3) : 
        Dipole               -2.4458 Ry au,         -6.2165 Debye
        Dipole field         -0.0015 Ry au, 
 
        Potential amp.        0.1651 Ry
        Total length         55.1515 bohr
 
 
     Adding external electric field

     Computed dipole along edir(3) : 
        Dipole               -2.4458 Ry au,         -6.2165 Debye
        Dipole field         -0.0015 Ry au, 
 
        Potential amp.        0.1651 Ry
        Total length         55.1515 bohr
 

     total cpu time spent up to now is      308.3 secs

     total energy              =   -7738.33829635 Ry
     estimated scf accuracy    <       2.08766999 Ry

     total magnetization       =    87.91 Bohr mag/cell
     absolute magnetization    =    89.52 Bohr mag/cell

     iteration # 18     ecut=    50.00 Ry     beta= 0.50
     Davidson diagonalization with overlap
     ethr =  1.91E-04,  avg # of iterations =  2.0

     negative rho (up, down):  3.967E-08 9.858E-06
 
     Adding external electric field

     Computed dipole along edir(3) : 
        Dipole               -2.2499 Ry au,         -5.7187 Debye
        Dipole field         -0.0014 Ry au, 
 
        Potential amp.        0.1519 Ry
        Total length         55.1515 bohr
 
 
     Adding external electric field

     Computed dipole along edir(3) : 
        Dipole               -2.2499 Ry au,         -5.7187 Debye
        Dipole field         -0.0014 Ry au, 
 
        Potential amp.        0.1519 Ry
        Total length         55.1515 bohr
 

     total cpu time spent up to now is      321.9 secs

     total energy              =   -7738.32853901 Ry
     estimated scf accuracy    <       1.42006906 Ry

     total magnetization       =    88.01 Bohr mag/cell
     absolute magnetization    =    89.39 Bohr mag/cell

     iteration # 19     ecut=    50.00 Ry     beta= 0.50
     Davidson diagonalization with overlap
     ethr =  1.30E-04,  avg # of iterations =  2.0

     negative rho (up, down):  0.000E+00 1.090E-08
 
     Adding external electric field

     Computed dipole along edir(3) : 
        Dipole               -2.1048 Ry au,         -5.3499 Debye
        Dipole field         -0.0013 Ry au, 
 
        Potential amp.        0.1421 Ry
        Total length         55.1515 bohr
 
 
     Adding external electric field

     Computed dipole along edir(3) : 
        Dipole               -2.1048 Ry au,         -5.3499 Debye
        Dipole field         -0.0013 Ry au, 
 
        Potential amp.        0.1421 Ry
        Total length         55.1515 bohr
 

     total cpu time spent up to now is      335.8 secs

     total energy              =   -7738.32094559 Ry
     estimated scf accuracy    <       1.36443886 Ry

     total magnetization       =    87.05 Bohr mag/cell
     absolute magnetization    =    88.19 Bohr mag/cell

     iteration # 20     ecut=    50.00 Ry     beta= 0.50
     Davidson diagonalization with overlap
     ethr =  1.25E-04,  avg # of iterations =  3.5
 
     Adding external electric field

     Computed dipole along edir(3) : 
        Dipole               -2.0295 Ry au,         -5.1585 Debye
        Dipole field         -0.0012 Ry au, 
 
        Potential amp.        0.1370 Ry
        Total length         55.1515 bohr
 
 
     Adding external electric field

     Computed dipole along edir(3) : 
        Dipole               -2.0295 Ry au,         -5.1585 Debye
        Dipole field         -0.0012 Ry au, 
 
        Potential amp.        0.1370 Ry
        Total length         55.1515 bohr
 

     total cpu time spent up to now is      350.7 secs

     total energy              =   -7738.32855468 Ry
     estimated scf accuracy    <       0.78005464 Ry

     total magnetization       =    87.76 Bohr mag/cell
     absolute magnetization    =    88.91 Bohr mag/cell

     iteration # 21     ecut=    50.00 Ry     beta= 0.50
     Davidson diagonalization with overlap
     c_bands:  3 eigenvalues not converged
     ethr =  7.14E-05,  avg # of iterations = 21.0

     negative rho (up, down):  0.000E+00 8.800E-06
 
     Adding external electric field

     Computed dipole along edir(3) : 
        Dipole               -1.9137 Ry au,         -4.8643 Debye
        Dipole field         -0.0012 Ry au, 
 
        Potential amp.        0.1292 Ry
        Total length         55.1515 bohr
 
 
     Adding external electric field

     Computed dipole along edir(3) : 
        Dipole               -1.9137 Ry au,         -4.8643 Debye
        Dipole field         -0.0012 Ry au, 
 
        Potential amp.        0.1292 Ry
        Total length         55.1515 bohr
 

     total cpu time spent up to now is      386.4 secs

     total energy              =   -7738.32717118 Ry
     estimated scf accuracy    <       0.40043309 Ry

     total magnetization       =    88.33 Bohr mag/cell
     absolute magnetization    =    89.48 Bohr mag/cell

     iteration # 22     ecut=    50.00 Ry     beta= 0.50
     Davidson diagonalization with overlap
     ethr =  3.66E-05,  avg # of iterations =  2.0
 
     Adding external electric field

     Computed dipole along edir(3) : 
        Dipole               -1.9155 Ry au,         -4.8686 Debye
        Dipole field         -0.0012 Ry au, 
 
        Potential amp.        0.1293 Ry
        Total length         55.1515 bohr
 
 
     Adding external electric field

     Computed dipole along edir(3) : 
        Dipole               -1.9155 Ry au,         -4.8686 Debye
        Dipole field         -0.0012 Ry au, 
 
        Potential amp.        0.1293 Ry
        Total length         55.1515 bohr
 

     total cpu time spent up to now is      401.3 secs

     total energy              =   -7738.33402865 Ry
     estimated scf accuracy    <       0.27760592 Ry

     total magnetization       =    88.22 Bohr mag/cell
     absolute magnetization    =    89.35 Bohr mag/cell

     iteration # 23     ecut=    50.00 Ry     beta= 0.50
     Davidson diagonalization with overlap
     ethr =  2.54E-05,  avg # of iterations =  1.5
 
     Adding external electric field

     Computed dipole along edir(3) : 
        Dipole               -1.9095 Ry au,         -4.8535 Debye
        Dipole field         -0.0012 Ry au, 
 
        Potential amp.        0.1289 Ry
        Total length         55.1515 bohr
 
 
     Adding external electric field

     Computed dipole along edir(3) : 
        Dipole               -1.9095 Ry au,         -4.8535 Debye
        Dipole field         -0.0012 Ry au, 
 
        Potential amp.        0.1289 Ry
        Total length         55.1515 bohr
 

     total cpu time spent up to now is      415.4 secs

     total energy              =   -7738.34026686 Ry
     estimated scf accuracy    <       0.19376570 Ry

     total magnetization       =    88.45 Bohr mag/cell
     absolute magnetization    =    89.65 Bohr mag/cell

     iteration # 24     ecut=    50.00 Ry     beta= 0.50
     Davidson diagonalization with overlap
     ethr =  1.77E-05,  avg # of iterations =  2.0
 
     Adding external electric field

     Computed dipole along edir(3) : 
        Dipole               -1.7845 Ry au,         -4.5356 Debye
        Dipole field         -0.0011 Ry au, 
 
        Potential amp.        0.1205 Ry
        Total length         55.1515 bohr
 
 
     Adding external electric field

     Computed dipole along edir(3) : 
        Dipole               -1.7845 Ry au,         -4.5356 Debye
        Dipole field         -0.0011 Ry au, 
 
        Potential amp.        0.1205 Ry
        Total length         55.1515 bohr
 

     total cpu time spent up to now is      429.4 secs

     total energy              =   -7738.34051344 Ry
     estimated scf accuracy    <       0.11362013 Ry

     total magnetization       =    88.75 Bohr mag/cell
     absolute magnetization    =    90.13 Bohr mag/cell

     iteration # 25     ecut=    50.00 Ry     beta= 0.50
     Davidson diagonalization with overlap
     ethr =  1.04E-05,  avg # of iterations =  2.0
 
     Adding external electric field

     Computed dipole along edir(3) : 
        Dipole               -1.7090 Ry au,         -4.3439 Debye
        Dipole field         -0.0010 Ry au, 
 
        Potential amp.        0.1154 Ry
        Total length         55.1515 bohr
 
 
     Adding external electric field

     Computed dipole along edir(3) : 
        Dipole               -1.7090 Ry au,         -4.3439 Debye
        Dipole field         -0.0010 Ry au, 
 
        Potential amp.        0.1154 Ry
        Total length         55.1515 bohr
 

     total cpu time spent up to now is      443.5 secs

     total energy              =   -7738.33935658 Ry
     estimated scf accuracy    <       0.11298220 Ry

     total magnetization       =    88.65 Bohr mag/cell
     absolute magnetization    =    90.11 Bohr mag/cell

     iteration # 26     ecut=    50.00 Ry     beta= 0.50
     Davidson diagonalization with overlap
     ethr =  1.03E-05,  avg # of iterations =  2.0
 
     Adding external electric field

     Computed dipole along edir(3) : 
        Dipole               -1.6572 Ry au,         -4.2122 Debye
        Dipole field         -0.0010 Ry au, 
 
        Potential amp.        0.1119 Ry
        Total length         55.1515 bohr
 
 
     Adding external electric field

     Computed dipole along edir(3) : 
        Dipole               -1.6572 Ry au,         -4.2122 Debye
        Dipole field         -0.0010 Ry au, 
 
        Potential amp.        0.1119 Ry
        Total length         55.1515 bohr
 

     total cpu time spent up to now is      457.3 secs

     total energy              =   -7738.33896751 Ry
     estimated scf accuracy    <       0.11386935 Ry

     total magnetization       =    88.65 Bohr mag/cell
     absolute magnetization    =    90.14 Bohr mag/cell

     iteration # 27     ecut=    50.00 Ry     beta= 0.50
     Davidson diagonalization with overlap
     ethr =  1.03E-05,  avg # of iterations =  2.0
 
     Adding external electric field

     Computed dipole along edir(3) : 
        Dipole               -1.6741 Ry au,         -4.2552 Debye
        Dipole field         -0.0010 Ry au, 
 
        Potential amp.        0.1130 Ry
        Total length         55.1515 bohr
 
 
     Adding external electric field

     Computed dipole along edir(3) : 
        Dipole               -1.6741 Ry au,         -4.2552 Debye
        Dipole field         -0.0010 Ry au, 
 
        Potential amp.        0.1130 Ry
        Total length         55.1515 bohr
 

     total cpu time spent up to now is      471.2 secs

     total energy              =   -7738.34009505 Ry
     estimated scf accuracy    <       0.14726122 Ry

     total magnetization       =    88.51 Bohr mag/cell
     absolute magnetization    =    90.00 Bohr mag/cell

     iteration # 28     ecut=    50.00 Ry     beta= 0.50
     Davidson diagonalization with overlap
     ethr =  1.03E-05,  avg # of iterations =  2.0
 
     Adding external electric field

     Computed dipole along edir(3) : 
        Dipole               -1.6760 Ry au,         -4.2600 Debye
        Dipole field         -0.0010 Ry au, 
 
        Potential amp.        0.1132 Ry
        Total length         55.1515 bohr
 
 
     Adding external electric field

     Computed dipole along edir(3) : 
        Dipole               -1.6760 Ry au,         -4.2600 Debye
        Dipole field         -0.0010 Ry au, 
 
        Potential amp.        0.1132 Ry
        Total length         55.1515 bohr
 

     total cpu time spent up to now is      485.2 secs

     total energy              =   -7738.34013485 Ry
     estimated scf accuracy    <       0.15406654 Ry

     total magnetization       =    88.60 Bohr mag/cell
     absolute magnetization    =    90.07 Bohr mag/cell

     iteration # 29     ecut=    50.00 Ry     beta= 0.50
     Davidson diagonalization with overlap
     ethr =  1.03E-05,  avg # of iterations =  2.0
 
     Adding external electric field

     Computed dipole along edir(3) : 
        Dipole               -1.6401 Ry au,         -4.1687 Debye
        Dipole field         -0.0010 Ry au, 
 
        Potential amp.        0.1107 Ry
        Total length         55.1515 bohr
 
 
     Adding external electric field

     Computed dipole along edir(3) : 
        Dipole               -1.6401 Ry au,         -4.1687 Debye
        Dipole field         -0.0010 Ry au, 
 
        Potential amp.        0.1107 Ry
        Total length         55.1515 bohr
 

     total cpu time spent up to now is      499.0 secs

     total energy              =   -7738.33972508 Ry
     estimated scf accuracy    <       0.13641940 Ry

     total magnetization       =    88.55 Bohr mag/cell
     absolute magnetization    =    90.02 Bohr mag/cell

     iteration # 30     ecut=    50.00 Ry     beta= 0.50
     Davidson diagonalization with overlap
     ethr =  1.03E-05,  avg # of iterations =  2.0
 
     Adding external electric field

     Computed dipole along edir(3) : 
        Dipole               -1.7653 Ry au,         -4.4869 Debye
        Dipole field         -0.0011 Ry au, 
 
        Potential amp.        0.1192 Ry
        Total length         55.1515 bohr
 
 
     Adding external electric field

     Computed dipole along edir(3) : 
        Dipole               -1.7653 Ry au,         -4.4869 Debye
        Dipole field         -0.0011 Ry au, 
 
        Potential amp.        0.1192 Ry
        Total length         55.1515 bohr
 

     total cpu time spent up to now is      513.0 secs

     total energy              =   -7738.34030379 Ry
     estimated scf accuracy    <       0.17976497 Ry

     total magnetization       =    88.50 Bohr mag/cell
     absolute magnetization    =    89.96 Bohr mag/cell

     iteration # 31     ecut=    50.00 Ry     beta= 0.50
     Davidson diagonalization with overlap
     ethr =  1.03E-05,  avg # of iterations =  1.5
 
     Adding external electric field

     Computed dipole along edir(3) : 
        Dipole               -1.6678 Ry au,         -4.2390 Debye
        Dipole field         -0.0010 Ry au, 
 
        Potential amp.        0.1126 Ry
        Total length         55.1515 bohr
 
 
     Adding external electric field

     Computed dipole along edir(3) : 
        Dipole               -1.6678 Ry au,         -4.2390 Debye
        Dipole field         -0.0010 Ry au, 
 
        Potential amp.        0.1126 Ry
        Total length         55.1515 bohr
 

     total cpu time spent up to now is      526.0 secs

     total energy              =   -7738.33921129 Ry
     estimated scf accuracy    <       0.09257860 Ry

     total magnetization       =    88.81 Bohr mag/cell
     absolute magnetization    =    90.28 Bohr mag/cell

     iteration # 32     ecut=    50.00 Ry     beta= 0.50
     Davidson diagonalization with overlap
     ethr =  8.47E-06,  avg # of iterations =  2.0
 
     Adding external electric field

     Computed dipole along edir(3) : 
        Dipole               -1.7114 Ry au,         -4.3501 Debye
        Dipole field         -0.0010 Ry au, 
 
        Potential amp.        0.1156 Ry
        Total length         55.1515 bohr
 
 
     Adding external electric field

     Computed dipole along edir(3) : 
        Dipole               -1.7114 Ry au,         -4.3501 Debye
        Dipole field         -0.0010 Ry au, 
 
        Potential amp.        0.1156 Ry
        Total length         55.1515 bohr
 

     total cpu time spent up to now is      539.8 secs

     total energy              =   -7738.33998015 Ry
     estimated scf accuracy    <       0.13919449 Ry

     total magnetization       =    88.58 Bohr mag/cell
     absolute magnetization    =    90.08 Bohr mag/cell

     iteration # 33     ecut=    50.00 Ry     beta= 0.50
     Davidson diagonalization with overlap
     ethr =  8.47E-06,  avg # of iterations =  1.5
 
     Adding external electric field

     Computed dipole along edir(3) : 
        Dipole               -1.6873 Ry au,         -4.2887 Debye
        Dipole field         -0.0010 Ry au, 
 
        Potential amp.        0.1139 Ry
        Total length         55.1515 bohr
 
 
     Adding external electric field

     Computed dipole along edir(3) : 
        Dipole               -1.6873 Ry au,         -4.2887 Debye
        Dipole field         -0.0010 Ry au, 
 
        Potential amp.        0.1139 Ry
        Total length         55.1515 bohr
 

     total cpu time spent up to now is      553.1 secs

     total energy              =   -7738.34063786 Ry
     estimated scf accuracy    <       0.12283048 Ry

     total magnetization       =    88.82 Bohr mag/cell
     absolute magnetization    =    90.27 Bohr mag/cell

     iteration # 34     ecut=    50.00 Ry     beta= 0.50
     Davidson diagonalization with overlap
     ethr =  8.47E-06,  avg # of iterations =  1.0
 
     Adding external electric field

     Computed dipole along edir(3) : 
        Dipole               -1.6538 Ry au,         -4.2034 Debye
        Dipole field         -0.0010 Ry au, 
 
        Potential amp.        0.1117 Ry
        Total length         55.1515 bohr
 
 
     Adding external electric field

     Computed dipole along edir(3) : 
        Dipole               -1.6538 Ry au,         -4.2034 Debye
        Dipole field         -0.0010 Ry au, 
 
        Potential amp.        0.1117 Ry
        Total length         55.1515 bohr
 

     total cpu time spent up to now is      565.3 secs

     total energy              =   -7738.33978424 Ry
     estimated scf accuracy    <       0.13082424 Ry

     total magnetization       =    88.75 Bohr mag/cell
     absolute magnetization    =    90.21 Bohr mag/cell

     iteration # 35     ecut=    50.00 Ry     beta= 0.50
     Davidson diagonalization with overlap
     ethr =  8.47E-06,  avg # of iterations =  1.5
 
     Adding external electric field

     Computed dipole along edir(3) : 
        Dipole               -1.5946 Ry au,         -4.0532 Debye
        Dipole field         -0.0010 Ry au, 
 
        Potential amp.        0.1077 Ry
        Total length         55.1515 bohr
 
 
     Adding external electric field

     Computed dipole along edir(3) : 
        Dipole               -1.5946 Ry au,         -4.0532 Debye
        Dipole field         -0.0010 Ry au, 
 
        Potential amp.        0.1077 Ry
        Total length         55.1515 bohr
 

     total cpu time spent up to now is      578.4 secs

     total energy              =   -7738.33840949 Ry
     estimated scf accuracy    <       0.12310126 Ry

     total magnetization       =    88.71 Bohr mag/cell
     absolute magnetization    =    90.19 Bohr mag/cell

     iteration # 36     ecut=    50.00 Ry     beta= 0.50
     Davidson diagonalization with overlap
     ethr =  8.47E-06,  avg # of iterations =  1.5
 
     Adding external electric field

     Computed dipole along edir(3) : 
        Dipole               -1.6756 Ry au,         -4.2591 Debye
        Dipole field         -0.0010 Ry au, 
 
        Potential amp.        0.1131 Ry
        Total length         55.1515 bohr
 
 
     Adding external electric field

     Computed dipole along edir(3) : 
        Dipole               -1.6756 Ry au,         -4.2591 Debye
        Dipole field         -0.0010 Ry au, 
 
        Potential amp.        0.1131 Ry
        Total length         55.1515 bohr
 

     total cpu time spent up to now is      592.0 secs

     total energy              =   -7738.34072713 Ry
     estimated scf accuracy    <       0.14881500 Ry

     total magnetization       =    88.84 Bohr mag/cell
     absolute magnetization    =    90.32 Bohr mag/cell

     iteration # 37     ecut=    50.00 Ry     beta= 0.50
     Davidson diagonalization with overlap
     ethr =  8.47E-06,  avg # of iterations =  1.0
 
     Adding external electric field

     Computed dipole along edir(3) : 
        Dipole               -1.6527 Ry au,         -4.2009 Debye
        Dipole field         -0.0010 Ry au, 
 
        Potential amp.        0.1116 Ry
        Total length         55.1515 bohr
 
 
     Adding external electric field

     Computed dipole along edir(3) : 
        Dipole               -1.6527 Ry au,         -4.2009 Debye
        Dipole field         -0.0010 Ry au, 
 
        Potential amp.        0.1116 Ry
        Total length         55.1515 bohr
 

     total cpu time spent up to now is      603.3 secs

     total energy              =   -7738.33937382 Ry
     estimated scf accuracy    <       0.14242775 Ry

     total magnetization       =    88.88 Bohr mag/cell
     absolute magnetization    =    90.35 Bohr mag/cell

     iteration # 38     ecut=    50.00 Ry     beta= 0.50
     Davidson diagonalization with overlap
     ethr =  8.47E-06,  avg # of iterations =  2.0
 
     Adding external electric field

     Computed dipole along edir(3) : 
        Dipole               -1.7161 Ry au,         -4.3620 Debye
        Dipole field         -0.0011 Ry au, 
 
        Potential amp.        0.1159 Ry
        Total length         55.1515 bohr
 
 
     Adding external electric field

     Computed dipole along edir(3) : 
        Dipole               -1.7161 Ry au,         -4.3620 Debye
        Dipole field         -0.0011 Ry au, 
 
        Potential amp.        0.1159 Ry
        Total length         55.1515 bohr
 

     total cpu time spent up to now is      616.1 secs

     total energy              =   -7738.34106476 Ry
     estimated scf accuracy    <       0.14586385 Ry

     total magnetization       =    88.45 Bohr mag/cell
     absolute magnetization    =    89.93 Bohr mag/cell

     iteration # 39     ecut=    50.00 Ry     beta= 0.50
     Davidson diagonalization with overlap
     ethr =  8.47E-06,  avg # of iterations =  1.0
 
     Adding external electric field

     Computed dipole along edir(3) : 
        Dipole               -1.4109 Ry au,         -3.5862 Debye
        Dipole field         -0.0009 Ry au, 
 
        Potential amp.        0.0953 Ry
        Total length         55.1515 bohr
 
 
     Adding external electric field

     Computed dipole along edir(3) : 
        Dipole               -1.4109 Ry au,         -3.5862 Debye
        Dipole field         -0.0009 Ry au, 
 
        Potential amp.        0.0953 Ry
        Total length         55.1515 bohr
 

     total cpu time spent up to now is      627.2 secs

     total energy              =   -7738.33223831 Ry
     estimated scf accuracy    <       0.17618030 Ry

     total magnetization       =    88.72 Bohr mag/cell
     absolute magnetization    =    90.17 Bohr mag/cell

     iteration # 40     ecut=    50.00 Ry     beta= 0.50
     Davidson diagonalization with overlap
     ethr =  8.47E-06,  avg # of iterations =  2.0
 
     Adding external electric field

     Computed dipole along edir(3) : 
        Dipole               -1.3500 Ry au,         -3.4313 Debye
        Dipole field         -0.0008 Ry au, 
 
        Potential amp.        0.0911 Ry
        Total length         55.1515 bohr
 
 
     Adding external electric field

     Computed dipole along edir(3) : 
        Dipole               -1.3500 Ry au,         -3.4313 Debye
        Dipole field         -0.0008 Ry au, 
 
        Potential amp.        0.0911 Ry
        Total length         55.1515 bohr
 

     total cpu time spent up to now is      639.8 secs

     total energy              =   -7738.33124409 Ry
     estimated scf accuracy    <       0.08042702 Ry

     total magnetization       =    88.96 Bohr mag/cell
     absolute magnetization    =    90.49 Bohr mag/cell

     iteration # 41     ecut=    50.00 Ry     beta= 0.50
     Davidson diagonalization with overlap
     ethr =  7.36E-06,  avg # of iterations =  1.5
 
     Adding external electric field

     Computed dipole along edir(3) : 
        Dipole               -1.1355 Ry au,         -2.8862 Debye
        Dipole field         -0.0007 Ry au, 
 
        Potential amp.        0.0767 Ry
        Total length         55.1515 bohr
 
 
     Adding external electric field

     Computed dipole along edir(3) : 
        Dipole               -1.1355 Ry au,         -2.8862 Debye
        Dipole field         -0.0007 Ry au, 
 
        Potential amp.        0.0767 Ry
        Total length         55.1515 bohr
 

     total cpu time spent up to now is      651.6 secs

     total energy              =   -7738.32649426 Ry
     estimated scf accuracy    <       0.08005302 Ry

     total magnetization       =    88.84 Bohr mag/cell
     absolute magnetization    =    90.34 Bohr mag/cell

     iteration # 42     ecut=    50.00 Ry     beta= 0.50
     Davidson diagonalization with overlap
     c_bands:  3 eigenvalues not converged
     c_bands:  4 eigenvalues not converged
     ethr =  7.32E-06,  avg # of iterations = 20.0
 
     Adding external electric field

     Computed dipole along edir(3) : 
        Dipole               -1.0199 Ry au,         -2.5923 Debye
        Dipole field         -0.0006 Ry au, 
 
        Potential amp.        0.0689 Ry
        Total length         55.1515 bohr
 
 
     Adding external electric field

     Computed dipole along edir(3) : 
        Dipole               -1.0199 Ry au,         -2.5923 Debye
        Dipole field         -0.0006 Ry au, 
 
        Potential amp.        0.0689 Ry
        Total length         55.1515 bohr
 

     total cpu time spent up to now is      677.0 secs

     total energy              =   -7738.32425450 Ry
     estimated scf accuracy    <       0.08240603 Ry

     total magnetization       =    88.58 Bohr mag/cell
     absolute magnetization    =    90.09 Bohr mag/cell

     iteration # 43     ecut=    50.00 Ry     beta= 0.50
     Davidson diagonalization with overlap
     ethr =  7.32E-06,  avg # of iterations =  2.0
 
     Adding external electric field

     Computed dipole along edir(3) : 
        Dipole               -0.5631 Ry au,         -1.4312 Debye
        Dipole field         -0.0003 Ry au, 
 
        Potential amp.        0.0380 Ry
        Total length         55.1515 bohr
 
 
     Adding external electric field

     Computed dipole along edir(3) : 
        Dipole               -0.5631 Ry au,         -1.4312 Debye
        Dipole field         -0.0003 Ry au, 
 
        Potential amp.        0.0380 Ry
        Total length         55.1515 bohr
 

     total cpu time spent up to now is      689.3 secs

     total energy              =   -7738.31811543 Ry
     estimated scf accuracy    <       0.03567032 Ry

     total magnetization       =    88.75 Bohr mag/cell
     absolute magnetization    =    90.23 Bohr mag/cell

     iteration # 44     ecut=    50.00 Ry     beta= 0.50
     Davidson diagonalization with overlap
     c_bands:  2 eigenvalues not converged
     ethr =  3.26E-06,  avg # of iterations = 18.0

     negative rho (up, down):  5.196E-05 4.805E-04
 
     Adding external electric field

     Computed dipole along edir(3) : 
        Dipole               -0.3151 Ry au,         -0.8009 Debye
        Dipole field         -0.0002 Ry au, 
 
        Potential amp.        0.0213 Ry
        Total length         55.1515 bohr
 
 
     Adding external electric field

     Computed dipole along edir(3) : 
        Dipole               -0.3151 Ry au,         -0.8009 Debye
        Dipole field         -0.0002 Ry au, 
 
        Potential amp.        0.0213 Ry
        Total length         55.1515 bohr
 

     total cpu time spent up to now is      715.8 secs

     total energy              =   -7738.31667964 Ry
     estimated scf accuracy    <       0.04800203 Ry

     total magnetization       =    88.72 Bohr mag/cell
     absolute magnetization    =    90.14 Bohr mag/cell

     iteration # 45     ecut=    50.00 Ry     beta= 0.50
     Davidson diagonalization with overlap
     ethr =  3.26E-06,  avg # of iterations =  2.5
 
     Adding external electric field

     Computed dipole along edir(3) : 
        Dipole               -0.6300 Ry au,         -1.6013 Debye
        Dipole field         -0.0004 Ry au, 
 
        Potential amp.        0.0425 Ry
        Total length         55.1515 bohr
 
 
     Adding external electric field

     Computed dipole along edir(3) : 
        Dipole               -0.6300 Ry au,         -1.6013 Debye
        Dipole field         -0.0004 Ry au, 
 
        Potential amp.        0.0425 Ry
        Total length         55.1515 bohr
 

     total cpu time spent up to now is      729.1 secs

     total energy              =   -7738.31746496 Ry
     estimated scf accuracy    <       0.07586417 Ry

     total magnetization       =    88.40 Bohr mag/cell
     absolute magnetization    =    89.75 Bohr mag/cell

     iteration # 46     ecut=    50.00 Ry     beta= 0.50
     Davidson diagonalization with overlap
     ethr =  3.26E-06,  avg # of iterations =  2.0

     negative rho (up, down):  7.250E-10 5.718E-07
 
     Adding external electric field

     Computed dipole along edir(3) : 
        Dipole               -0.4567 Ry au,         -1.1608 Debye
        Dipole field         -0.0003 Ry au, 
 
        Potential amp.        0.0308 Ry
        Total length         55.1515 bohr
 
 
     Adding external electric field

     Computed dipole along edir(3) : 
        Dipole               -0.4567 Ry au,         -1.1608 Debye
        Dipole field         -0.0003 Ry au, 
 
        Potential amp.        0.0308 Ry
        Total length         55.1515 bohr
 

     total cpu time spent up to now is      741.6 secs

     total energy              =   -7738.31671644 Ry
     estimated scf accuracy    <       0.02724135 Ry

     total magnetization       =    88.77 Bohr mag/cell
     absolute magnetization    =    90.12 Bohr mag/cell

     iteration # 47     ecut=    50.00 Ry     beta= 0.50
     Davidson diagonalization with overlap
     ethr =  2.49E-06,  avg # of iterations =  1.5

     negative rho (up, down):  4.613E-04 1.094E-03
 
     Adding external electric field

     Computed dipole along edir(3) : 
        Dipole               -0.3323 Ry au,         -0.8446 Debye
        Dipole field         -0.0002 Ry au, 
 
        Potential amp.        0.0224 Ry
        Total length         55.1515 bohr
 
 
     Adding external electric field

     Computed dipole along edir(3) : 
        Dipole               -0.3323 Ry au,         -0.8446 Debye
        Dipole field         -0.0002 Ry au, 
 
        Potential amp.        0.0224 Ry
        Total length         55.1515 bohr
 

     total cpu time spent up to now is      752.9 secs

     total energy              =   -7738.31614333 Ry
     estimated scf accuracy    <       0.01938057 Ry

     total magnetization       =    88.60 Bohr mag/cell
     absolute magnetization    =    89.94 Bohr mag/cell

     iteration # 48     ecut=    50.00 Ry     beta= 0.50
     Davidson diagonalization with overlap
     ethr =  1.77E-06,  avg # of iterations =  6.0

     negative rho (up, down):  1.891E-04 3.885E-04
 
     Adding external electric field

     Computed dipole along edir(3) : 
        Dipole               -0.4349 Ry au,         -1.1055 Debye
        Dipole field         -0.0003 Ry au, 
 
        Potential amp.        0.0294 Ry
        Total length         55.1515 bohr
 
 
     Adding external electric field

     Computed dipole along edir(3) : 
        Dipole               -0.4349 Ry au,         -1.1055 Debye
        Dipole field         -0.0003 Ry au, 
 
        Potential amp.        0.0294 Ry
        Total length         55.1515 bohr
 

     total cpu time spent up to now is      767.2 secs

     total energy              =   -7738.31614222 Ry
     estimated scf accuracy    <       0.03038018 Ry

     total magnetization       =    88.61 Bohr mag/cell
     absolute magnetization    =    89.92 Bohr mag/cell

     iteration # 49     ecut=    50.00 Ry     beta= 0.50
     Davidson diagonalization with overlap
     ethr =  1.77E-06,  avg # of iterations =  4.0

     negative rho (up, down):  9.190E-04 1.032E-03
 
     Adding external electric field

     Computed dipole along edir(3) : 
        Dipole               -0.4076 Ry au,         -1.0359 Debye
        Dipole field         -0.0002 Ry au, 
 
        Potential amp.        0.0275 Ry
        Total length         55.1515 bohr
 
 
     Adding external electric field

     Computed dipole along edir(3) : 
        Dipole               -0.4076 Ry au,         -1.0359 Debye
        Dipole field         -0.0002 Ry au, 
 
        Potential amp.        0.0275 Ry
        Total length         55.1515 bohr
 

     total cpu time spent up to now is      780.2 secs

     total energy              =   -7738.31644630 Ry
     estimated scf accuracy    <       0.01003130 Ry

     total magnetization       =    88.82 Bohr mag/cell
     absolute magnetization    =    90.13 Bohr mag/cell

     iteration # 50     ecut=    50.00 Ry     beta= 0.50
     Davidson diagonalization with overlap
     ethr =  9.18E-07,  avg # of iterations =  2.0

     negative rho (up, down):  3.437E-04 3.792E-04
 
     Adding external electric field

     Computed dipole along edir(3) : 
        Dipole               -0.3609 Ry au,         -0.9172 Debye
        Dipole field         -0.0002 Ry au, 
 
        Potential amp.        0.0244 Ry
        Total length         55.1515 bohr
 
 
     Adding external electric field

     Computed dipole along edir(3) : 
        Dipole               -0.3609 Ry au,         -0.9172 Debye
        Dipole field         -0.0002 Ry au, 
 
        Potential amp.        0.0244 Ry
        Total length         55.1515 bohr
 

     total cpu time spent up to now is      791.9 secs

     total energy              =   -7738.31646920 Ry
     estimated scf accuracy    <       0.00842384 Ry

     total magnetization       =    88.71 Bohr mag/cell
     absolute magnetization    =    90.04 Bohr mag/cell

     iteration # 51     ecut=    50.00 Ry     beta= 0.50
     Davidson diagonalization with overlap
     ethr =  7.71E-07,  avg # of iterations =  2.0

     negative rho (up, down):  5.096E-04 2.792E-04
 
     Adding external electric field

     Computed dipole along edir(3) : 
        Dipole               -0.3368 Ry au,         -0.8561 Debye
        Dipole field         -0.0002 Ry au, 
 
        Potential amp.        0.0227 Ry
        Total length         55.1515 bohr
 
 
     Adding external electric field

     Computed dipole along edir(3) : 
        Dipole               -0.3368 Ry au,         -0.8561 Debye
        Dipole field         -0.0002 Ry au, 
 
        Potential amp.        0.0227 Ry
        Total length         55.1515 bohr
 

     total cpu time spent up to now is      803.5 secs

     total energy              =   -7738.31669378 Ry
     estimated scf accuracy    <       0.00689388 Ry

     total magnetization       =    88.80 Bohr mag/cell
     absolute magnetization    =    90.14 Bohr mag/cell

     iteration # 52     ecut=    50.00 Ry     beta= 0.50
     Davidson diagonalization with overlap
     ethr =  6.31E-07,  avg # of iterations =  2.0

     negative rho (up, down):  5.811E-04 2.837E-04
 
     Adding external electric field

     Computed dipole along edir(3) : 
        Dipole               -0.3172 Ry au,         -0.8061 Debye
        Dipole field         -0.0002 Ry au, 
 
        Potential amp.        0.0214 Ry
        Total length         55.1515 bohr
 
 
     Adding external electric field

     Computed dipole along edir(3) : 
        Dipole               -0.3172 Ry au,         -0.8061 Debye
        Dipole field         -0.0002 Ry au, 
 
        Potential amp.        0.0214 Ry
        Total length         55.1515 bohr
 

     total cpu time spent up to now is      815.2 secs

     total energy              =   -7738.31683560 Ry
     estimated scf accuracy    <       0.00272922 Ry

     total magnetization       =    88.77 Bohr mag/cell
     absolute magnetization    =    90.13 Bohr mag/cell

     iteration # 53     ecut=    50.00 Ry     beta= 0.50
     Davidson diagonalization with overlap
     ethr =  2.50E-07,  avg # of iterations =  4.0

     negative rho (up, down):  9.700E-04 4.488E-04
 
     Adding external electric field

     Computed dipole along edir(3) : 
        Dipole               -0.3126 Ry au,         -0.7945 Debye
        Dipole field         -0.0002 Ry au, 
 
        Potential amp.        0.0211 Ry
        Total length         55.1515 bohr
 
 
     Adding external electric field

     Computed dipole along edir(3) : 
        Dipole               -0.3126 Ry au,         -0.7945 Debye
        Dipole field         -0.0002 Ry au, 
 
        Potential amp.        0.0211 Ry
        Total length         55.1515 bohr
 

     total cpu time spent up to now is      827.8 secs

     total energy              =   -7738.31682689 Ry
     estimated scf accuracy    <       0.00143845 Ry

     total magnetization       =    88.73 Bohr mag/cell
     absolute magnetization    =    90.11 Bohr mag/cell

     iteration # 54     ecut=    50.00 Ry     beta= 0.50
     Davidson diagonalization with overlap
     ethr =  1.32E-07,  avg # of iterations =  2.0

     negative rho (up, down):  9.675E-04 4.346E-04
 
     Adding external electric field

     Computed dipole along edir(3) : 
        Dipole               -0.3188 Ry au,         -0.8102 Debye
        Dipole field         -0.0002 Ry au, 
 
        Potential amp.        0.0215 Ry
        Total length         55.1515 bohr
 
 
     Adding external electric field

     Computed dipole along edir(3) : 
        Dipole               -0.3188 Ry au,         -0.8102 Debye
        Dipole field         -0.0002 Ry au, 
 
        Potential amp.        0.0215 Ry
        Total length         55.1515 bohr
 

     total cpu time spent up to now is      839.7 secs

     total energy              =   -7738.31684594 Ry
     estimated scf accuracy    <       0.00131895 Ry

     total magnetization       =    88.69 Bohr mag/cell
     absolute magnetization    =    90.08 Bohr mag/cell

     iteration # 55     ecut=    50.00 Ry     beta= 0.50
     Davidson diagonalization with overlap
     ethr =  1.21E-07,  avg # of iterations =  2.0

     negative rho (up, down):  9.152E-04 4.128E-04
 
     Adding external electric field

     Computed dipole along edir(3) : 
        Dipole               -0.3206 Ry au,         -0.8148 Debye
        Dipole field         -0.0002 Ry au, 
 
        Potential amp.        0.0216 Ry
        Total length         55.1515 bohr
 
 
     Adding external electric field

     Computed dipole along edir(3) : 
        Dipole               -0.3206 Ry au,         -0.8148 Debye
        Dipole field         -0.0002 Ry au, 
 
        Potential amp.        0.0216 Ry
        Total length         55.1515 bohr
 

     total cpu time spent up to now is      851.3 secs

     total energy              =   -7738.31684704 Ry
     estimated scf accuracy    <       0.00059533 Ry

     total magnetization       =    88.64 Bohr mag/cell
     absolute magnetization    =    90.02 Bohr mag/cell

     iteration # 56     ecut=    50.00 Ry     beta= 0.50
     Davidson diagonalization with overlap
     ethr =  5.45E-08,  avg # of iterations =  1.5

     negative rho (up, down):  1.190E-03 8.059E-04
 
     Adding external electric field

     Computed dipole along edir(3) : 
        Dipole               -0.3200 Ry au,         -0.8133 Debye
        Dipole field         -0.0002 Ry au, 
 
        Potential amp.        0.0216 Ry
        Total length         55.1515 bohr
 
 
     Adding external electric field

     Computed dipole along edir(3) : 
        Dipole               -0.3200 Ry au,         -0.8133 Debye
        Dipole field         -0.0002 Ry au, 
 
        Potential amp.        0.0216 Ry
        Total length         55.1515 bohr
 

     total cpu time spent up to now is      862.5 secs

     total energy              =   -7738.31684772 Ry
     estimated scf accuracy    <       0.00028998 Ry

     total magnetization       =    88.69 Bohr mag/cell
     absolute magnetization    =    90.08 Bohr mag/cell

     iteration # 57     ecut=    50.00 Ry     beta= 0.50
     Davidson diagonalization with overlap
     ethr =  2.65E-08,  avg # of iterations =  1.5

     negative rho (up, down):  1.187E-03 7.949E-04
 
     Adding external electric field

     Computed dipole along edir(3) : 
        Dipole               -0.3186 Ry au,         -0.8098 Debye
        Dipole field         -0.0002 Ry au, 
 
        Potential amp.        0.0215 Ry
        Total length         55.1515 bohr
 
 
     Adding external electric field

     Computed dipole along edir(3) : 
        Dipole               -0.3186 Ry au,         -0.8098 Debye
        Dipole field         -0.0002 Ry au, 
 
        Potential amp.        0.0215 Ry
        Total length         55.1515 bohr
 

     total cpu time spent up to now is      873.6 secs

     total energy              =   -7738.31685375 Ry
     estimated scf accuracy    <       0.00018934 Ry

     total magnetization       =    88.66 Bohr mag/cell
     absolute magnetization    =    90.05 Bohr mag/cell

     iteration # 58     ecut=    50.00 Ry     beta= 0.50
     Davidson diagonalization with overlap
     ethr =  1.73E-08,  avg # of iterations =  1.0

     negative rho (up, down):  1.066E-03 6.449E-04
 
     Adding external electric field

     Computed dipole along edir(3) : 
        Dipole               -0.3182 Ry au,         -0.8088 Debye
        Dipole field         -0.0002 Ry au, 
 
        Potential amp.        0.0215 Ry
        Total length         55.1515 bohr
 
 
     Adding external electric field

     Computed dipole along edir(3) : 
        Dipole               -0.3182 Ry au,         -0.8088 Debye
        Dipole field         -0.0002 Ry au, 
 
        Potential amp.        0.0215 Ry
        Total length         55.1515 bohr
 

     total cpu time spent up to now is      883.9 secs

     total energy              =   -7738.31685501 Ry
     estimated scf accuracy    <       0.00003524 Ry

     total magnetization       =    88.66 Bohr mag/cell
     absolute magnetization    =    90.04 Bohr mag/cell

     iteration # 59     ecut=    50.00 Ry     beta= 0.50
     Davidson diagonalization with overlap
     ethr =  3.22E-09,  avg # of iterations =  1.5

     negative rho (up, down):  1.012E-03 5.729E-04
 
     Adding external electric field

     Computed dipole along edir(3) : 
        Dipole               -0.3174 Ry au,         -0.8068 Debye
        Dipole field         -0.0002 Ry au, 
 
        Potential amp.        0.0214 Ry
        Total length         55.1515 bohr
 
 
     Adding external electric field

     Computed dipole along edir(3) : 
        Dipole               -0.3174 Ry au,         -0.8068 Debye
        Dipole field         -0.0002 Ry au, 
 
        Potential amp.        0.0214 Ry
[...]
    -5.9726  -5.9411  -5.9325  -5.9095  -5.8882  -5.8804  -5.8674  -5.8434
    -5.8285  -5.7818  -5.7531  -5.7430  -5.7304  -5.6963  -5.6708  -5.6552
    -5.6414  -5.6315  -5.5881  -5.5706  -5.5652  -5.5476  -5.5395  -5.5276
    -5.5174  -5.4899  -5.4768  -5.4456  -5.4027  -5.3678  -5.3341  -5.3181
    -5.2820  -5.2630  -5.2365  -5.1667  -5.1486  -5.1440  -5.1280  -5.1060
    -5.0658  -5.0132  -4.9666  -4.9378  -4.9008  -4.8912  -4.8619  -4.8488
    -4.8221  -4.7954  -4.7834  -4.7437  -4.7258  -4.6940  -4.6404  -4.6051
    -4.5443  -4.4765  -4.4438  -4.4247  -4.4054  -4.3950  -4.3683  -4.3549
    -4.3297  -4.2828  -4.2566  -4.2449  -4.2067  -4.1938  -4.1109  -4.1065
    -4.0900  -4.0468  -4.0399  -4.0201  -3.9581  -3.9346  -3.9219  -3.8824
    -3.8591  -3.8229  -3.8139  -3.7964  -3.7769  -3.7448  -3.7072  -3.6962
    -3.6891  -3.6719  -3.6617  -3.5893  -3.5796  -3.5785  -3.5634  -3.5472
    -3.5357  -3.5187  -3.5096  -3.4845  -3.4507  -3.4447  -3.4302  -3.4090
    -3.3869  -3.3762  -3.3719  -3.3569  -3.3403  -3.3086  -3.2883  -3.2597
    -3.2477  -3.2157  -3.1940  -3.1703  -3.1469  -3.1202  -3.1028  -3.0850
    -3.0773  -3.0663  -3.0555  -3.0373  -3.0212  -3.0042  -2.9882  -2.9397
    -2.9276  -2.9162  -2.9041  -2.8929  -2.8715  -2.8488  -2.8151  -2.7924
    -2.7880  -2.7620  -2.7548  -2.7303  -2.7243  -2.7161  -2.7102  -2.6966
    -2.6759  -2.6686  -2.6649  -2.6395  -2.6303  -2.6174  -2.6096  -2.5817
    -2.5758  -2.5755  -2.5406  -2.5288  -2.5087  -2.4854  -2.4735  -2.4613
    -2.4548  -2.4130  -2.4048  -2.3744  -2.3595  -2.3457  -2.3187  -2.2823
    -2.2768  -2.2718  -2.2271  -2.2131  -2.1909  -2.1788  -2.1550  -2.1425
    -2.1107  -2.0891  -2.0738  -2.0698  -2.0536  -2.0404  -2.0300  -2.0239
    -1.9975  -1.9539  -1.9408  -1.9205  -1.9089  -1.8911  -1.8854  -1.8678
    -1.8417  -1.8364  -1.8315  -1.8241  -1.7945  -1.7175  -1.7107  -1.6803
    -1.6737  -1.6544  -1.6353  -1.6302  -1.6178  -1.6082  -1.5917  -1.5824
    -1.5527  -1.5507  -1.5044  -1.4925  -1.4670  -1.4568  -1.4505  -1.4250
    -1.4059  -1.3954  -1.3857  -1.3650  -1.3601  -1.3330  -1.3076  -1.2990
    -1.2355  -1.2267  -1.1734  -1.1506  -1.1348  -1.1335  -1.0970  -1.0589
    -1.0360  -0.9969  -0.9308  -0.8601  -0.7310  -0.7194  -0.6274  -0.5747
    -0.5252  -0.5110  -0.3586  -0.2360   0.1773   0.2129   0.2350   0.2450
     0.2951   0.3062   0.3180   0.3270   0.3442   0.3562   0.3639   0.3671
     0.3743   0.3843   0.3964   0.3978   0.4023   0.4129   0.4173   0.4243
     0.4324   0.4372   0.4607   0.4633   0.4739   0.4809   0.4868   0.4900
     0.4955   0.4958   0.5068   0.5131   0.5204   0.5302   0.5344   0.5366
     0.5391   0.5628   0.5666   0.5710   0.5946   0.5976   0.6140   0.6172
     0.6238   0.6319   0.6410   0.6445   0.6504   0.6606   0.6620   0.6762
     0.6794   0.6826   0.6967   0.7021   0.7114   0.7130   0.7187   0.7308
     0.7403   0.7479   0.7631   0.7639   0.7756   0.7825   0.7917   0.8067
     0.8086   0.8248   0.8468   0.8551   0.8614   0.8649   0.8677   0.8750
     0.8816   0.9021   0.9066   0.9121   0.9185   0.9504   0.9653   0.9796
     0.9842   1.0332   1.0825   1.1098   1.1207   1.6837   1.7335   1.7453
     1.7725   1.7980   1.8089   1.8152   1.8209   1.8395   1.9069   1.9172
     1.9314   1.9683   1.9783   2.0037   2.0392   2.0437   2.0828   2.0890
     2.1350   2.1417   2.1717   2.1888   2.1938   2.1972   2.2084   2.2319
     2.2407   2.2728   2.2828   2.3027   2.3107   2.3225   2.3418   2.3549
     2.3703   2.3788   2.3844   2.4057   2.4143   2.4192   2.4374   2.4877
     2.5248   2.5297   2.5367   2.5460   2.5506   2.5755   2.5935   2.6145
     2.6598   2.6781   2.6968   2.7043   2.7247   2.7998   2.8033   2.8693
     2.8732   2.8878   3.7049   3.7185   3.7221   3.7809   3.7835   3.7954
     3.9036   3.9302   3.9559   3.9569   3.9800   3.9979   4.0087   4.0352
     4.0512   4.0577   4.1430   4.1452   4.1573   4.1786   4.6582   4.7141
     4.7925   4.8542   4.8806   4.9104   4.9351   4.9671   5.0400   5.0947
     5.1154   5.1456   5.4228   6.2406   6.3722   6.6115   6.6558   6.7581
     6.8078   6.8845   6.8892   6.9196   7.0198   7.0799   7.0903   7.1325
     7.2640   7.3452   7.3528   7.4329   7.4788   7.5331   7.5856   7.6324
     7.6374   7.6772   7.7341   7.7580   7.8070   7.8821   7.9020   7.9073
     8.0137   8.0257   8.0624   8.0886   8.1129   8.1761   8.1871   8.2066
     8.2615   8.2839   8.3025   8.3306   8.3769   8.4235   8.4271   8.4471
     8.4642   8.4765   8.4949   8.5248   8.5528   8.5710   8.5976   8.6188
     8.6624   8.6830   8.7216   8.7483   8.7660   8.7776   8.8307   8.8811

     the Fermi energy is     1.6576 ev

!    total energy              =   -7738.31685649 Ry
     estimated scf accuracy    <       0.00000049 Ry
     smearing contrib. (-TS)   =      -0.02218978 Ry
     internal energy E=F+TS    =   -7738.29466670 Ry

     The total energy is F=E-TS. E is the sum of the following terms:
     one-electron contribution =  -94719.45664068 Ry
     hartree contribution      =   47977.00327000 Ry
     xc contribution           =   -2218.72430438 Ry
     ewald contribution        =   41224.69049946 Ry
     Dispersion Correction     =      -1.80755649 Ry
     electric field correction =       0.00006539 Ry

     total magnetization       =    88.65 Bohr mag/cell
     absolute magnetization    =    90.03 Bohr mag/cell

     convergence has been achieved in  70 iterations

     negative rho (up, down):  1.053E-03 5.887E-04

     Forces acting on atoms (cartesian axes, Ry/au):

     atom    1 type  1   force =     0.00012541    0.00064887    0.00037965
     atom    2 type  2   force =     0.00032361    0.00000782   -0.00050921
     atom    3 type  1   force =     0.00010208    0.00053116   -0.00034083
     atom    4 type  1   force =    -0.00032233   -0.00021217    0.00030330
     atom    5 type  1   force =     0.00076513    0.00018156   -0.00005621
     atom    6 type  1   force =    -0.00007058    0.00008336   -0.00045557
     atom    7 type  3   force =    -0.00043788    0.00010139    0.00050451
     atom    8 type  3   force =     0.00011453   -0.00039810    0.00010229
     atom    9 type  3   force =    -0.00039861   -0.00040005    0.00028987
     atom   10 type  3   force =     0.00012037   -0.00009386   -0.00019088
     atom   11 type  4   force =    -0.00073504   -0.00011998    0.00046141
     atom   12 type  4   force =    -0.00005940   -0.00020407    0.00038509
     atom   13 type  4   force =    -0.00057851   -0.00025447    0.00054010
     atom   14 type  4   force =     0.00046348   -0.00008329    0.00010622
     atom   15 type  4   force =     0.00038070    0.00001602   -0.00002090
     atom   16 type  4   force =     0.00000320    0.00028471    0.00019402
     atom   17 type  4   force =     0.00019337    0.00030434    0.00050251
     atom   18 type  4   force =     0.00014523    0.00003692   -0.00022956
     atom   19 type  4   force =    -0.00027289    0.00041086   -0.00008002
     atom   20 type  4   force =     0.00006945    0.00021471   -0.00024039
     atom   21 type  4   force =    -0.00006671   -0.00028241    0.00020262
     atom   22 type  4   force =    -0.00043818   -0.00011485    0.00046932
     atom   23 type  4   force =    -0.00024741    0.00018634    0.00032971
     atom   24 type  4   force =     0.00076898   -0.00046947   -0.00053998
     atom   25 type  4   force =     0.00040274   -0.00019580   -0.00080645
     atom   26 type  4   force =     0.00026724    0.00026481    0.00046058
     atom   27 type  1   force =    -0.00643778   -0.00826676   -0.00407989
     atom   28 type  2   force =    -0.01213654    0.00008841   -0.00210491
     atom   29 type  1   force =     0.00433743   -0.00262332    0.00321143
     atom   30 type  1   force =     0.00235967    0.00401657   -0.00183231
     atom   31 type  1   force =     0.00176566   -0.00483993   -0.00044879
     atom   32 type  1   force =    -0.00127433    0.00115022    0.00174513
     atom   33 type  3   force =    -0.00710719   -0.00083937   -0.00041123
     atom   34 type  3   force =    -0.00621321    0.00320150   -0.00196741
     atom   35 type  3   force =     0.00408560   -0.00003073   -0.00408755
     atom   36 type  3   force =     0.00105044   -0.00131820    0.00300952
     atom   37 type  4   force =     0.00872275    0.00530525   -0.00765016
     atom   38 type  4   force =     0.00359881   -0.00102132    0.02068902
     atom   39 type  4   force =    -0.00112197    0.00369006    0.01011660
     atom   40 type  4   force =    -0.00158660   -0.00233903   -0.00881885
     atom   41 type  4   force =     0.00210044    0.00856551    0.00656069
     atom   42 type  4   force =    -0.00689158   -0.00309568   -0.01935216
     atom   43 type  4   force =     0.00950573    0.00738287   -0.00639202
     atom   44 type  4   force =     0.00723158   -0.00304470    0.00603947
     atom   45 type  4   force =     0.00228885    0.00588801   -0.00060229
     atom   46 type  4   force =     0.00340594    0.00088107    0.00500898
     atom   47 type  4   force =    -0.01324099    0.00022990    0.00331472
     atom   48 type  4   force =    -0.01459104    0.00256203   -0.00333275
     atom   49 type  4   force =     0.01323482    0.00287844   -0.00439050
     atom   50 type  4   force =    -0.00413799   -0.00400834    0.00002228
     atom   51 type  4   force =    -0.00441384    0.00269054   -0.00064825
     atom   52 type  4   force =     0.01633488   -0.00322164    0.00421851
     atom   53 type  1   force =    -0.00759442   -0.00711019   -0.00848453
     atom   54 type  2   force =     0.01576363    0.01729459   -0.01007643
     atom   55 type  1   force =     0.00578461   -0.00483882   -0.00596584
     atom   56 type  1   force =    -0.02061732    0.01931477    0.01975155
     atom   57 type  1   force =     0.00445890   -0.00749273   -0.00160692
     atom   58 type  1   force =    -0.00395004   -0.00544157   -0.00101086
     atom   59 type  3   force =    -0.03903648   -0.03835821   -0.05602866
     atom   60 type  3   force =    -0.00486693   -0.00126896   -0.00114499
     atom   61 type  3   force =     0.00273586   -0.00100972   -0.01011510
     atom   62 type  3   force =     0.02908714   -0.04949811   -0.06057907
     atom   63 type  4   force =     0.00628251    0.00352390    0.02094339
     atom   64 type  4   force =     0.00450279    0.00229706    0.01457897
     atom   65 type  4   force =    -0.00070716    0.00290535    0.01277377
     atom   66 type  4   force =     0.00013388    0.00214796    0.01610882
     atom   67 type  4   force =     0.00107460   -0.00058654    0.03920763
     atom   68 type  4   force =    -0.00568830   -0.00394088   -0.01719167
     atom   69 type  4   force =     0.00780457    0.00448693   -0.00263472
     atom   70 type  4   force =     0.00173069   -0.00731450    0.03557779
     atom   71 type  4   force =    -0.00913799    0.03910273    0.00094526
     atom   72 type  4   force =     0.00226408   -0.00043175    0.00793473
     atom   73 type  4   force =    -0.03002346    0.00083488    0.00764158
     atom   74 type  4   force =    -0.01345878    0.00144549   -0.00043503
     atom   75 type  4   force =     0.01192081    0.00348196   -0.00251192
     atom   76 type  4   force =    -0.00239220   -0.00287555    0.00255866
     atom   77 type  4   force =     0.00923816    0.02572979   -0.00255821
     atom   78 type  4   force =     0.03344088   -0.00636975    0.00617583
     atom   79 type  1   force =    -0.00005722    0.00043840   -0.00000310
     atom   80 type  2   force =     0.00017497   -0.00033889   -0.00025709
     atom   81 type  1   force =     0.00024677   -0.00011897    0.00000232
     atom   82 type  1   force =    -0.00030121    0.00013350    0.00031420
     atom   83 type  1   force =     0.00096128    0.00010971    0.00036514
     atom   84 type  1   force =    -0.00046318   -0.00018276   -0.00059491
     atom   85 type  3   force =    -0.00034319   -0.00008447    0.00033960
     atom   86 type  3   force =    -0.00019460   -0.00008242    0.00019793
     atom   87 type  3   force =     0.00017585    0.00012433    0.00054140
     atom   88 type  3   force =     0.00065619    0.00009139   -0.00028634
     atom   89 type  4   force =    -0.00064057   -0.00045333    0.00042607
     atom   90 type  4   force =     0.00054654    0.00039294    0.00006268
     atom   91 type  4   force =    -0.00038161    0.00046291    0.00062176
     atom   92 type  4   force =     0.00018557    0.00031955    0.00011679
     atom   93 type  4   force =     0.00001857    0.00056031   -0.00034819
     atom   94 type  4   force =    -0.00001779    0.00069652    0.00031714
     atom   95 type  4   force =    -0.00012404    0.00068202    0.00064996
     atom   96 type  4   force =     0.00012924    0.00037083   -0.00019145
     atom   97 type  4   force =    -0.00063303    0.00035767   -0.00051544
     atom   98 type  4   force =    -0.00018758   -0.00001630   -0.00006771
     atom   99 type  4   force =     0.00050943    0.00013356   -0.00005080
     atom  100 type  4   force =    -0.00023889    0.00035829    0.00016132
     atom  101 type  4   force =     0.00042751   -0.00009185   -0.00037251
     atom  102 type  4   force =     0.00052543   -0.00058285   -0.00050584
     atom  103 type  4   force =     0.00049133    0.00010281   -0.00050500
     atom  104 type  4   force =    -0.00018129   -0.00005735    0.00068843
     atom  105 type  1   force =    -0.00578944   -0.00898800   -0.00439174
     atom  106 type  2   force =    -0.01211451    0.00004013   -0.00202863
     atom  107 type  1   force =     0.00273216   -0.00401371    0.00037501
     atom  108 type  1   force =     0.00241612    0.00396324   -0.00182193
     atom  109 type  1   force =     0.00185207   -0.00483289   -0.00043779
     atom  110 type  1   force =    -0.00086665    0.00115422    0.00182904
     atom  111 type  3   force =    -0.00707123   -0.00081912   -0.00045248
     atom  112 type  3   force =    -0.00679746    0.00249253   -0.00019538
     atom  113 type  3   force =     0.00400420   -0.00063251   -0.00538751
     atom  114 type  3   force =     0.00114261   -0.00127222    0.00292339
     atom  115 type  4   force =     0.00868869    0.00503698   -0.00757781
     atom  116 type  4   force =     0.00356767   -0.00105052    0.02022597
     atom  117 type  4   force =    -0.00122281    0.00353657    0.01018718
     atom  118 type  4   force =    -0.00154148   -0.00242688   -0.00891411
     atom  119 type  4   force =     0.00213685    0.00851763    0.00641783
     atom  120 type  4   force =    -0.00554456   -0.00349220   -0.01956128
     atom  121 type  4   force =     0.00985053    0.00663990   -0.00831943
     atom  122 type  4   force =     0.00704257   -0.00302988    0.00602393
     atom  123 type  4   force =     0.00205903    0.00592189   -0.00057483
     atom  124 type  4   force =     0.00315560    0.00131372    0.00507890
     atom  125 type  4   force =    -0.01310871    0.00020538    0.00323984
     atom  126 type  4   force =    -0.01459535    0.00263182   -0.00348628
     atom  127 type  4   force =     0.01255825    0.00261948   -0.00460600
     atom  128 type  4   force =    -0.00404274   -0.00415073   -0.00042131
     atom  129 type  4   force =    -0.00441222    0.00266313   -0.00055929
     atom  130 type  4   force =     0.01641926   -0.00322455    0.00417898
     atom  131 type  1   force =    -0.00751508   -0.00709805   -0.00849459
     atom  132 type  2   force =     0.01575600    0.01727339   -0.01005127
     atom  133 type  1   force =     0.00578450   -0.00487019   -0.00597770
     atom  134 type  1   force =    -0.02059920    0.01933670    0.01977975
     atom  135 type  1   force =     0.00446479   -0.00751294   -0.00160165
     atom  136 type  1   force =    -0.00386072   -0.00542446   -0.00100334
     atom  137 type  3   force =    -0.03903420   -0.03835371   -0.05603716
     atom  138 type  3   force =    -0.00486175   -0.00127095   -0.00113448
     atom  139 type  3   force =     0.00272498   -0.00101190   -0.01012247
     atom  140 type  3   force =     0.02908775   -0.04949788   -0.06057651
     atom  141 type  4   force =     0.00622071    0.00354354    0.02102062
     atom  142 type  4   force =     0.00442292    0.00230027    0.01460311
     atom  143 type  4   force =    -0.00062154    0.00281233    0.01281836
     atom  144 type  4   force =     0.00016976    0.00223812    0.01633201
     atom  145 type  4   force =     0.00122495   -0.00058781    0.03920153
     atom  146 type  4   force =    -0.00544844   -0.00393979   -0.01721511
     atom  147 type  4   force =     0.00779386    0.00454011   -0.00279785
     atom  148 type  4   force =     0.00161683   -0.00735474    0.03560943
     atom  149 type  4   force =    -0.00933407    0.03911034    0.00094128
     atom  150 type  4   force =     0.00205863   -0.00043150    0.00793718
     atom  151 type  4   force =    -0.02990357    0.00084663    0.00764585
     atom  152 type  4   force =    -0.01356237    0.00144932   -0.00043900
     atom  153 type  4   force =     0.01209371    0.00359546   -0.00251955
     atom  154 type  4   force =    -0.00242847   -0.00275161    0.00247226
     atom  155 type  4   force =     0.00912567    0.02575564   -0.00261753
     atom  156 type  4   force =     0.03341333   -0.00618674    0.00601236
     atom  157 type  4   force =    -0.00369906    0.00265490   -0.00208820
     atom  158 type  5   force =     0.00286958   -0.00164732    0.00201952

     Total force =     0.237190     Total SCF correction =     0.003069
 
     init_run     :      8.15s CPU      8.78s WALL (       1 calls)
     electrons    :    961.76s CPU   1007.24s WALL (       1 calls)
     forces       :      3.84s CPU      4.22s WALL (       1 calls)
     force_london :      0.11s CPU      0.11s WALL (       1 calls)

     Called by init_run:
     wfcinit      :      4.82s CPU      4.98s WALL (       1 calls)
     potinit      :      0.69s CPU      0.90s WALL (       1 calls)
     hinit0       :      1.53s CPU      1.60s WALL (       1 calls)

     Called by electrons:
     c_bands      :    763.22s CPU    787.60s WALL (      70 calls)
     sum_band     :    127.48s CPU    138.80s WALL (      70 calls)
     v_of_rho     :     16.34s CPU     17.50s WALL (      71 calls)
     newd         :     38.40s CPU     47.12s WALL (      71 calls)
     mix_rho      :     15.42s CPU     15.52s WALL (      70 calls)
     energy_londo :      0.09s CPU      0.09s WALL (       1 calls)

     Called by c_bands:
     init_us_2    :      2.24s CPU      2.30s WALL (     284 calls)
     init_us_2:cp :      2.23s CPU      2.30s WALL (     284 calls)
     regterg      :    748.20s CPU    772.32s WALL (     141 calls)

     Called by *egterg:
     rdiaghg      :    223.40s CPU    235.20s WALL (     554 calls)
     h_psi        :    289.49s CPU    295.00s WALL (     556 calls)
     s_psi        :     50.54s CPU     50.58s WALL (     556 calls)
     g_psi        :      0.36s CPU      0.36s WALL (     413 calls)

     Called by h_psi:
     h_psi:calbec :     71.92s CPU     76.70s WALL (     556 calls)
     vloc_psi     :    165.19s CPU    165.84s WALL (     556 calls)
     add_vuspsi   :     51.67s CPU     51.75s WALL (     556 calls)

     General routines
     calbec       :    105.83s CPU    112.94s WALL (     704 calls)
     fft          :     19.75s CPU     21.41s WALL (    1291 calls)
     ffts         :      9.36s CPU      9.39s WALL (    7277 calls)
     fftw         :    186.59s CPU    187.29s WALL (  239582 calls)
     interpolate  :      1.48s CPU      1.56s WALL (     142 calls)
 
     Parallel routines
 
     PWSCF        :  16m16.07s CPU  17m 2.89s WALL

 
   This run was terminated on:   0:22:56  20Nov2025            

=------------------------------------------------------------------------------=
   JOB DONE.
=------------------------------------------------------------------------------=
