
     Program PWSCF v.7.2 starts on 17Nov2025 at 23:49:16 

     This program is part of the open-source Quantum ESPRESSO suite
     for quantum simulation of materials; please cite
         "P. Giannozzi et al., J. Phys.:Condens. Matter 21 395502 (2009);
         "P. Giannozzi et al., J. Phys.:Condens. Matter 29 465901 (2017);
         "P. Giannozzi et al., J. Chem. Phys. 152 154105 (2020);
          URL http://www.quantum-espresso.org", 
     in publications or presentations arising from this work. More details at
     http://www.quantum-espresso.org/quote

     Parallel version (MPI), running on    64 processors

     MPI processes distributed on     4 nodes
     447911 MiB available memory on the printing compute node when the environment starts
 
     Reading input from PWINPUT_atm157_zm

     Current dimensions of program PWSCF are:
     Max number of different atomic species (ntypx) = 10
     Max number of k-points (npk) =  40000
     Max angular momentum in pseudopotentials (lmaxx) =  4
     Presently no symmetry can be used with electric field

     file Ni.pbe-n-rrkjus_psl.1.0.0.UPF: wavefunction(s)  3D renormalized
     file Mn.pbe-spn-rrkjus_psl.0.3.1.UPF: wavefunction(s)  3D renormalized
     file O.pbe-rrkjus.UPF: wavefunction(s)  2S renormalized
     file H.pbe-rrkjus.UPF: wavefunction(s)  1S renormalized

     gamma-point specific algorithms are used
 
     R & G space division:  proc/nbgrp/npool/nimage =      64
     Subspace diagonalization in iterative solution of the eigenvalue problem:
     one sub-group per band group will be used
     custom distributed-memory algorithm (size of sub-group:  7*  7 procs)

 
     Parallelization info
     --------------------
     sticks:   dense  smooth     PW     G-vecs:    dense   smooth      PW
     Min         207      82     20                60552    15302    1896
     Max         210      84     22                60574    15336    1950
     Sum       13325    5345   1333              3876045   980655  122653
 
     Using Slab Decomposition
 


     bravais-lattice index     =            0
     lattice parameter (alat)  =      17.4067  a.u.
     unit-cell volume          =   20529.8182 (a.u.)^3
     number of atoms/cell      =          158
     number of atomic types    =            5
     number of electrons       =      1093.00
     number of Kohn-Sham states=          656
     kinetic-energy cutoff     =      50.0000  Ry
     charge density cutoff     =     500.0000  Ry
     scf convergence threshold =      1.0E-06
     mixing beta               =       0.1000
     number of iterations used =            8  local-TF  mixing
     Exchange-correlation=  SLA  PW   PBE  PBE
                           (   1   4   3   4   0   0   0)

     celldm(1)=  17.406729  celldm(2)=   0.000000  celldm(3)=   0.000000
     celldm(4)=   0.000000  celldm(5)=   0.000000  celldm(6)=   0.000000

     crystal axes: (cart. coord. in units of alat)
               a(1) = (   1.000000   0.000000   0.000000 )  
               a(2) = (  -0.001404   1.105696   0.000000 )  
               a(3) = (   0.000000   0.000000   3.520448 )  

     reciprocal axes: (cart. coord. in units 2 pi/alat)
               b(1) = (  1.000000  0.001270  0.000000 )  
               b(2) = (  0.000000  0.904408  0.000000 )  
               b(3) = (  0.000000  0.000000  0.284055 )  


     PseudoPot. # 1 for Ni read from file:
     ~/PSEUDO/Ni.pbe-n-rrkjus_psl.1.0.0.UPF
     MD5 check sum: Not computed, couldn't open file
     Pseudo is Ultrasoft + core correction, Zval = 10.0
     Generated using "atomic" code by A. Dal Corso  v.5.1.2
     Using radial grid of 1195 points,  6 beta functions with: 
                l(1) =   0
                l(2) =   0
                l(3) =   1
                l(4) =   1
                l(5) =   2
                l(6) =   2
     Q(r) pseudized with 0 coefficients 


     PseudoPot. # 2 for Mn read from file:
     ~/PSEUDO/Mn.pbe-spn-rrkjus_psl.0.3.1.UPF
     MD5 check sum: Not computed, couldn't open file
     Pseudo is Ultrasoft + core correction, Zval = 15.0
     Generated using &quot;atomic&quot; code by A. Dal Corso  v.6.2.2
     Using radial grid of 1187 points,  6 beta functions with: 
                l(1) =   0
                l(2) =   0
                l(3) =   1
                l(4) =   1
                l(5) =   2
                l(6) =   2
     Q(r) pseudized with 0 coefficients 


     PseudoPot. # 3 for P  read from file:
     ~/PSEUDO/P.pbe-n-rrkjus_psl.1.0.0.UPF
     MD5 check sum: Not computed, couldn't open file
     Pseudo is Ultrasoft + core correction, Zval =  5.0
     Generated using "atomic" code by A. Dal Corso  v.5.1
     Using radial grid of 1147 points,  6 beta functions with: 
                l(1) =   0
                l(2) =   0
                l(3) =   1
                l(4) =   1
                l(5) =   2
                l(6) =   2
     Q(r) pseudized with 0 coefficients 


     PseudoPot. # 4 for O  read from file:
     ~/PSEUDO/O.pbe-rrkjus.UPF
     MD5 check sum: Not computed, couldn't open file
     Pseudo is Ultrasoft, Zval =  6.0
     Generated by new atomic code, or converted to UPF format
     Using radial grid of 1269 points,  4 beta functions with: 
                l(1) =   0
                l(2) =   0
                l(3) =   1
                l(4) =   1
     Q(r) pseudized with 0 coefficients 


     PseudoPot. # 5 for H  read from file:
     ~/PSEUDO/H.pbe-rrkjus.UPF
     MD5 check sum: Not computed, couldn't open file
     Pseudo is Ultrasoft, Zval =  1.0
     Generated by new atomic code, or converted to UPF format
     Using radial grid of 1061 points,  2 beta functions with: 
                l(1) =   0
                l(2) =   0
     Q(r) pseudized with 0 coefficients 


     atomic species   valence    mass     pseudopotential
     Ni               10.00    58.69300     Ni( 1.00)
     Mn               15.00    54.93800     Mn( 1.00)
     P                 5.00    30.97300     P ( 1.00)
     O                 6.00    15.99900     O ( 1.00)
     H                 1.00     1.00790     H ( 1.00)

     Starting magnetic structure 
     atomic species   magnetization
     Ni              1.000
     Mn              1.000
     P               1.000
     O               1.000
     H               0.000

     No symmetry found



   Cartesian axes

     site n.     atom                  positions (alat units)
         1        Ni     tau(   1) = (   0.2506570   0.8586301   1.7460606  )
         2        Mn     tau(   2) = (   0.4849727   0.7922569   1.4298438  )
         3        Ni     tau(   3) = (   0.0099166   0.3147980   1.7770697  )
         4        Ni     tau(   4) = (   0.2559633   0.2443239   1.4306739  )
         5        Ni     tau(   5) = (   0.4961466   1.1064648   1.5948314  )
         6        Ni     tau(   6) = (   0.2497854   0.5481636   1.6051322  )
         7        P      tau(   7) = (   0.2072152   1.0031948   1.4309315  )
         8        P      tau(   8) = (   0.4627705   0.6639515   1.7680067  )
         9        P      tau(   9) = (   0.2880368   0.1077753   1.7607118  )
        10        P      tau(  10) = (   0.0387468   0.4409683   1.4352442  )
        11        O      tau(  11) = (   0.1330935   0.9304818   1.5706977  )
        12        O      tau(  12) = (   0.3831504   0.7264978   1.6204600  )
        13        O      tau(  13) = (   0.3628275   0.1744689   1.6127481  )
        14        O      tau(  14) = (   0.1155931   0.3681480   1.5734176  )
        15        O      tau(  15) = (   0.1485558   0.9123257   1.3024039  )
        16        O      tau(  16) = (   0.3999411   0.7624960   1.8844666  )
        17        O      tau(  17) = (   0.3533233   0.2035263   1.8795646  )
        18        O      tau(  18) = (   0.0986482   0.3547482   1.3039728  )
        19        O      tau(  19) = (   0.0982500   0.5998695   1.4410699  )
        20        O      tau(  20) = (   0.3443251   1.0535330   1.7571523  )
        21        O      tau(  21) = (   0.3728385   0.4379153   1.4465920  )
        22        O      tau(  22) = (   0.1208408   0.1132369   1.7503220  )
        23        O      tau(  23) = (   0.1278822   0.6735676   1.7463016  )
        24        O      tau(  24) = (   0.4096499   0.5020876   1.7635143  )
        25        O      tau(  25) = (   0.1476551   0.0545948   1.4347483  )
        26        O      tau(  26) = (   0.3739202   0.9939412   1.4421146  )
        27        Ni     tau(  27) = (   0.2413539   0.8509941   1.1121345  )
        28        Mn     tau(  28) = (   0.4917018   0.7787406   0.7768134  )
        29        Ni     tau(  29) = (   0.0044877   0.2932623   1.1138982  )
        30        Ni     tau(  30) = (   0.2563139   0.2275682   0.7805625  )
        31        Ni     tau(  31) = (   0.4969120   1.0949007   0.9459116  )
        32        Ni     tau(  32) = (   0.2488318   0.5341111   0.9469721  )
        33        P      tau(  33) = (   0.2076029   0.9882917   0.7835381  )
        34        P      tau(  34) = (   0.4577012   0.6460068   1.1076436  )
        35        P      tau(  35) = (   0.2881931   0.0932770   1.1104179  )
        36        P      tau(  36) = (   0.0392916   0.4238898   0.7837243  )
        37        O      tau(  37) = (   0.1306755   0.9148866   0.9233554  )
        38        O      tau(  38) = (   0.3789780   0.7172835   0.9680652  )
        39        O      tau(  39) = (   0.3654852   0.1662865   0.9702638  )
        40        O      tau(  40) = (   0.1163776   0.3546954   0.9254186  )
        41        O      tau(  41) = (   0.1502901   0.8969129   0.6541592  )
        42        O      tau(  42) = (   0.3974525   0.7354243   1.2370031  )
        43        O      tau(  43) = (   0.3483097   0.1789497   1.2412670  )
        44        O      tau(  44) = (   0.0974932   0.3376387   0.6529083  )
        45        O      tau(  45) = (   0.0984699   0.5818903   0.7881021  )
        46        O      tau(  46) = (   0.3459978   1.0405493   1.1018526  )
        47        O      tau(  47) = (   0.3731719   0.4204123   0.7945555  )
        48        O      tau(  48) = (   0.1223503   0.0989699   1.1000566  )
        49        O      tau(  49) = (   0.1235438   0.6536772   1.0980598  )
        50        O      tau(  50) = (   0.4004339   0.4872435   1.1047245  )
        51        O      tau(  51) = (   0.1476543   0.0398268   0.7872561  )
        52        O      tau(  52) = (   0.3728637   0.9843360   0.7931368  )
        53        Ni     tau(  53) = (   0.2406075   0.8410745   0.4603118  )
        54        Mn     tau(  54) = (   0.4909555   0.7688210   0.1249907  )
        55        Ni     tau(  55) = (   0.0037414   0.2833427   0.4620755  )
        56        Ni     tau(  56) = (   0.2555676   0.2176485   0.1287398  )
        57        Ni     tau(  57) = (   0.4961657   1.0849810   0.2940889  )
        58        Ni     tau(  58) = (   0.2480854   0.5241915   0.2951494  )
        59        P      tau(  59) = (   0.2068565   0.9783721   0.1317154  )
        60        P      tau(  60) = (   0.4569549   0.6360871   0.4558210  )
        61        P      tau(  61) = (   0.2874467   0.0833574   0.4585952  )
        62        P      tau(  62) = (   0.0385452   0.4139702   0.1319017  )
        63        O      tau(  63) = (   0.1299291   0.9049669   0.2715327  )
        64        O      tau(  64) = (   0.3782317   0.7073639   0.3162425  )
        65        O      tau(  65) = (   0.3647389   0.1563669   0.3184411  )
        66        O      tau(  66) = (   0.1156313   0.3447757   0.2735959  )
        67        O      tau(  67) = (   0.1495437   0.8869933   0.0023366  )
        68        O      tau(  68) = (   0.3967062   0.7255047   0.5851804  )
        69        O      tau(  69) = (   0.3475634   0.1690300   0.5894443  )
        70        O      tau(  70) = (   0.0967469   0.3277190   0.0010856  )
        71        O      tau(  71) = (   0.0977236   0.5719706   0.1362794  )
        72        O      tau(  72) = (   0.3452514   1.0306297   0.4500300  )
        73        O      tau(  73) = (   0.3724256   0.4104926   0.1427328  )
        74        O      tau(  74) = (   0.1216040   0.0890503   0.4482339  )
        75        O      tau(  75) = (   0.1227974   0.6437575   0.4462371  )
        76        O      tau(  76) = (   0.3996875   0.4773239   0.4529018  )
        77        O      tau(  77) = (   0.1469079   0.0299071   0.1354334  )
        78        O      tau(  78) = (   0.3721173   0.9744163   0.1413141  )
        79        Ni     tau(  79) = (   0.7512968   0.8629757   1.7463792  )
        80        Mn     tau(  80) = (   0.9856283   0.7922987   1.4298132  )
        81        Ni     tau(  81) = (   0.4994156   0.3046718   1.7432553  )
        82        Ni     tau(  82) = (   0.7561331   0.2436078   1.4290244  )
        83        Ni     tau(  83) = (   0.9969098   1.1094576   1.5975923  )
        84        Ni     tau(  84) = (   0.7520413   0.5511724   1.6011549  )
        85        P      tau(  85) = (   0.7080384   1.0032090   1.4301353  )
        86        P      tau(  86) = (   0.9611635   0.6679249   1.7676684  )
        87        P      tau(  87) = (   0.7866251   0.1146576   1.7538485  )
        88        P      tau(  88) = (   0.5392440   0.4429935   1.4323773  )
        89        O      tau(  89) = (   0.6332873   0.9305214   1.5700818  )
        90        O      tau(  90) = (   0.8817828   0.7322621   1.6197895  )
        91        O      tau(  91) = (   0.8630260   0.1746843   1.6073185  )
        92        O      tau(  92) = (   0.6180632   0.3716942   1.5710585  )
        93        O      tau(  93) = (   0.6497195   0.9106468   1.3026397  )
        94        O      tau(  94) = (   0.9019451   0.7695149   1.8836030  )
        95        O      tau(  95) = (   0.8435869   0.2142205   1.8732697  )
        96        O      tau(  96) = (   0.5989220   0.3556149   1.3022932  )
        97        O      tau(  97) = (   0.5988978   0.6014494   1.4382358  )
        98        O      tau(  98) = (   0.8418133   1.0593846   1.7579884  )
        99        O      tau(  99) = (   0.8718788   0.4384067   1.4450747  )
       100        O      tau( 100) = (   0.6185655   0.1172295   1.7419182  )
       101        O      tau( 101) = (   0.6296522   0.6725592   1.7491468  )
       102        O      tau( 102) = (   0.9012154   0.5091499   1.7607365  )
       103        O      tau( 103) = (   0.6461684   0.0538532   1.4316752  )
       104        O      tau( 104) = (   0.8745741   0.9956699   1.4422503  )
       105        Ni     tau( 105) = (   0.7413539   0.8509941   1.1121345  )
       106        Mn     tau( 106) = (   0.9917018   0.7787406   0.7768134  )
       107        Ni     tau( 107) = (   0.5044877   0.2932623   1.1138982  )
       108        Ni     tau( 108) = (   0.7563139   0.2275682   0.7805625  )
       109        Ni     tau( 109) = (   0.9969120   1.0949007   0.9459116  )
       110        Ni     tau( 110) = (   0.7488318   0.5341111   0.9469721  )
       111        P      tau( 111) = (   0.7076029   0.9882917   0.7835381  )
       112        P      tau( 112) = (   0.9577012   0.6460068   1.1076436  )
       113        P      tau( 113) = (   0.7881931   0.0932770   1.1104179  )
       114        P      tau( 114) = (   0.5392916   0.4238898   0.7837243  )
       115        O      tau( 115) = (   0.6306755   0.9148866   0.9233554  )
       116        O      tau( 116) = (   0.8789780   0.7172835   0.9680652  )
       117        O      tau( 117) = (   0.8654852   0.1662865   0.9702638  )
       118        O      tau( 118) = (   0.6163776   0.3546954   0.9254186  )
       119        O      tau( 119) = (   0.6502901   0.8969129   0.6541592  )
       120        O      tau( 120) = (   0.8974525   0.7354243   1.2370031  )
       121        O      tau( 121) = (   0.8483097   0.1789497   1.2412670  )
       122        O      tau( 122) = (   0.5974932   0.3376387   0.6529083  )
       123        O      tau( 123) = (   0.5984699   0.5818903   0.7881021  )
       124        O      tau( 124) = (   0.8459978   1.0405493   1.1018526  )
       125        O      tau( 125) = (   0.8731719   0.4204123   0.7945555  )
       126        O      tau( 126) = (   0.6223503   0.0989699   1.1000566  )
       127        O      tau( 127) = (   0.6235438   0.6536772   1.0980598  )
       128        O      tau( 128) = (   0.9004339   0.4872435   1.1047245  )
       129        O      tau( 129) = (   0.6476543   0.0398268   0.7872561  )
       130        O      tau( 130) = (   0.8728637   0.9843360   0.7931368  )
       131        Ni     tau( 131) = (   0.7406075   0.8410745   0.4603118  )
       132        Mn     tau( 132) = (   0.9909555   0.7688210   0.1249907  )
       133        Ni     tau( 133) = (   0.5037414   0.2833427   0.4620755  )
       134        Ni     tau( 134) = (   0.7555676   0.2176485   0.1287398  )
       135        Ni     tau( 135) = (   0.9961657   1.0849810   0.2940889  )
       136        Ni     tau( 136) = (   0.7480854   0.5241915   0.2951494  )
       137        P      tau( 137) = (   0.7068565   0.9783721   0.1317154  )
       138        P      tau( 138) = (   0.9569549   0.6360871   0.4558210  )
       139        P      tau( 139) = (   0.7874467   0.0833574   0.4585952  )
       140        P      tau( 140) = (   0.5385452   0.4139702   0.1319017  )
       141        O      tau( 141) = (   0.6299291   0.9049669   0.2715327  )
       142        O      tau( 142) = (   0.8782317   0.7073639   0.3162425  )
       143        O      tau( 143) = (   0.8647389   0.1563669   0.3184411  )
       144        O      tau( 144) = (   0.6156313   0.3447757   0.2735959  )
       145        O      tau( 145) = (   0.6495437   0.8869933   0.0023366  )
       146        O      tau( 146) = (   0.8967062   0.7255047   0.5851804  )
       147        O      tau( 147) = (   0.8475634   0.1690300   0.5894443  )
       148        O      tau( 148) = (   0.5967469   0.3277190   0.0010856  )
       149        O      tau( 149) = (   0.5977236   0.5719706   0.1362794  )
       150        O      tau( 150) = (   0.8452514   1.0306297   0.4500300  )
       151        O      tau( 151) = (   0.8724256   0.4104926   0.1427328  )
       152        O      tau( 152) = (   0.6216040   0.0890503   0.4482339  )
       153        O      tau( 153) = (   0.6227974   0.6437575   0.4462371  )
       154        O      tau( 154) = (   0.8996875   0.4773239   0.4529018  )
       155        O      tau( 155) = (   0.6469079   0.0299071   0.1354334  )
       156        O      tau( 156) = (   0.8721173   0.9744163   0.1413141  )
       157        O      tau( 157) = (   0.1278368   0.3974856   1.9105189  )
       158        H      tau( 158) = (   0.2123993   0.3350718   1.9350536  )

     -------------------------------------------------
     Parameters for Dispersion (Grimme-D2) Correction:
     -------------------------------------------------
       atom      VdW radius       C_6     

        Ni         2.952        374.666
        Mn         2.952        374.666
        P          3.222        271.980
        O          2.536         24.284
        H          1.892          4.857

     number of k points=     1  Gaussian smearing, width (Ry)=  0.0100
                       cart. coord. in units 2pi/alat
        k(    1) = (   0.0000000   0.0000000   0.0000000), wk =   1.0000000

     Dense  grid:  1938023 G-vectors     FFT dimensions: ( 125, 144, 450)

     Smooth grid:   490328 G-vectors     FFT dimensions: (  80,  90, 288)

     Estimated max dynamical RAM per process >     326.29 MB

     Estimated total dynamical RAM >      20.39 GB

     Check: negative core charge=   -0.000001
     Generating pointlists ...
     new r_m :   0.0810 (alat units)  1.4098 (a.u.) for type    1
     new r_m :   0.0904 (alat units)  1.5744 (a.u.) for type    2
     new r_m :   0.0681 (alat units)  1.1847 (a.u.) for type    3
     new r_m :   0.0445 (alat units)  0.7749 (a.u.) for type    4
     new r_m :   0.0445 (alat units)  0.7749 (a.u.) for type    5

     Initial potential from superposition of free atoms

     starting charge    1092.8893, renormalised to    1093.0000

     negative rho (up, down):  1.399E-03 4.538E-04
 
     Adding external electric field

     Computed dipole along edir(3) : 
        Dipole                1.6505 Ry au,          4.1953 Debye
        Dipole field          0.0010 Ry au, 
 
        Potential amp.       -0.1114 Ry
        Total length         55.1515 bohr
 
 
     Adding external electric field

     Computed dipole along edir(3) : 
        Dipole                1.6505 Ry au,          4.1953 Debye
        Dipole field          0.0010 Ry au, 
 
        Potential amp.       -0.1114 Ry
        Total length         55.1515 bohr
 
     Starting wfcs are  815 randomized atomic wfcs

     total cpu time spent up to now is       10.2 secs

     Self-consistent Calculation

     iteration #  1     ecut=    50.00 Ry     beta= 0.10
     Davidson diagonalization with overlap
     ethr =  1.00E-02,  avg # of iterations =  6.0

     negative rho (up, down):  3.821E-01 2.064E-06
 
     Adding external electric field

     Computed dipole along edir(3) : 
        Dipole               -3.7266 Ry au,         -9.4721 Debye
        Dipole field         -0.0023 Ry au, 
 
        Potential amp.        0.2516 Ry
        Total length         55.1515 bohr
 
 
     Adding external electric field

     Computed dipole along edir(3) : 
        Dipole               -3.7266 Ry au,         -9.4721 Debye
        Dipole field         -0.0023 Ry au, 
 
        Potential amp.        0.2516 Ry
        Total length         55.1515 bohr
 

     total cpu time spent up to now is       38.7 secs

     total energy              =   -7518.26368513 Ry
     estimated scf accuracy    <     801.18770203 Ry

     total magnetization       =   219.00 Bohr mag/cell
     absolute magnetization    =   307.27 Bohr mag/cell

     iteration #  2     ecut=    50.00 Ry     beta= 0.10
     Davidson diagonalization with overlap
     ethr =  1.00E-02,  avg # of iterations =  2.0

     negative rho (up, down):  3.624E-01 1.564E-06
 
     Adding external electric field

     Computed dipole along edir(3) : 
        Dipole               -2.5027 Ry au,         -6.3611 Debye
        Dipole field         -0.0015 Ry au, 
 
        Potential amp.        0.1690 Ry
        Total length         55.1515 bohr
 
 
     Adding external electric field

     Computed dipole along edir(3) : 
        Dipole               -2.5027 Ry au,         -6.3611 Debye
        Dipole field         -0.0015 Ry au, 
 
        Potential amp.        0.1690 Ry
        Total length         55.1515 bohr
 

     total cpu time spent up to now is       55.1 secs

     total energy              =   -7600.59775153 Ry
     estimated scf accuracy    <     220.32902438 Ry

     total magnetization       =   158.78 Bohr mag/cell
     absolute magnetization    =   207.22 Bohr mag/cell

     iteration #  3     ecut=    50.00 Ry     beta= 0.10
     Davidson diagonalization with overlap
     ethr =  1.00E-02,  avg # of iterations =  1.5

     negative rho (up, down):  3.237E-01 1.538E-06
 
     Adding external electric field

     Computed dipole along edir(3) : 
        Dipole               -2.1449 Ry au,         -5.4517 Debye
        Dipole field         -0.0013 Ry au, 
 
        Potential amp.        0.1448 Ry
        Total length         55.1515 bohr
 
 
     Adding external electric field

     Computed dipole along edir(3) : 
        Dipole               -2.1449 Ry au,         -5.4517 Debye
        Dipole field         -0.0013 Ry au, 
 
        Potential amp.        0.1448 Ry
        Total length         55.1515 bohr
 

     total cpu time spent up to now is       68.5 secs

     total energy              =   -7630.17577694 Ry
     estimated scf accuracy    <     104.05835123 Ry

     total magnetization       =   134.98 Bohr mag/cell
     absolute magnetization    =   185.58 Bohr mag/cell

     iteration #  4     ecut=    50.00 Ry     beta= 0.10
     Davidson diagonalization with overlap
     ethr =  9.52E-03,  avg # of iterations =  1.5

     negative rho (up, down):  2.551E-01 5.759E-07
 
     Adding external electric field

     Computed dipole along edir(3) : 
        Dipole               -1.9806 Ry au,         -5.0343 Debye
        Dipole field         -0.0012 Ry au, 
 
        Potential amp.        0.1337 Ry
        Total length         55.1515 bohr
 
 
     Adding external electric field

     Computed dipole along edir(3) : 
        Dipole               -1.9806 Ry au,         -5.0343 Debye
        Dipole field         -0.0012 Ry au, 
 
        Potential amp.        0.1337 Ry
        Total length         55.1515 bohr
 

     total cpu time spent up to now is       81.4 secs

     total energy              =   -7662.45756377 Ry
     estimated scf accuracy    <      82.70111583 Ry

     total magnetization       =   119.57 Bohr mag/cell
     absolute magnetization    =   171.37 Bohr mag/cell

     iteration #  5     ecut=    50.00 Ry     beta= 0.10
     Davidson diagonalization with overlap
     ethr =  7.57E-03,  avg # of iterations =  1.0

     negative rho (up, down):  3.878E-02 2.086E-07
 
     Adding external electric field

     Computed dipole along edir(3) : 
        Dipole               -1.5715 Ry au,         -3.9944 Debye
        Dipole field         -0.0010 Ry au, 
 
        Potential amp.        0.1061 Ry
        Total length         55.1515 bohr
 
 
     Adding external electric field

     Computed dipole along edir(3) : 
        Dipole               -1.5715 Ry au,         -3.9944 Debye
        Dipole field         -0.0010 Ry au, 
 
        Potential amp.        0.1061 Ry
        Total length         55.1515 bohr
 

     total cpu time spent up to now is       94.2 secs

     total energy              =   -7721.34368675 Ry
     estimated scf accuracy    <      66.49549101 Ry

     total magnetization       =    97.48 Bohr mag/cell
     absolute magnetization    =   152.81 Bohr mag/cell

     iteration #  6     ecut=    50.00 Ry     beta= 0.10
     Davidson diagonalization with overlap
     ethr =  6.08E-03,  avg # of iterations =  1.0

     negative rho (up, down):  7.700E-04 1.196E-03
 
     Adding external electric field

     Computed dipole along edir(3) : 
        Dipole               -1.1841 Ry au,         -3.0096 Debye
        Dipole field         -0.0007 Ry au, 
 
        Potential amp.        0.0799 Ry
        Total length         55.1515 bohr
 
 
     Adding external electric field

     Computed dipole along edir(3) : 
        Dipole               -1.1841 Ry au,         -3.0096 Debye
        Dipole field         -0.0007 Ry au, 
 
        Potential amp.        0.0799 Ry
        Total length         55.1515 bohr
 

     total cpu time spent up to now is      105.8 secs

     total energy              =   -7735.83717818 Ry
     estimated scf accuracy    <      16.03876389 Ry

     total magnetization       =    91.00 Bohr mag/cell
     absolute magnetization    =   125.96 Bohr mag/cell

     iteration #  7     ecut=    50.00 Ry     beta= 0.10
     Davidson diagonalization with overlap
     ethr =  1.47E-03,  avg # of iterations =  6.0

     negative rho (up, down):  7.430E-04 1.173E-03
 
     Adding external electric field

     Computed dipole along edir(3) : 
        Dipole               -1.1953 Ry au,         -3.0381 Debye
        Dipole field         -0.0007 Ry au, 
 
        Potential amp.        0.0807 Ry
        Total length         55.1515 bohr
 
 
     Adding external electric field

     Computed dipole along edir(3) : 
        Dipole               -1.1953 Ry au,         -3.0381 Debye
        Dipole field         -0.0007 Ry au, 
 
        Potential amp.        0.0807 Ry
        Total length         55.1515 bohr
 

     total cpu time spent up to now is      126.2 secs

     total energy              =   -7738.24708282 Ry
     estimated scf accuracy    <      19.87288280 Ry

     total magnetization       =    70.64 Bohr mag/cell
     absolute magnetization    =    87.91 Bohr mag/cell

     iteration #  8     ecut=    50.00 Ry     beta= 0.10
     Davidson diagonalization with overlap
     ethr =  1.47E-03,  avg # of iterations =  1.0

     negative rho (up, down):  7.174E-04 1.128E-03
 
     Adding external electric field

     Computed dipole along edir(3) : 
        Dipole               -1.1933 Ry au,         -3.0331 Debye
        Dipole field         -0.0007 Ry au, 
 
        Potential amp.        0.0806 Ry
        Total length         55.1515 bohr
 
 
     Adding external electric field

     Computed dipole along edir(3) : 
        Dipole               -1.1933 Ry au,         -3.0331 Debye
        Dipole field         -0.0007 Ry au, 
 
        Potential amp.        0.0806 Ry
        Total length         55.1515 bohr
 

     total cpu time spent up to now is      137.8 secs

     total energy              =   -7738.28657144 Ry
     estimated scf accuracy    <      19.31151364 Ry

     total magnetization       =    70.82 Bohr mag/cell
     absolute magnetization    =    87.57 Bohr mag/cell

     iteration #  9     ecut=    50.00 Ry     beta= 0.10
     Davidson diagonalization with overlap
     ethr =  1.47E-03,  avg # of iterations =  1.0

     negative rho (up, down):  5.766E-04 9.335E-04
 
     Adding external electric field

     Computed dipole along edir(3) : 
        Dipole               -1.2204 Ry au,         -3.1020 Debye
        Dipole field         -0.0007 Ry au, 
 
        Potential amp.        0.0824 Ry
        Total length         55.1515 bohr
 
 
     Adding external electric field

     Computed dipole along edir(3) : 
        Dipole               -1.2204 Ry au,         -3.1020 Debye
        Dipole field         -0.0007 Ry au, 
 
        Potential amp.        0.0824 Ry
        Total length         55.1515 bohr
 

     total cpu time spent up to now is      149.5 secs

     total energy              =   -7738.01811870 Ry
     estimated scf accuracy    <      18.81870052 Ry

     total magnetization       =    70.94 Bohr mag/cell
     absolute magnetization    =    87.31 Bohr mag/cell

     iteration # 10     ecut=    50.00 Ry     beta= 0.10
     Davidson diagonalization with overlap
     ethr =  1.47E-03,  avg # of iterations =  1.0

     negative rho (up, down):  3.822E-04 6.835E-04
 
     Adding external electric field

     Computed dipole along edir(3) : 
        Dipole               -1.2866 Ry au,         -3.2703 Debye
        Dipole field         -0.0008 Ry au, 
 
        Potential amp.        0.0869 Ry
        Total length         55.1515 bohr
 
 
     Adding external electric field

     Computed dipole along edir(3) : 
        Dipole               -1.2866 Ry au,         -3.2703 Debye
        Dipole field         -0.0008 Ry au, 
 
        Potential amp.        0.0869 Ry
        Total length         55.1515 bohr
 

     total cpu time spent up to now is      161.0 secs

     total energy              =   -7737.70299343 Ry
     estimated scf accuracy    <      13.87650351 Ry

     total magnetization       =    72.57 Bohr mag/cell
     absolute magnetization    =    87.38 Bohr mag/cell

     iteration # 11     ecut=    50.00 Ry     beta= 0.10
     Davidson diagonalization with overlap
     ethr =  1.27E-03,  avg # of iterations =  1.5

     negative rho (up, down):  2.559E-04 6.564E-04
 
     Adding external electric field

     Computed dipole along edir(3) : 
        Dipole               -1.2591 Ry au,         -3.2002 Debye
        Dipole field         -0.0008 Ry au, 
 
        Potential amp.        0.0850 Ry
        Total length         55.1515 bohr
 
 
     Adding external electric field

     Computed dipole along edir(3) : 
        Dipole               -1.2591 Ry au,         -3.2002 Debye
        Dipole field         -0.0008 Ry au, 
 
        Potential amp.        0.0850 Ry
        Total length         55.1515 bohr
 

     total cpu time spent up to now is      172.4 secs

     total energy              =   -7737.89220161 Ry
     estimated scf accuracy    <       3.60356206 Ry

     total magnetization       =    84.21 Bohr mag/cell
     absolute magnetization    =    95.52 Bohr mag/cell

     iteration # 12     ecut=    50.00 Ry     beta= 0.10
     Davidson diagonalization with overlap
     ethr =  3.30E-04,  avg # of iterations =  1.5

     negative rho (up, down):  1.559E-04 4.988E-04
 
     Adding external electric field

     Computed dipole along edir(3) : 
        Dipole               -1.3087 Ry au,         -3.3264 Debye
        Dipole field         -0.0008 Ry au, 
 
        Potential amp.        0.0884 Ry
        Total length         55.1515 bohr
 
 
     Adding external electric field

     Computed dipole along edir(3) : 
        Dipole               -1.3087 Ry au,         -3.3264 Debye
        Dipole field         -0.0008 Ry au, 
 
        Potential amp.        0.0884 Ry
        Total length         55.1515 bohr
 

     total cpu time spent up to now is      184.7 secs

     total energy              =   -7737.92830115 Ry
     estimated scf accuracy    <       4.23431777 Ry

     total magnetization       =    80.83 Bohr mag/cell
     absolute magnetization    =    92.11 Bohr mag/cell

     iteration # 13     ecut=    50.00 Ry     beta= 0.10
     Davidson diagonalization with overlap
     ethr =  3.30E-04,  avg # of iterations =  1.5

     negative rho (up, down):  9.970E-05 4.343E-04
 
     Adding external electric field

     Computed dipole along edir(3) : 
        Dipole               -1.3316 Ry au,         -3.3846 Debye
        Dipole field         -0.0008 Ry au, 
 
        Potential amp.        0.0899 Ry
        Total length         55.1515 bohr
 
 
     Adding external electric field

     Computed dipole along edir(3) : 
        Dipole               -1.3316 Ry au,         -3.3846 Debye
        Dipole field         -0.0008 Ry au, 
 
        Potential amp.        0.0899 Ry
        Total length         55.1515 bohr
 

     total cpu time spent up to now is      196.4 secs

     total energy              =   -7737.99641062 Ry
     estimated scf accuracy    <       3.21836935 Ry

     total magnetization       =    81.51 Bohr mag/cell
     absolute magnetization    =    91.47 Bohr mag/cell

     iteration # 14     ecut=    50.00 Ry     beta= 0.10
     Davidson diagonalization with overlap
     ethr =  2.94E-04,  avg # of iterations =  1.5

     negative rho (up, down):  4.298E-05 2.389E-04
 
     Adding external electric field

     Computed dipole along edir(3) : 
        Dipole               -1.3783 Ry au,         -3.5032 Debye
        Dipole field         -0.0008 Ry au, 
 
        Potential amp.        0.0931 Ry
        Total length         55.1515 bohr
 
 
     Adding external electric field

     Computed dipole along edir(3) : 
        Dipole               -1.3783 Ry au,         -3.5032 Debye
        Dipole field         -0.0008 Ry au, 
 
        Potential amp.        0.0931 Ry
        Total length         55.1515 bohr
 

     total cpu time spent up to now is      208.2 secs

     total energy              =   -7738.03504202 Ry
     estimated scf accuracy    <       2.19952571 Ry

     total magnetization       =    82.89 Bohr mag/cell
     absolute magnetization    =    91.62 Bohr mag/cell

     iteration # 15     ecut=    50.00 Ry     beta= 0.10
     Davidson diagonalization with overlap
     ethr =  2.01E-04,  avg # of iterations =  1.5

     negative rho (up, down):  2.433E-05 1.518E-04
 
     Adding external electric field

     Computed dipole along edir(3) : 
        Dipole               -1.3436 Ry au,         -3.4152 Debye
        Dipole field         -0.0008 Ry au, 
 
        Potential amp.        0.0907 Ry
        Total length         55.1515 bohr
 
 
     Adding external electric field

     Computed dipole along edir(3) : 
        Dipole               -1.3436 Ry au,         -3.4152 Debye
        Dipole field         -0.0008 Ry au, 
 
        Potential amp.        0.0907 Ry
        Total length         55.1515 bohr
 

     total cpu time spent up to now is      220.4 secs

     total energy              =   -7738.15039701 Ry
     estimated scf accuracy    <       0.38693290 Ry

     total magnetization       =    89.12 Bohr mag/cell
     absolute magnetization    =    95.62 Bohr mag/cell

     iteration # 16     ecut=    50.00 Ry     beta= 0.10
     Davidson diagonalization with overlap
     c_bands:  1 eigenvalues not converged
     ethr =  3.54E-05,  avg # of iterations = 21.0

     negative rho (up, down):  2.720E-05 2.038E-04
 
     Adding external electric field

     Computed dipole along edir(3) : 
        Dipole               -1.2282 Ry au,         -3.1217 Debye
        Dipole field         -0.0008 Ry au, 
 
        Potential amp.        0.0829 Ry
        Total length         55.1515 bohr
 
 
     Adding external electric field

     Computed dipole along edir(3) : 
        Dipole               -1.2282 Ry au,         -3.1217 Debye
        Dipole field         -0.0008 Ry au, 
 
        Potential amp.        0.0829 Ry
        Total length         55.1515 bohr
 

     total cpu time spent up to now is      251.7 secs

     total energy              =   -7738.27266035 Ry
     estimated scf accuracy    <       0.30052798 Ry

     total magnetization       =    89.11 Bohr mag/cell
     absolute magnetization    =    94.65 Bohr mag/cell

     iteration # 17     ecut=    50.00 Ry     beta= 0.10
     Davidson diagonalization with overlap
     ethr =  2.75E-05,  avg # of iterations =  3.5

     negative rho (up, down):  9.999E-05 3.875E-04
 
     Adding external electric field

     Computed dipole along edir(3) : 
        Dipole               -1.2172 Ry au,         -3.0939 Debye
        Dipole field         -0.0007 Ry au, 
 
        Potential amp.        0.0822 Ry
        Total length         55.1515 bohr
 
 
     Adding external electric field

     Computed dipole along edir(3) : 
        Dipole               -1.2172 Ry au,         -3.0939 Debye
        Dipole field         -0.0007 Ry au, 
 
        Potential amp.        0.0822 Ry
        Total length         55.1515 bohr
 

     total cpu time spent up to now is      265.4 secs

     total energy              =   -7738.30855806 Ry
     estimated scf accuracy    <       0.36537901 Ry

     total magnetization       =    88.22 Bohr mag/cell
     absolute magnetization    =    91.29 Bohr mag/cell

     iteration # 18     ecut=    50.00 Ry     beta= 0.10
     Davidson diagonalization with overlap
     ethr =  2.75E-05,  avg # of iterations =  1.5

     negative rho (up, down):  1.175E-04 2.553E-04
 
     Adding external electric field

     Computed dipole along edir(3) : 
        Dipole               -1.1899 Ry au,         -3.0245 Debye
        Dipole field         -0.0007 Ry au, 
 
        Potential amp.        0.0803 Ry
        Total length         55.1515 bohr
 
 
     Adding external electric field

     Computed dipole along edir(3) : 
        Dipole               -1.1899 Ry au,         -3.0245 Debye
        Dipole field         -0.0007 Ry au, 
 
        Potential amp.        0.0803 Ry
        Total length         55.1515 bohr
 

     total cpu time spent up to now is      277.1 secs

     total energy              =   -7738.32180653 Ry
     estimated scf accuracy    <       0.12940351 Ry

     total magnetization       =    89.36 Bohr mag/cell
     absolute magnetization    =    91.31 Bohr mag/cell

     iteration # 19     ecut=    50.00 Ry     beta= 0.10
     Davidson diagonalization with overlap
     c_bands:  5 eigenvalues not converged
     ethr =  1.18E-05,  avg # of iterations = 10.5

     negative rho (up, down):  1.780E-04 9.704E-05
 
     Adding external electric field

     Computed dipole along edir(3) : 
        Dipole               -1.1448 Ry au,         -2.9098 Debye
        Dipole field         -0.0007 Ry au, 
 
        Potential amp.        0.0773 Ry
        Total length         55.1515 bohr
 
 
     Adding external electric field

     Computed dipole along edir(3) : 
        Dipole               -1.1448 Ry au,         -2.9098 Debye
        Dipole field         -0.0007 Ry au, 
 
        Potential amp.        0.0773 Ry
        Total length         55.1515 bohr
 

     total cpu time spent up to now is      296.9 secs

     total energy              =   -7738.31617593 Ry
     estimated scf accuracy    <       0.10486609 Ry

     total magnetization       =    88.86 Bohr mag/cell
     absolute magnetization    =    90.64 Bohr mag/cell

     iteration # 20     ecut=    50.00 Ry     beta= 0.10
     Davidson diagonalization with overlap
     ethr =  9.59E-06,  avg # of iterations =  2.5

     negative rho (up, down):  1.566E-04 4.530E-05
 
     Adding external electric field

     Computed dipole along edir(3) : 
        Dipole               -1.1237 Ry au,         -2.8561 Debye
        Dipole field         -0.0007 Ry au, 
 
        Potential amp.        0.0759 Ry
        Total length         55.1515 bohr
 
 
     Adding external electric field

     Computed dipole along edir(3) : 
        Dipole               -1.1237 Ry au,         -2.8561 Debye
        Dipole field         -0.0007 Ry au, 
 
        Potential amp.        0.0759 Ry
        Total length         55.1515 bohr
 

     total cpu time spent up to now is      310.4 secs

     total energy              =   -7738.31647613 Ry
     estimated scf accuracy    <       0.08072068 Ry

     total magnetization       =    88.46 Bohr mag/cell
     absolute magnetization    =    90.04 Bohr mag/cell

     iteration # 21     ecut=    50.00 Ry     beta= 0.10
     Davidson diagonalization with overlap
     ethr =  7.39E-06,  avg # of iterations =  2.0

     negative rho (up, down):  1.135E-04 1.418E-05
 
     Adding external electric field

     Computed dipole along edir(3) : 
        Dipole               -1.0762 Ry au,         -2.7354 Debye
        Dipole field         -0.0007 Ry au, 
 
        Potential amp.        0.0727 Ry
        Total length         55.1515 bohr
 
 
     Adding external electric field

     Computed dipole along edir(3) : 
        Dipole               -1.0762 Ry au,         -2.7354 Debye
        Dipole field         -0.0007 Ry au, 
 
        Potential amp.        0.0727 Ry
        Total length         55.1515 bohr
 

     total cpu time spent up to now is      324.0 secs

     total energy              =   -7738.31354389 Ry
     estimated scf accuracy    <       0.05927809 Ry

     total magnetization       =    88.68 Bohr mag/cell
     absolute magnetization    =    90.26 Bohr mag/cell

     iteration # 22     ecut=    50.00 Ry     beta= 0.10
     Davidson diagonalization with overlap
     ethr =  5.42E-06,  avg # of iterations =  2.0

     negative rho (up, down):  1.582E-04 3.230E-05
 
     Adding external electric field

     Computed dipole along edir(3) : 
        Dipole               -1.1152 Ry au,         -2.8346 Debye
        Dipole field         -0.0007 Ry au, 
 
        Potential amp.        0.0753 Ry
        Total length         55.1515 bohr
 
 
     Adding external electric field

     Computed dipole along edir(3) : 
        Dipole               -1.1152 Ry au,         -2.8346 Debye
        Dipole field         -0.0007 Ry au, 
 
        Potential amp.        0.0753 Ry
        Total length         55.1515 bohr
 

     total cpu time spent up to now is      336.9 secs

     total energy              =   -7738.31414673 Ry
     estimated scf accuracy    <       0.06571087 Ry

     total magnetization       =    89.01 Bohr mag/cell
     absolute magnetization    =    90.56 Bohr mag/cell

     iteration # 23     ecut=    50.00 Ry     beta= 0.10
     Davidson diagonalization with overlap
     ethr =  5.42E-06,  avg # of iterations =  1.5

     negative rho (up, down):  9.830E-05 3.744E-05
 
     Adding external electric field

     Computed dipole along edir(3) : 
        Dipole               -1.0860 Ry au,         -2.7604 Debye
        Dipole field         -0.0007 Ry au, 
 
        Potential amp.        0.0733 Ry
        Total length         55.1515 bohr
 
 
     Adding external electric field

     Computed dipole along edir(3) : 
        Dipole               -1.0860 Ry au,         -2.7604 Debye
        Dipole field         -0.0007 Ry au, 
 
        Potential amp.        0.0733 Ry
        Total length         55.1515 bohr
 

     total cpu time spent up to now is      349.1 secs

     total energy              =   -7738.31981774 Ry
     estimated scf accuracy    <       0.06081688 Ry

     total magnetization       =    89.00 Bohr mag/cell
     absolute magnetization    =    90.56 Bohr mag/cell

     iteration # 24     ecut=    50.00 Ry     beta= 0.10
     Davidson diagonalization with overlap
     ethr =  5.42E-06,  avg # of iterations =  2.5

     negative rho (up, down):  2.387E-05 8.900E-06
 
     Adding external electric field

     Computed dipole along edir(3) : 
        Dipole               -0.9879 Ry au,         -2.5111 Debye
        Dipole field         -0.0006 Ry au, 
 
        Potential amp.        0.0667 Ry
        Total length         55.1515 bohr
 
 
     Adding external electric field

     Computed dipole along edir(3) : 
        Dipole               -0.9879 Ry au,         -2.5111 Debye
        Dipole field         -0.0006 Ry au, 
 
        Potential amp.        0.0667 Ry
        Total length         55.1515 bohr
 

     total cpu time spent up to now is      362.8 secs

     total energy              =   -7738.31983196 Ry
     estimated scf accuracy    <       0.05938762 Ry

     total magnetization       =    88.81 Bohr mag/cell
     absolute magnetization    =    90.33 Bohr mag/cell

     iteration # 25     ecut=    50.00 Ry     beta= 0.10
     Davidson diagonalization with overlap
     c_bands:  2 eigenvalues not converged
     ethr =  5.42E-06,  avg # of iterations = 11.0

     negative rho (up, down):  9.626E-06 4.008E-06
 
     Adding external electric field

     Computed dipole along edir(3) : 
        Dipole               -0.9322 Ry au,         -2.3694 Debye
        Dipole field         -0.0006 Ry au, 
 
        Potential amp.        0.0629 Ry
        Total length         55.1515 bohr
 
 
     Adding external electric field

     Computed dipole along edir(3) : 
        Dipole               -0.9322 Ry au,         -2.3694 Debye
        Dipole field         -0.0006 Ry au, 
 
        Potential amp.        0.0629 Ry
        Total length         55.1515 bohr
 

     total cpu time spent up to now is      380.2 secs

     total energy              =   -7738.31970696 Ry
     estimated scf accuracy    <       0.04683592 Ry

     total magnetization       =    88.74 Bohr mag/cell
     absolute magnetization    =    90.12 Bohr mag/cell

     iteration # 26     ecut=    50.00 Ry     beta= 0.10
     Davidson diagonalization with overlap
     c_bands:  1 eigenvalues not converged
     ethr =  4.29E-06,  avg # of iterations = 11.0

     negative rho (up, down):  1.301E-05 8.250E-06
 
     Adding external electric field

     Computed dipole along edir(3) : 
        Dipole               -0.8933 Ry au,         -2.2705 Debye
        Dipole field         -0.0005 Ry au, 
 
        Potential amp.        0.0603 Ry
        Total length         55.1515 bohr
 
 
     Adding external electric field

     Computed dipole along edir(3) : 
        Dipole               -0.8933 Ry au,         -2.2705 Debye
        Dipole field         -0.0005 Ry au, 
 
        Potential amp.        0.0603 Ry
        Total length         55.1515 bohr
 

     total cpu time spent up to now is      397.3 secs

     total energy              =   -7738.31963119 Ry
     estimated scf accuracy    <       0.03656049 Ry

     total magnetization       =    88.66 Bohr mag/cell
     absolute magnetization    =    90.08 Bohr mag/cell

     iteration # 27     ecut=    50.00 Ry     beta= 0.10
     Davidson diagonalization with overlap
     ethr =  3.34E-06,  avg # of iterations = 15.0

     negative rho (up, down):  2.807E-05 1.984E-05
 
     Adding external electric field

     Computed dipole along edir(3) : 
        Dipole               -0.8631 Ry au,         -2.1938 Debye
        Dipole field         -0.0005 Ry au, 
 
        Potential amp.        0.0583 Ry
        Total length         55.1515 bohr
 
 
     Adding external electric field

     Computed dipole along edir(3) : 
        Dipole               -0.8631 Ry au,         -2.1938 Debye
        Dipole field         -0.0005 Ry au, 
 
        Potential amp.        0.0583 Ry
        Total length         55.1515 bohr
 

     total cpu time spent up to now is      421.5 secs

     total energy              =   -7738.31893867 Ry
     estimated scf accuracy    <       0.03489062 Ry

     total magnetization       =    88.58 Bohr mag/cell
     absolute magnetization    =    90.05 Bohr mag/cell

     iteration # 28     ecut=    50.00 Ry     beta= 0.10
     Davidson diagonalization with overlap
     ethr =  3.19E-06,  avg # of iterations =  3.0

     negative rho (up, down):  5.146E-05 3.836E-05
 
     Adding external electric field

     Computed dipole along edir(3) : 
        Dipole               -0.8410 Ry au,         -2.1377 Debye
        Dipole field         -0.0005 Ry au, 
 
        Potential amp.        0.0568 Ry
        Total length         55.1515 bohr
 
 
     Adding external electric field

     Computed dipole along edir(3) : 
        Dipole               -0.8410 Ry au,         -2.1377 Debye
        Dipole field         -0.0005 Ry au, 
 
        Potential amp.        0.0568 Ry
        Total length         55.1515 bohr
 

     total cpu time spent up to now is      434.4 secs

     total energy              =   -7738.31900437 Ry
     estimated scf accuracy    <       0.03891880 Ry

     total magnetization       =    88.51 Bohr mag/cell
     absolute magnetization    =    90.01 Bohr mag/cell

     iteration # 29     ecut=    50.00 Ry     beta= 0.10
     Davidson diagonalization with overlap
     ethr =  3.19E-06,  avg # of iterations =  1.5

     negative rho (up, down):  4.155E-04 2.629E-04
 
     Adding external electric field

     Computed dipole along edir(3) : 
        Dipole               -0.7656 Ry au,         -1.9459 Debye
        Dipole field         -0.0005 Ry au, 
 
        Potential amp.        0.0517 Ry
        Total length         55.1515 bohr
 
 
     Adding external electric field

     Computed dipole along edir(3) : 
        Dipole               -0.7656 Ry au,         -1.9459 Debye
        Dipole field         -0.0005 Ry au, 
 
        Potential amp.        0.0517 Ry
        Total length         55.1515 bohr
 

     total cpu time spent up to now is      446.2 secs

     total energy              =   -7738.31755546 Ry
     estimated scf accuracy    <       0.03908839 Ry

     total magnetization       =    88.52 Bohr mag/cell
     absolute magnetization    =    90.04 Bohr mag/cell

     iteration # 30     ecut=    50.00 Ry     beta= 0.10
     Davidson diagonalization with overlap
     ethr =  3.19E-06,  avg # of iterations =  2.0

     negative rho (up, down):  2.282E-04 1.531E-04
 
     Adding external electric field

     Computed dipole along edir(3) : 
        Dipole               -0.8003 Ry au,         -2.0341 Debye
        Dipole field         -0.0005 Ry au, 
 
        Potential amp.        0.0540 Ry
        Total length         55.1515 bohr
 
 
     Adding external electric field

     Computed dipole along edir(3) : 
        Dipole               -0.8003 Ry au,         -2.0341 Debye
        Dipole field         -0.0005 Ry au, 
 
        Potential amp.        0.0540 Ry
        Total length         55.1515 bohr
 

     total cpu time spent up to now is      459.0 secs

     total energy              =   -7738.31842811 Ry
     estimated scf accuracy    <       0.03666085 Ry

     total magnetization       =    88.58 Bohr mag/cell
     absolute magnetization    =    89.99 Bohr mag/cell

     iteration # 31     ecut=    50.00 Ry     beta= 0.10
     Davidson diagonalization with overlap
     ethr =  3.19E-06,  avg # of iterations =  1.0

     negative rho (up, down):  3.105E-04 2.025E-04
 
     Adding external electric field

     Computed dipole along edir(3) : 
        Dipole               -0.6739 Ry au,         -1.7130 Debye
        Dipole field         -0.0004 Ry au, 
 
        Potential amp.        0.0455 Ry
        Total length         55.1515 bohr
 
 
     Adding external electric field

     Computed dipole along edir(3) : 
        Dipole               -0.6739 Ry au,         -1.7130 Debye
        Dipole field         -0.0004 Ry au, 
 
        Potential amp.        0.0455 Ry
        Total length         55.1515 bohr
 

     total cpu time spent up to now is      470.4 secs

     total energy              =   -7738.31748874 Ry
     estimated scf accuracy    <       0.03808711 Ry

     total magnetization       =    88.58 Bohr mag/cell
     absolute magnetization    =    90.06 Bohr mag/cell

     iteration # 32     ecut=    50.00 Ry     beta= 0.10
     Davidson diagonalization with overlap
     ethr =  3.19E-06,  avg # of iterations =  2.0

     negative rho (up, down):  1.985E-04 1.886E-04
 
     Adding external electric field

     Computed dipole along edir(3) : 
        Dipole               -0.6432 Ry au,         -1.6348 Debye
        Dipole field         -0.0004 Ry au, 
 
        Potential amp.        0.0434 Ry
        Total length         55.1515 bohr
 
 
     Adding external electric field

     Computed dipole along edir(3) : 
        Dipole               -0.6432 Ry au,         -1.6348 Debye
        Dipole field         -0.0004 Ry au, 
 
        Potential amp.        0.0434 Ry
        Total length         55.1515 bohr
 

     total cpu time spent up to now is      482.7 secs

     total energy              =   -7738.31801133 Ry
     estimated scf accuracy    <       0.02872884 Ry

     total magnetization       =    88.72 Bohr mag/cell
     absolute magnetization    =    90.09 Bohr mag/cell

     iteration # 33     ecut=    50.00 Ry     beta= 0.10
     Davidson diagonalization with overlap
     ethr =  2.63E-06,  avg # of iterations =  2.0

     negative rho (up, down):  2.832E-04 1.941E-04
 
     Adding external electric field

     Computed dipole along edir(3) : 
        Dipole               -0.6629 Ry au,         -1.6850 Debye
        Dipole field         -0.0004 Ry au, 
 
        Potential amp.        0.0448 Ry
        Total length         55.1515 bohr
 
 
     Adding external electric field

     Computed dipole along edir(3) : 
        Dipole               -0.6629 Ry au,         -1.6850 Debye
        Dipole field         -0.0004 Ry au, 
 
        Potential amp.        0.0448 Ry
        Total length         55.1515 bohr
 

     total cpu time spent up to now is      495.0 secs

     total energy              =   -7738.31789179 Ry
     estimated scf accuracy    <       0.02755470 Ry

     total magnetization       =    88.62 Bohr mag/cell
     absolute magnetization    =    89.93 Bohr mag/cell

     iteration # 34     ecut=    50.00 Ry     beta= 0.10
     Davidson diagonalization with overlap
     ethr =  2.52E-06,  avg # of iterations =  2.0

     negative rho (up, down):  2.730E-04 2.046E-04
 
     Adding external electric field

     Computed dipole along edir(3) : 
        Dipole               -0.6469 Ry au,         -1.6443 Debye
        Dipole field         -0.0004 Ry au, 
 
        Potential amp.        0.0437 Ry
        Total length         55.1515 bohr
 
 
     Adding external electric field

     Computed dipole along edir(3) : 
        Dipole               -0.6469 Ry au,         -1.6443 Debye
        Dipole field         -0.0004 Ry au, 
 
        Potential amp.        0.0437 Ry
        Total length         55.1515 bohr
 

     total cpu time spent up to now is      507.5 secs

     total energy              =   -7738.31791294 Ry
     estimated scf accuracy    <       0.02603887 Ry

     total magnetization       =    88.71 Bohr mag/cell
     absolute magnetization    =    90.00 Bohr mag/cell

     iteration # 35     ecut=    50.00 Ry     beta= 0.10
     Davidson diagonalization with overlap
     ethr =  2.38E-06,  avg # of iterations =  2.0

     negative rho (up, down):  9.073E-05 4.619E-05
 
     Adding external electric field

     Computed dipole along edir(3) : 
        Dipole               -0.7451 Ry au,         -1.8938 Debye
        Dipole field         -0.0005 Ry au, 
 
        Potential amp.        0.0503 Ry
        Total length         55.1515 bohr
 
 
     Adding external electric field

     Computed dipole along edir(3) : 
        Dipole               -0.7451 Ry au,         -1.8938 Debye
        Dipole field         -0.0005 Ry au, 
 
        Potential amp.        0.0503 Ry
        Total length         55.1515 bohr
 

     total cpu time spent up to now is      519.9 secs

     total energy              =   -7738.31752788 Ry
     estimated scf accuracy    <       0.02645968 Ry

     total magnetization       =    88.72 Bohr mag/cell
     absolute magnetization    =    90.00 Bohr mag/cell

     iteration # 36     ecut=    50.00 Ry     beta= 0.10
     Davidson diagonalization with overlap
     ethr =  2.38E-06,  avg # of iterations =  2.0

     negative rho (up, down):  1.776E-04 1.315E-04
 
     Adding external electric field

     Computed dipole along edir(3) : 
        Dipole               -0.6569 Ry au,         -1.6696 Debye
        Dipole field         -0.0004 Ry au, 
 
        Potential amp.        0.0444 Ry
        Total length         55.1515 bohr
 
 
     Adding external electric field

     Computed dipole along edir(3) : 
        Dipole               -0.6569 Ry au,         -1.6696 Debye
        Dipole field         -0.0004 Ry au, 
 
        Potential amp.        0.0444 Ry
        Total length         55.1515 bohr
 

     total cpu time spent up to now is      532.4 secs

     total energy              =   -7738.31755342 Ry
     estimated scf accuracy    <       0.03014439 Ry

     total magnetization       =    88.76 Bohr mag/cell
     absolute magnetization    =    89.98 Bohr mag/cell

     iteration # 37     ecut=    50.00 Ry     beta= 0.10
     Davidson diagonalization with overlap
     ethr =  2.38E-06,  avg # of iterations =  2.0

     negative rho (up, down):  1.989E-04 1.501E-04
 
     Adding external electric field

     Computed dipole along edir(3) : 
        Dipole               -0.6607 Ry au,         -1.6793 Debye
        Dipole field         -0.0004 Ry au, 
 
        Potential amp.        0.0446 Ry
        Total length         55.1515 bohr
 
 
     Adding external electric field

     Computed dipole along edir(3) : 
        Dipole               -0.6607 Ry au,         -1.6793 Debye
        Dipole field         -0.0004 Ry au, 
 
        Potential amp.        0.0446 Ry
        Total length         55.1515 bohr
 

     total cpu time spent up to now is      545.0 secs

     total energy              =   -7738.31813653 Ry
     estimated scf accuracy    <       0.02382672 Ry

     total magnetization       =    88.67 Bohr mag/cell
     absolute magnetization    =    90.05 Bohr mag/cell

     iteration # 38     ecut=    50.00 Ry     beta= 0.10
     Davidson diagonalization with overlap
     ethr =  2.18E-06,  avg # of iterations =  1.5

     negative rho (up, down):  1.738E-04 1.290E-04
 
     Adding external electric field

     Computed dipole along edir(3) : 
        Dipole               -0.6491 Ry au,         -1.6498 Debye
        Dipole field         -0.0004 Ry au, 
 
        Potential amp.        0.0438 Ry
        Total length         55.1515 bohr
 
 
     Adding external electric field

     Computed dipole along edir(3) : 
        Dipole               -0.6491 Ry au,         -1.6498 Debye
        Dipole field         -0.0004 Ry au, 
 
        Potential amp.        0.0438 Ry
        Total length         55.1515 bohr
 

     total cpu time spent up to now is      556.4 secs

     total energy              =   -7738.31804581 Ry
     estimated scf accuracy    <       0.02423041 Ry

     total magnetization       =    88.67 Bohr mag/cell
     absolute magnetization    =    90.07 Bohr mag/cell

     iteration # 39     ecut=    50.00 Ry     beta= 0.10
     Davidson diagonalization with overlap
     ethr =  2.18E-06,  avg # of iterations =  2.0

     negative rho (up, down):  5.240E-04 3.494E-04
 
     Adding external electric field

     Computed dipole along edir(3) : 
        Dipole               -0.5722 Ry au,         -1.4543 Debye
        Dipole field         -0.0004 Ry au, 
 
        Potential amp.        0.0386 Ry
        Total length         55.1515 bohr
 
 
     Adding external electric field

     Computed dipole along edir(3) : 
        Dipole               -0.5722 Ry au,         -1.4543 Debye
        Dipole field         -0.0004 Ry au, 
 
        Potential amp.        0.0386 Ry
        Total length         55.1515 bohr
 

     total cpu time spent up to now is      568.6 secs

     total energy              =   -7738.31726712 Ry
     estimated scf accuracy    <       0.02368681 Ry

     total magnetization       =    88.69 Bohr mag/cell
     absolute magnetization    =    90.10 Bohr mag/cell

     iteration # 40     ecut=    50.00 Ry     beta= 0.10
     Davidson diagonalization with overlap
     ethr =  2.17E-06,  avg # of iterations =  2.0

     negative rho (up, down):  2.508E-04 1.860E-04
 
     Adding external electric field

     Computed dipole along edir(3) : 
        Dipole               -0.6256 Ry au,         -1.5901 Debye
        Dipole field         -0.0004 Ry au, 
 
        Potential amp.        0.0422 Ry
        Total length         55.1515 bohr
 
 
     Adding external electric field

     Computed dipole along edir(3) : 
        Dipole               -0.6256 Ry au,         -1.5901 Debye
        Dipole field         -0.0004 Ry au, 
 
        Potential amp.        0.0422 Ry
        Total length         55.1515 bohr
 

     total cpu time spent up to now is      580.9 secs

     total energy              =   -7738.31789779 Ry
     estimated scf accuracy    <       0.02529466 Ry

     total magnetization       =    88.70 Bohr mag/cell
     absolute magnetization    =    90.07 Bohr mag/cell

     iteration # 41     ecut=    50.00 Ry     beta= 0.10
     Davidson diagonalization with overlap
     ethr =  2.17E-06,  avg # of iterations =  1.5

     negative rho (up, down):  3.833E-04 3.195E-04
 
     Adding external electric field

     Computed dipole along edir(3) : 
        Dipole               -0.5757 Ry au,         -1.4633 Debye
        Dipole field         -0.0004 Ry au, 
 
        Potential amp.        0.0389 Ry
        Total length         55.1515 bohr
 
 
     Adding external electric field

     Computed dipole along edir(3) : 
        Dipole               -0.5757 Ry au,         -1.4633 Debye
        Dipole field         -0.0004 Ry au, 
 
        Potential amp.        0.0389 Ry
        Total length         55.1515 bohr
 

     total cpu time spent up to now is      592.6 secs

     total energy              =   -7738.31743796 Ry
     estimated scf accuracy    <       0.02435183 Ry

     total magnetization       =    88.71 Bohr mag/cell
     absolute magnetization    =    90.12 Bohr mag/cell

     iteration # 42     ecut=    50.00 Ry     beta= 0.10
     Davidson diagonalization with overlap
     ethr =  2.17E-06,  avg # of iterations =  2.0

     negative rho (up, down):  4.419E-04 3.974E-04
 
     Adding external electric field

     Computed dipole along edir(3) : 
        Dipole               -0.6135 Ry au,         -1.5593 Debye
        Dipole field         -0.0004 Ry au, 
 
        Potential amp.        0.0414 Ry
        Total length         55.1515 bohr
 
 
     Adding external electric field

     Computed dipole along edir(3) : 
        Dipole               -0.6135 Ry au,         -1.5593 Debye
        Dipole field         -0.0004 Ry au, 
 
        Potential amp.        0.0414 Ry
        Total length         55.1515 bohr
 

     total cpu time spent up to now is      605.7 secs

     total energy              =   -7738.31782540 Ry
     estimated scf accuracy    <       0.02550144 Ry

     total magnetization       =    88.64 Bohr mag/cell
     absolute magnetization    =    90.09 Bohr mag/cell

     iteration # 43     ecut=    50.00 Ry     beta= 0.10
     Davidson diagonalization with overlap
     ethr =  2.17E-06,  avg # of iterations =  2.0

     negative rho (up, down):  2.003E-04 1.177E-04
 
     Adding external electric field

     Computed dipole along edir(3) : 
        Dipole               -0.5764 Ry au,         -1.4652 Debye
        Dipole field         -0.0004 Ry au, 
 
        Potential amp.        0.0389 Ry
        Total length         55.1515 bohr
 
 
     Adding external electric field

     Computed dipole along edir(3) : 
        Dipole               -0.5764 Ry au,         -1.4652 Debye
        Dipole field         -0.0004 Ry au, 
 
        Potential amp.        0.0389 Ry
        Total length         55.1515 bohr
 

     total cpu time spent up to now is      617.6 secs

     total energy              =   -7738.31685657 Ry
     estimated scf accuracy    <       0.02636979 Ry

     total magnetization       =    88.57 Bohr mag/cell
     absolute magnetization    =    89.95 Bohr mag/cell

     iteration # 44     ecut=    50.00 Ry     beta= 0.10
     Davidson diagonalization with overlap
     ethr =  2.17E-06,  avg # of iterations =  3.0

     negative rho (up, down):  7.055E-05 4.780E-05
 
     Adding external electric field

     Computed dipole along edir(3) : 
        Dipole               -0.6467 Ry au,         -1.6438 Debye
        Dipole field         -0.0004 Ry au, 
 
        Potential amp.        0.0437 Ry
        Total length         55.1515 bohr
 
 
     Adding external electric field

     Computed dipole along edir(3) : 
        Dipole               -0.6467 Ry au,         -1.6438 Debye
        Dipole field         -0.0004 Ry au, 
 
        Potential amp.        0.0437 Ry
        Total length         55.1515 bohr
 

     total cpu time spent up to now is      629.9 secs

     total energy              =   -7738.31707484 Ry
     estimated scf accuracy    <       0.01973300 Ry

     total magnetization       =    88.74 Bohr mag/cell
     absolute magnetization    =    90.11 Bohr mag/cell

     iteration # 45     ecut=    50.00 Ry     beta= 0.10
     Davidson diagonalization with overlap
     ethr =  1.81E-06,  avg # of iterations =  2.0

     negative rho (up, down):  4.020E-04 4.047E-04
 
     Adding external electric field

     Computed dipole along edir(3) : 
        Dipole               -0.6597 Ry au,         -1.6769 Debye
        Dipole field         -0.0004 Ry au, 
 
        Potential amp.        0.0445 Ry
        Total length         55.1515 bohr
 
 
     Adding external electric field

     Computed dipole along edir(3) : 
        Dipole               -0.6597 Ry au,         -1.6769 Debye
        Dipole field         -0.0004 Ry au, 
 
        Potential amp.        0.0445 Ry
        Total length         55.1515 bohr
 

     total cpu time spent up to now is      642.3 secs

     total energy              =   -7738.31720837 Ry
     estimated scf accuracy    <       0.01546420 Ry

     total magnetization       =    88.77 Bohr mag/cell
     absolute magnetization    =    90.14 Bohr mag/cell

     iteration # 46     ecut=    50.00 Ry     beta= 0.10
     Davidson diagonalization with overlap
     ethr =  1.41E-06,  avg # of iterations =  4.0

     negative rho (up, down):  9.997E-04 1.087E-03
 
     Adding external electric field

     Computed dipole along edir(3) : 
        Dipole               -0.5339 Ry au,         -1.3571 Debye
        Dipole field         -0.0003 Ry au, 
 
        Potential amp.        0.0360 Ry
        Total length         55.1515 bohr
 
 
     Adding external electric field

     Computed dipole along edir(3) : 
        Dipole               -0.5339 Ry au,         -1.3571 Debye
        Dipole field         -0.0003 Ry au, 
 
        Potential amp.        0.0360 Ry
        Total length         55.1515 bohr
 

     total cpu time spent up to now is      656.1 secs

     total energy              =   -7738.31640176 Ry
     estimated scf accuracy    <       0.01307243 Ry

     total magnetization       =    88.72 Bohr mag/cell
     absolute magnetization    =    90.08 Bohr mag/cell

     iteration # 47     ecut=    50.00 Ry     beta= 0.10
     Davidson diagonalization with overlap
     c_bands:  1 eigenvalues not converged
     ethr =  1.20E-06,  avg # of iterations = 11.0

     negative rho (up, down):  9.507E-04 1.032E-03
 
     Adding external electric field

     Computed dipole along edir(3) : 
        Dipole               -0.5189 Ry au,         -1.3189 Debye
        Dipole field         -0.0003 Ry au, 
 
        Potential amp.        0.0350 Ry
        Total length         55.1515 bohr
 
 
     Adding external electric field

     Computed dipole along edir(3) : 
        Dipole               -0.5189 Ry au,         -1.3189 Debye
        Dipole field         -0.0003 Ry au, 
 
        Potential amp.        0.0350 Ry
        Total length         55.1515 bohr
 

     total cpu time spent up to now is      673.3 secs

     total energy              =   -7738.31645455 Ry
     estimated scf accuracy    <       0.01079279 Ry

     total magnetization       =    88.75 Bohr mag/cell
     absolute magnetization    =    90.06 Bohr mag/cell

     iteration # 48     ecut=    50.00 Ry     beta= 0.10
     Davidson diagonalization with overlap
     ethr =  9.87E-07,  avg # of iterations =  2.0

     negative rho (up, down):  4.913E-04 4.839E-04
 
     Adding external electric field

     Computed dipole along edir(3) : 
        Dipole               -0.4758 Ry au,         -1.2094 Debye
        Dipole field         -0.0003 Ry au, 
 
        Potential amp.        0.0321 Ry
        Total length         55.1515 bohr
 
 
     Adding external electric field

     Computed dipole along edir(3) : 
        Dipole               -0.4758 Ry au,         -1.2094 Debye
        Dipole field         -0.0003 Ry au, 
 
        Potential amp.        0.0321 Ry
        Total length         55.1515 bohr
 

     total cpu time spent up to now is      686.1 secs

     total energy              =   -7738.31614706 Ry
     estimated scf accuracy    <       0.00972023 Ry

     total magnetization       =    88.76 Bohr mag/cell
     absolute magnetization    =    90.05 Bohr mag/cell

     iteration # 49     ecut=    50.00 Ry     beta= 0.10
     Davidson diagonalization with overlap
     ethr =  8.89E-07,  avg # of iterations =  2.0

     negative rho (up, down):  5.056E-04 4.777E-04
 
     Adding external electric field

     Computed dipole along edir(3) : 
        Dipole               -0.4547 Ry au,         -1.1558 Debye
        Dipole field         -0.0003 Ry au, 
 
        Potential amp.        0.0307 Ry
        Total length         55.1515 bohr
 
 
     Adding external electric field

     Computed dipole along edir(3) : 
        Dipole               -0.4547 Ry au,         -1.1558 Debye
        Dipole field         -0.0003 Ry au, 
 
        Potential amp.        0.0307 Ry
        Total length         55.1515 bohr
 

     total cpu time spent up to now is      699.3 secs

     total energy              =   -7738.31618386 Ry
     estimated scf accuracy    <       0.00804940 Ry

     total magnetization       =    88.78 Bohr mag/cell
     absolute magnetization    =    90.02 Bohr mag/cell

     iteration # 50     ecut=    50.00 Ry     beta= 0.10
     Davidson diagonalization with overlap
     ethr =  7.36E-07,  avg # of iterations =  1.5

     negative rho (up, down):  2.610E-03 2.687E-03
 
     Adding external electric field

     Computed dipole along edir(3) : 
        Dipole               -0.3056 Ry au,         -0.7766 Debye
        Dipole field         -0.0002 Ry au, 
 
        Potential amp.        0.0206 Ry
        Total length         55.1515 bohr
 
 
     Adding external electric field

     Computed dipole along edir(3) : 
        Dipole               -0.3056 Ry au,         -0.7766 Debye
        Dipole field         -0.0002 Ry au, 
 
        Potential amp.        0.0206 Ry
        Total length         55.1515 bohr
 

     total cpu time spent up to now is      711.7 secs

     total energy              =   -7738.31631116 Ry
     estimated scf accuracy    <       0.00761070 Ry

     total magnetization       =    88.78 Bohr mag/cell
     absolute magnetization    =    90.01 Bohr mag/cell

     iteration # 51     ecut=    50.00 Ry     beta= 0.10
     Davidson diagonalization with overlap
     ethr =  6.96E-07,  avg # of iterations =  4.5

     negative rho (up, down):  5.104E-03 5.446E-03
 
     Adding external electric field

     Computed dipole along edir(3) : 
        Dipole               -0.2264 Ry au,         -0.5755 Debye
        Dipole field         -0.0001 Ry au, 
 
        Potential amp.        0.0153 Ry
        Total length         55.1515 bohr
 
 
     Adding external electric field

     Computed dipole along edir(3) : 
        Dipole               -0.2264 Ry au,         -0.5755 Debye
        Dipole field         -0.0001 Ry au, 
 
        Potential amp.        0.0153 Ry
        Total length         55.1515 bohr
 

     total cpu time spent up to now is      725.7 secs

     total energy              =   -7738.31656789 Ry
     estimated scf accuracy    <       0.00313144 Ry

     total magnetization       =    88.74 Bohr mag/cell
     absolute magnetization    =    90.00 Bohr mag/cell

     iteration # 52     ecut=    50.00 Ry     beta= 0.10
     Davidson diagonalization with overlap
     ethr =  2.86E-07,  avg # of iterations =  2.0

     negative rho (up, down):  4.031E-03 4.349E-03
 
     Adding external electric field

     Computed dipole along edir(3) : 
        Dipole               -0.2577 Ry au,         -0.6551 Debye
        Dipole field         -0.0002 Ry au, 
 
        Potential amp.        0.0174 Ry
        Total length         55.1515 bohr
 
 
     Adding external electric field

     Computed dipole along edir(3) : 
        Dipole               -0.2577 Ry au,         -0.6551 Debye
        Dipole field         -0.0002 Ry au, 
 
        Potential amp.        0.0174 Ry
        Total length         55.1515 bohr
 

     total cpu time spent up to now is      738.5 secs

     total energy              =   -7738.31663821 Ry
     estimated scf accuracy    <       0.00143366 Ry

     total magnetization       =    88.68 Bohr mag/cell
     absolute magnetization    =    90.01 Bohr mag/cell

     iteration # 53     ecut=    50.00 Ry     beta= 0.10
     Davidson diagonalization with overlap
     ethr =  1.31E-07,  avg # of iterations =  2.0

     negative rho (up, down):  2.282E-03 2.266E-03
 
     Adding external electric field

     Computed dipole along edir(3) : 
        Dipole               -0.2892 Ry au,         -0.7350 Debye
        Dipole field         -0.0002 Ry au, 
 
        Potential amp.        0.0195 Ry
        Total length         55.1515 bohr
 
 
     Adding external electric field

     Computed dipole along edir(3) : 
        Dipole               -0.2892 Ry au,         -0.7350 Debye
        Dipole field         -0.0002 Ry au, 
 
        Potential amp.        0.0195 Ry
        Total length         55.1515 bohr
 

     total cpu time spent up to now is      751.2 secs

     total energy              =   -7738.31673657 Ry
     estimated scf accuracy    <       0.00091886 Ry

     total magnetization       =    88.68 Bohr mag/cell
     absolute magnetization    =    90.05 Bohr mag/cell

     iteration # 54     ecut=    50.00 Ry     beta= 0.10
     Davidson diagonalization with overlap
     ethr =  8.41E-08,  avg # of iterations =  2.0

     negative rho (up, down):  1.157E-03 9.805E-04
 
     Adding external electric field

     Computed dipole along edir(3) : 
        Dipole               -0.3006 Ry au,         -0.7642 Debye
        Dipole field         -0.0002 Ry au, 
 
        Potential amp.        0.0203 Ry
        Total length         55.1515 bohr
 
 
     Adding external electric field

     Computed dipole along edir(3) : 
        Dipole               -0.3006 Ry au,         -0.7642 Debye
        Dipole field         -0.0002 Ry au, 
 
        Potential amp.        0.0203 Ry
        Total length         55.1515 bohr
 

     total cpu time spent up to now is      763.7 secs

     total energy              =   -7738.31677954 Ry
     estimated scf accuracy    <       0.00066119 Ry

     total magnetization       =    88.70 Bohr mag/cell
     absolute magnetization    =    90.07 Bohr mag/cell

     iteration # 55     ecut=    50.00 Ry     beta= 0.10
     Davidson diagonalization with overlap
     ethr =  6.05E-08,  avg # of iterations =  2.0

     negative rho (up, down):  3.641E-04 2.447E-04
 
     Adding external electric field

     Computed dipole along edir(3) : 
        Dipole               -0.3151 Ry au,         -0.8010 Debye
        Dipole field         -0.0002 Ry au, 
 
        Potential amp.        0.0213 Ry
        Total length         55.1515 bohr
 
 
     Adding external electric field

     Computed dipole along edir(3) : 
        Dipole               -0.3151 Ry au,         -0.8010 Debye
        Dipole field         -0.0002 Ry au, 
 
        Potential amp.        0.0213 Ry
        Total length         55.1515 bohr
 

     total cpu time spent up to now is      776.1 secs

     total energy              =   -7738.31679402 Ry
     estimated scf accuracy    <       0.00050565 Ry

     total magnetization       =    88.69 Bohr mag/cell
     absolute magnetization    =    90.07 Bohr mag/cell

     iteration # 56     ecut=    50.00 Ry     beta= 0.10
     Davidson diagonalization with overlap
     ethr =  4.63E-08,  avg # of iterations =  2.0

     negative rho (up, down):  4.208E-04 2.834E-04
 
     Adding external electric field

     Computed dipole along edir(3) : 
        Dipole               -0.3171 Ry au,         -0.8060 Debye
        Dipole field         -0.0002 Ry au, 
 
        Potential amp.        0.0214 Ry
        Total length         55.1515 bohr
 
 
     Adding external electric field

     Computed dipole along edir(3) : 
        Dipole               -0.3171 Ry au,         -0.8060 Debye
        Dipole field         -0.0002 Ry au, 
 
        Potential amp.        0.0214 Ry
        Total length         55.1515 bohr
 

     total cpu time spent up to now is      788.3 secs

     total energy              =   -7738.31681889 Ry
     estimated scf accuracy    <       0.00034233 Ry

     total magnetization       =    88.68 Bohr mag/cell
     absolute magnetization    =    90.06 Bohr mag/cell

     iteration # 57     ecut=    50.00 Ry     beta= 0.10
     Davidson diagonalization with overlap
     ethr =  3.13E-08,  avg # of iterations =  2.0

     negative rho (up, down):  3.592E-04 2.243E-04
 
     Adding external electric field

     Computed dipole along edir(3) : 
        Dipole               -0.3187 Ry au,         -0.8099 Debye
        Dipole field         -0.0002 Ry au, 
 
        Potential amp.        0.0215 Ry
        Total length         55.1515 bohr
 
 
     Adding external electric field

     Computed dipole along edir(3) : 
        Dipole               -0.3187 Ry au,         -0.8099 Debye
        Dipole field         -0.0002 Ry au, 
 
        Potential amp.        0.0215 Ry
        Total length         55.1515 bohr
 

     total cpu time spent up to now is      800.6 secs

     total energy              =   -7738.31683057 Ry
     estimated scf accuracy    <       0.00026603 Ry

     total magnetization       =    88.67 Bohr mag/cell
     absolute magnetization    =    90.05 Bohr mag/cell

     iteration # 58     ecut=    50.00 Ry     beta= 0.10
     Davidson diagonalization with overlap
     ethr =  2.43E-08,  avg # of iterations =  1.0

     negative rho (up, down):  2.167E-04 9.145E-05
 
     Adding external electric field

     Computed dipole along edir(3) : 
[...]
    -5.9689  -5.9373  -5.9290  -5.9058  -5.8844  -5.8766  -5.8636  -5.8395
    -5.8248  -5.7779  -5.7493  -5.7394  -5.7266  -5.6925  -5.6674  -5.6518
    -5.6378  -5.6283  -5.5845  -5.5667  -5.5616  -5.5442  -5.5359  -5.5240
    -5.5138  -5.4862  -5.4730  -5.4417  -5.3991  -5.3645  -5.3308  -5.3148
    -5.2790  -5.2597  -5.2330  -5.1635  -5.1452  -5.1407  -5.1247  -5.1026
    -5.0629  -5.0093  -4.9629  -4.9365  -4.8972  -4.8883  -4.8585  -4.8459
    -4.8198  -4.7918  -4.7801  -4.7405  -4.7241  -4.6905  -4.6374  -4.6017
    -4.5416  -4.4768  -4.4406  -4.4213  -4.4043  -4.3940  -4.3658  -4.3519
    -4.3263  -4.2823  -4.2544  -4.2417  -4.2029  -4.1920  -4.1071  -4.1027
    -4.0864  -4.0431  -4.0374  -4.0173  -3.9546  -3.9311  -3.9185  -3.8793
    -3.8560  -3.8192  -3.8101  -3.7931  -3.7738  -3.7414  -3.7038  -3.6931
    -3.6857  -3.6688  -3.6587  -3.5858  -3.5759  -3.5749  -3.5598  -3.5440
    -3.5318  -3.5152  -3.5063  -3.4818  -3.4471  -3.4412  -3.4268  -3.4053
    -3.3836  -3.3726  -3.3683  -3.3532  -3.3369  -3.3052  -3.2848  -3.2560
    -3.2441  -3.2132  -3.1909  -3.1671  -3.1434  -3.1165  -3.0993  -3.0814
    -3.0739  -3.0626  -3.0520  -3.0337  -3.0175  -3.0007  -2.9845  -2.9363
    -2.9247  -2.9128  -2.9008  -2.8896  -2.8681  -2.8453  -2.8113  -2.7890
    -2.7843  -2.7599  -2.7511  -2.7267  -2.7209  -2.7128  -2.7066  -2.6930
    -2.6723  -2.6650  -2.6613  -2.6361  -2.6267  -2.6140  -2.6057  -2.5780
    -2.5720  -2.5718  -2.5384  -2.5253  -2.5055  -2.4821  -2.4703  -2.4579
    -2.4514  -2.4101  -2.4014  -2.3715  -2.3560  -2.3423  -2.3153  -2.2792
    -2.2733  -2.2685  -2.2236  -2.2099  -2.1872  -2.1753  -2.1515  -2.1390
    -2.1070  -2.0861  -2.0710  -2.0665  -2.0501  -2.0369  -2.0265  -2.0206
    -1.9939  -1.9505  -1.9373  -1.9172  -1.9051  -1.8880  -1.8826  -1.8651
    -1.8382  -1.8329  -1.8279  -1.8207  -1.7912  -1.7144  -1.7070  -1.6774
    -1.6703  -1.6510  -1.6319  -1.6271  -1.6144  -1.6054  -1.5886  -1.5802
    -1.5509  -1.5480  -1.5014  -1.4886  -1.4637  -1.4535  -1.4475  -1.4216
    -1.4025  -1.3918  -1.3826  -1.3615  -1.3567  -1.3299  -1.3044  -1.2959
    -1.2319  -1.2242  -1.1710  -1.1478  -1.1309  -1.1306  -1.0939  -1.0566
    -1.0371  -0.9940  -0.9280  -0.8620  -0.7286  -0.7178  -0.6263  -0.5733
    -0.5225  -0.5082  -0.3557  -0.2493   0.1810   0.2167   0.2388   0.2488
     0.2989   0.3099   0.3217   0.3307   0.3479   0.3597   0.3674   0.3705
     0.3779   0.3876   0.3999   0.4015   0.4060   0.4167   0.4209   0.4278
     0.4360   0.4410   0.4643   0.4670   0.4776   0.4843   0.4905   0.4936
     0.4990   0.4994   0.5102   0.5169   0.5239   0.5338   0.5381   0.5403
     0.5427   0.5663   0.5702   0.5747   0.5983   0.6011   0.6177   0.6206
     0.6274   0.6353   0.6444   0.6478   0.6540   0.6639   0.6655   0.6799
     0.6829   0.6863   0.7002   0.7055   0.7148   0.7163   0.7222   0.7344
     0.7440   0.7514   0.7666   0.7674   0.7789   0.7857   0.7951   0.8104
     0.8122   0.8286   0.8506   0.8581   0.8649   0.8684   0.8713   0.8785
     0.8854   0.9060   0.9102   0.9156   0.9221   0.9538   0.9679   0.9828
     0.9875   1.0360   1.0866   1.1130   1.1238   1.6874   1.7370   1.7488
     1.7760   1.8016   1.8125   1.8188   1.8245   1.8430   1.9107   1.9213
     1.9350   1.9721   1.9820   2.0075   2.0429   2.0478   2.0865   2.0927
     2.1386   2.1454   2.1753   2.1926   2.1974   2.2008   2.2119   2.2355
     2.2445   2.2766   2.2864   2.3066   2.3145   2.3263   2.3452   2.3584
     2.3739   2.3825   2.3881   2.4094   2.4180   2.4230   2.4410   2.4911
     2.5282   2.5331   2.5403   2.5496   2.5540   2.5789   2.5971   2.6177
     2.6629   2.6818   2.7013   2.7077   2.7283   2.8031   2.8065   2.8731
     2.8774   2.8911   3.7085   3.7221   3.7256   3.7846   3.7870   3.7990
     3.9069   3.9337   3.9595   3.9606   3.9835   4.0014   4.0120   4.0385
     4.0548   4.0612   4.1464   4.1485   4.1607   4.1820   4.6617   4.7170
     4.7955   4.8577   4.8845   4.9138   4.9388   4.9705   5.0433   5.0980
     5.1186   5.1488   5.4257   6.2436   6.3752   6.6150   6.6589   6.7608
     6.8110   6.8868   6.8921   6.9228   7.0232   7.0830   7.0930   7.1357
     7.2675   7.3487   7.3565   7.4360   7.4821   7.5357   7.5877   7.6318
     7.6407   7.6805   7.7379   7.7614   7.8106   7.8846   7.9007   7.9101
     8.0170   8.0293   8.0660   8.0923   8.1156   8.1796   8.1904   8.2098
     8.2642   8.2865   8.3049   8.3334   8.3802   8.4263   8.4307   8.4501
     8.4674   8.4794   8.4974   8.5270   8.5561   8.5742   8.6008   8.6220
     8.6657   8.6851   8.7247   8.7515   8.7797   8.7854   8.8293   8.8606

     the Fermi energy is     1.6613 ev

!    total energy              =   -7738.31685719 Ry
     estimated scf accuracy    <       0.00000091 Ry
     smearing contrib. (-TS)   =      -0.02219680 Ry
     internal energy E=F+TS    =   -7738.29466039 Ry

     The total energy is F=E-TS. E is the sum of the following terms:
     one-electron contribution =  -94722.69969673 Ry
     hartree contribution      =   47978.64376583 Ry
     xc contribution           =   -2218.72488746 Ry
     ewald contribution        =   41226.29370146 Ry
     Dispersion Correction     =      -1.80760009 Ry
     electric field correction =       0.00005661 Ry

     total magnetization       =    88.65 Bohr mag/cell
     absolute magnetization    =    90.03 Bohr mag/cell

     convergence has been achieved in  70 iterations

     negative rho (up, down):  1.053E-03 5.887E-04

     Forces acting on atoms (cartesian axes, Ry/au):

     atom    1 type  1   force =     0.00002506    0.00083629    0.00045977
     atom    2 type  2   force =     0.00043104   -0.00010495   -0.00069195
     atom    3 type  1   force =    -0.00176531   -0.00141248   -0.00261539
     atom    4 type  1   force =    -0.00028965   -0.00006070    0.00014472
     atom    5 type  1   force =     0.00086720    0.00018884   -0.00016287
     atom    6 type  1   force =    -0.00010133   -0.00006632   -0.00071558
     atom    7 type  3   force =    -0.00044275    0.00011411    0.00047038
     atom    8 type  3   force =     0.00009896   -0.00044601   -0.00005187
     atom    9 type  3   force =    -0.00050716   -0.00021133    0.00022662
     atom   10 type  3   force =     0.00017447   -0.00014934   -0.00019808
     atom   11 type  4   force =    -0.00072365   -0.00009242    0.00037278
     atom   12 type  4   force =    -0.00000874   -0.00024021    0.00039962
     atom   13 type  4   force =    -0.00061417   -0.00031742    0.00059388
     atom   14 type  4   force =     0.00039984   -0.00003808   -0.00033189
     atom   15 type  4   force =     0.00041377    0.00006550    0.00001937
     atom   16 type  4   force =     0.00002523    0.00024507    0.00017848
     atom   17 type  4   force =     0.00026278    0.00022192    0.00072953
     atom   18 type  4   force =     0.00005561    0.00011111   -0.00019702
     atom   19 type  4   force =    -0.00035046    0.00036463   -0.00012645
     atom   20 type  4   force =     0.00005337    0.00027006   -0.00024830
     atom   21 type  4   force =     0.00007854   -0.00028495    0.00015715
     atom   22 type  4   force =    -0.00035274   -0.00031035    0.00041305
     atom   23 type  4   force =    -0.00035272    0.00028097    0.00028147
     atom   24 type  4   force =     0.00085308   -0.00036401   -0.00054193
     atom   25 type  4   force =     0.00043659   -0.00028620   -0.00084260
     atom   26 type  4   force =     0.00019372    0.00026424    0.00041945
     atom   27 type  1   force =    -0.00643704   -0.00829409   -0.00428938
     atom   28 type  2   force =    -0.01213506   -0.00009414   -0.00199675
     atom   29 type  1   force =     0.00432701   -0.00258885    0.00303292
     atom   30 type  1   force =     0.00244060    0.00416392   -0.00167443
     atom   31 type  1   force =     0.00177747   -0.00471096   -0.00045617
     atom   32 type  1   force =    -0.00122885    0.00102452    0.00161660
     atom   33 type  3   force =    -0.00712214   -0.00083148   -0.00044814
     atom   34 type  3   force =    -0.00621757    0.00319094   -0.00199918
     atom   35 type  3   force =     0.00408524   -0.00002184   -0.00411589
     atom   36 type  3   force =     0.00103996   -0.00132230    0.00297415
     atom   37 type  4   force =     0.00877064    0.00536616   -0.00777988
     atom   38 type  4   force =     0.00366673   -0.00109401    0.02075788
     atom   39 type  4   force =    -0.00118582    0.00361383    0.01021599
     atom   40 type  4   force =    -0.00165808   -0.00224426   -0.00900093
     atom   41 type  4   force =     0.00213828    0.00860233    0.00665283
     atom   42 type  4   force =    -0.00684058   -0.00314907   -0.01947869
     atom   43 type  4   force =     0.00944691    0.00732511   -0.00657585
     atom   44 type  4   force =     0.00716891   -0.00296766    0.00618299
     atom   45 type  4   force =     0.00220971    0.00573903   -0.00059032
     atom   46 type  4   force =     0.00334351    0.00101124    0.00495238
     atom   47 type  4   force =    -0.01303259    0.00021388    0.00332492
     atom   48 type  4   force =    -0.01443693    0.00258024   -0.00339266
     atom   49 type  4   force =     0.01305995    0.00288057   -0.00444272
     atom   50 type  4   force =    -0.00405551   -0.00383052   -0.00005089
     atom   51 type  4   force =    -0.00433783    0.00256271   -0.00062980
     atom   52 type  4   force =     0.01620179   -0.00323697    0.00422060
     atom   53 type  1   force =    -0.00752481   -0.00728565   -0.00812783
     atom   54 type  2   force =     0.01568021    0.01697012   -0.00956753
     atom   55 type  1   force =     0.00580625   -0.00468809   -0.00549341
     atom   56 type  1   force =    -0.02038601    0.01932952    0.02004625
     atom   57 type  1   force =     0.00441142   -0.00749788   -0.00102755
     atom   58 type  1   force =    -0.00386610   -0.00526680   -0.00047929
     atom   59 type  3   force =    -0.03904660   -0.03835206   -0.05606478
     atom   60 type  3   force =    -0.00486417   -0.00127818   -0.00119199
     atom   61 type  3   force =     0.00273200   -0.00100335   -0.01015536
     atom   62 type  3   force =     0.02909474   -0.04951112   -0.06061076
     atom   63 type  4   force =     0.00625543    0.00346295    0.02101260
     atom   64 type  4   force =     0.00451448    0.00228087    0.01461569
     atom   65 type  4   force =    -0.00068830    0.00294032    0.01277448
     atom   66 type  4   force =     0.00014126    0.00214304    0.01620091
     atom   67 type  4   force =     0.00102445   -0.00070906    0.03893729
     atom   68 type  4   force =    -0.00562664   -0.00400596   -0.01725743
     atom   69 type  4   force =     0.00775116    0.00444879   -0.00269190
     atom   70 type  4   force =     0.00177941   -0.00741585    0.03528081
     atom   71 type  4   force =    -0.00910342    0.03921578    0.00094845
     atom   72 type  4   force =     0.00226010   -0.00042093    0.00796834
     atom   73 type  4   force =    -0.03015233    0.00087126    0.00764712
     atom   74 type  4   force =    -0.01345895    0.00144690   -0.00039363
     atom   75 type  4   force =     0.01185287    0.00347892   -0.00249002
     atom   76 type  4   force =    -0.00236185   -0.00278546    0.00258150
     atom   77 type  4   force =     0.00913645    0.02587996   -0.00258116
     atom   78 type  4   force =     0.03360333   -0.00639034    0.00617344
     atom   79 type  1   force =    -0.00020572    0.00060224    0.00002490
     atom   80 type  2   force =     0.00013846   -0.00041926   -0.00044907
     atom   81 type  1   force =     0.00046744   -0.00001090   -0.00014164
     atom   82 type  1   force =    -0.00033326    0.00020448    0.00015345
     atom   83 type  1   force =     0.00086512    0.00017606    0.00030047
     atom   84 type  1   force =    -0.00053776   -0.00030659   -0.00084821
     atom   85 type  3   force =    -0.00036068   -0.00008191    0.00030037
     atom   86 type  3   force =    -0.00017052   -0.00008447    0.00003397
     atom   87 type  3   force =     0.00013268    0.00001423    0.00035004
     atom   88 type  3   force =     0.00063288    0.00009031   -0.00032487
     atom   89 type  4   force =    -0.00060333   -0.00040974    0.00032955
     atom   90 type  4   force =     0.00059166    0.00036528    0.00005205
     atom   91 type  4   force =    -0.00045042    0.00043694    0.00071004
     atom   92 type  4   force =     0.00015402    0.00037006   -0.00001099
     atom   93 type  4   force =     0.00008494    0.00062808   -0.00029914
     atom   94 type  4   force =     0.00000571    0.00065903    0.00029679
     atom   95 type  4   force =    -0.00011384    0.00066671    0.00048333
     atom   96 type  4   force =     0.00005144    0.00045736   -0.00009223
     atom   97 type  4   force =    -0.00068199    0.00025446   -0.00054628
     atom   98 type  4   force =    -0.00023523    0.00011020   -0.00008225
     atom   99 type  4   force =     0.00062028    0.00012831   -0.00007723
     atom  100 type  4   force =    -0.00010783    0.00036971    0.00014999
     atom  101 type  4   force =     0.00035254   -0.00008198   -0.00038666
     atom  102 type  4   force =     0.00034320   -0.00031021   -0.00062490
     atom  103 type  4   force =     0.00056178   -0.00001205   -0.00052640
     atom  104 type  4   force =    -0.00028520   -0.00007493    0.00065276
     atom  105 type  1   force =    -0.00581197   -0.00901519   -0.00453683
     atom  106 type  2   force =    -0.01210115   -0.00009627   -0.00189349
     atom  107 type  1   force =     0.00281759   -0.00395096    0.00020221
     atom  108 type  1   force =     0.00239930    0.00412586   -0.00163394
     atom  109 type  1   force =     0.00183656   -0.00470959   -0.00042935
     atom  110 type  1   force =    -0.00093695    0.00103975    0.00172029
     atom  111 type  3   force =    -0.00708155   -0.00080924   -0.00048904
     atom  112 type  3   force =    -0.00679835    0.00247733   -0.00023063
     atom  113 type  3   force =     0.00400517   -0.00062476   -0.00542252
     atom  114 type  3   force =     0.00112878   -0.00127735    0.00288636
     atom  115 type  4   force =     0.00874142    0.00509655   -0.00771435
     atom  116 type  4   force =     0.00361914   -0.00111885    0.02030745
     atom  117 type  4   force =    -0.00130011    0.00345438    0.01028983
     atom  118 type  4   force =    -0.00161793   -0.00232398   -0.00910397
     atom  119 type  4   force =     0.00216475    0.00855017    0.00651777
     atom  120 type  4   force =    -0.00549529   -0.00354053   -0.01968823
     atom  121 type  4   force =     0.00976548    0.00657423   -0.00849591
     atom  122 type  4   force =     0.00697406   -0.00294801    0.00617547
     atom  123 type  4   force =     0.00196204    0.00576349   -0.00055980
     atom  124 type  4   force =     0.00307441    0.00145377    0.00502813
     atom  125 type  4   force =    -0.01291565    0.00018865    0.00325087
     atom  126 type  4   force =    -0.01442250    0.00265230   -0.00354317
     atom  127 type  4   force =     0.01236659    0.00262517   -0.00466126
     atom  128 type  4   force =    -0.00397343   -0.00397414   -0.00049019
     atom  129 type  4   force =    -0.00433892    0.00253257   -0.00053679
     atom  130 type  4   force =     0.01628490   -0.00323448    0.00418485
     atom  131 type  1   force =    -0.00754046   -0.00730768   -0.00815299
     atom  132 type  2   force =     0.01571202    0.01697453   -0.00957956
     atom  133 type  1   force =     0.00579873   -0.00467587   -0.00549079
     atom  134 type  1   force =    -0.02039220    0.01933043    0.02004089
     atom  135 type  1   force =     0.00443511   -0.00749131   -0.00102754
     atom  136 type  1   force =    -0.00388395   -0.00527232   -0.00047820
     atom  137 type  3   force =    -0.03904324   -0.03834643   -0.05607059
     atom  138 type  3   force =    -0.00485920   -0.00127812   -0.00118027
     atom  139 type  3   force =     0.00272263   -0.00100500   -0.01016231
     atom  140 type  3   force =     0.02908796   -0.04950994   -0.06061038
     atom  141 type  4   force =     0.00619025    0.00348350    0.02108727
     atom  142 type  4   force =     0.00442124    0.00228910    0.01463642
     atom  143 type  4   force =    -0.00061291    0.00284677    0.01281426
     atom  144 type  4   force =     0.00018091    0.00223504    0.01640597
     atom  145 type  4   force =     0.00116945   -0.00071074    0.03893545
     atom  146 type  4   force =    -0.00540646   -0.00399887   -0.01727789
     atom  147 type  4   force =     0.00773931    0.00450543   -0.00284951
     atom  148 type  4   force =     0.00167266   -0.00745412    0.03533349
     atom  149 type  4   force =    -0.00930883    0.03921600    0.00094913
     atom  150 type  4   force =     0.00205491   -0.00042736    0.00797089
     atom  151 type  4   force =    -0.03004297    0.00087213    0.00765099
     atom  152 type  4   force =    -0.01356327    0.00145165   -0.00039873
     atom  153 type  4   force =     0.01200638    0.00359298   -0.00249860
     atom  154 type  4   force =    -0.00240820   -0.00267319    0.00249544
     atom  155 type  4   force =     0.00903637    0.02590868   -0.00263992
     atom  156 type  4   force =     0.03357690   -0.00619918    0.00600684
     atom  157 type  4   force =     0.00457402    0.00043179    0.00326418
     atom  158 type  5   force =    -0.00339355    0.00223580   -0.00094169

     Total force =     0.237110     Total SCF correction =     0.004445
 
     init_run     :      7.34s CPU      8.02s WALL (       1 calls)
     electrons    :    903.09s CPU    948.85s WALL (       1 calls)
     forces       :      3.62s CPU      4.00s WALL (       1 calls)
     force_london :      0.10s CPU      0.10s WALL (       1 calls)

     Called by init_run:
     wfcinit      :      4.45s CPU      4.64s WALL (       1 calls)
     potinit      :      0.58s CPU      0.78s WALL (       1 calls)
     hinit0       :      1.18s CPU      1.27s WALL (       1 calls)

     Called by electrons:
     c_bands      :    716.18s CPU    740.32s WALL (      70 calls)
     sum_band     :    117.04s CPU    128.16s WALL (      70 calls)
     v_of_rho     :     16.28s CPU     18.19s WALL (      71 calls)
     newd         :     34.28s CPU     42.98s WALL (      71 calls)
     mix_rho      :     18.36s CPU     18.45s WALL (      70 calls)
     energy_londo :      0.09s CPU      0.09s WALL (       1 calls)

     Called by c_bands:
     init_us_2    :      2.16s CPU      2.26s WALL (     284 calls)
     init_us_2:cp :      2.16s CPU      2.26s WALL (     284 calls)
     regterg      :    701.03s CPU    724.97s WALL (     142 calls)

     Called by *egterg:
     rdiaghg      :    199.88s CPU    211.93s WALL (     558 calls)
     h_psi        :    275.43s CPU    280.85s WALL (     560 calls)
     s_psi        :     51.53s CPU     51.56s WALL (     560 calls)
     g_psi        :      0.36s CPU      0.37s WALL (     416 calls)

     Called by h_psi:
     h_psi:calbec :     68.66s CPU     72.88s WALL (     560 calls)
     vloc_psi     :    154.66s CPU    155.31s WALL (     560 calls)
     add_vuspsi   :     51.41s CPU     51.93s WALL (     560 calls)

     General routines
     calbec       :    100.99s CPU    107.32s WALL (     708 calls)
     fft          :     13.88s CPU     16.37s WALL (    1291 calls)
     ffts         :     11.74s CPU     11.77s WALL (    8699 calls)
     fftw         :    174.02s CPU    174.71s WALL (  239540 calls)
     interpolate  :      1.51s CPU      1.60s WALL (     142 calls)
 
     Parallel routines
 
     PWSCF        :  15m16.11s CPU  16m 3.19s WALL

 
   This run was terminated on:   0: 5:19  18Nov2025            

=------------------------------------------------------------------------------=
   JOB DONE.
=------------------------------------------------------------------------------=
