
     Program PWSCF v.7.2 starts on 17Nov2025 at 23:18:27 

     This program is part of the open-source Quantum ESPRESSO suite
     for quantum simulation of materials; please cite
         "P. Giannozzi et al., J. Phys.:Condens. Matter 21 395502 (2009);
         "P. Giannozzi et al., J. Phys.:Condens. Matter 29 465901 (2017);
         "P. Giannozzi et al., J. Chem. Phys. 152 154105 (2020);
          URL http://www.quantum-espresso.org", 
     in publications or presentations arising from this work. More details at
     http://www.quantum-espresso.org/quote

     Parallel version (MPI), running on    64 processors

     MPI processes distributed on     4 nodes
     447292 MiB available memory on the printing compute node when the environment starts
 
     Reading input from PWINPUT_atm157_zp

     Current dimensions of program PWSCF are:
     Max number of different atomic species (ntypx) = 10
     Max number of k-points (npk) =  40000
     Max angular momentum in pseudopotentials (lmaxx) =  4
     Presently no symmetry can be used with electric field

     file Ni.pbe-n-rrkjus_psl.1.0.0.UPF: wavefunction(s)  3D renormalized
     file Mn.pbe-spn-rrkjus_psl.0.3.1.UPF: wavefunction(s)  3D renormalized
     file O.pbe-rrkjus.UPF: wavefunction(s)  2S renormalized
     file H.pbe-rrkjus.UPF: wavefunction(s)  1S renormalized

     gamma-point specific algorithms are used
 
     R & G space division:  proc/nbgrp/npool/nimage =      64
     Subspace diagonalization in iterative solution of the eigenvalue problem:
     one sub-group per band group will be used
     custom distributed-memory algorithm (size of sub-group:  7*  7 procs)

 
     Parallelization info
     --------------------
     sticks:   dense  smooth     PW     G-vecs:    dense   smooth      PW
     Min         207      82     20                60552    15302    1896
     Max         210      84     22                60574    15336    1950
     Sum       13325    5345   1333              3876045   980655  122653
 
     Using Slab Decomposition
 


     bravais-lattice index     =            0
     lattice parameter (alat)  =      17.4067  a.u.
     unit-cell volume          =   20529.8182 (a.u.)^3
     number of atoms/cell      =          158
     number of atomic types    =            5
     number of electrons       =      1093.00
     number of Kohn-Sham states=          656
     kinetic-energy cutoff     =      50.0000  Ry
     charge density cutoff     =     500.0000  Ry
     scf convergence threshold =      1.0E-06
     mixing beta               =       0.1000
     number of iterations used =            8  local-TF  mixing
     Exchange-correlation=  SLA  PW   PBE  PBE
                           (   1   4   3   4   0   0   0)

     celldm(1)=  17.406729  celldm(2)=   0.000000  celldm(3)=   0.000000
     celldm(4)=   0.000000  celldm(5)=   0.000000  celldm(6)=   0.000000

     crystal axes: (cart. coord. in units of alat)
               a(1) = (   1.000000   0.000000   0.000000 )  
               a(2) = (  -0.001404   1.105696   0.000000 )  
               a(3) = (   0.000000   0.000000   3.520448 )  

     reciprocal axes: (cart. coord. in units 2 pi/alat)
               b(1) = (  1.000000  0.001270  0.000000 )  
               b(2) = (  0.000000  0.904408  0.000000 )  
               b(3) = (  0.000000  0.000000  0.284055 )  


     PseudoPot. # 1 for Ni read from file:
     ~/PSEUDO/Ni.pbe-n-rrkjus_psl.1.0.0.UPF
     MD5 check sum: Not computed, couldn't open file
     Pseudo is Ultrasoft + core correction, Zval = 10.0
     Generated using "atomic" code by A. Dal Corso  v.5.1.2
     Using radial grid of 1195 points,  6 beta functions with: 
                l(1) =   0
                l(2) =   0
                l(3) =   1
                l(4) =   1
                l(5) =   2
                l(6) =   2
     Q(r) pseudized with 0 coefficients 


     PseudoPot. # 2 for Mn read from file:
     ~/PSEUDO/Mn.pbe-spn-rrkjus_psl.0.3.1.UPF
     MD5 check sum: Not computed, couldn't open file
     Pseudo is Ultrasoft + core correction, Zval = 15.0
     Generated using &quot;atomic&quot; code by A. Dal Corso  v.6.2.2
     Using radial grid of 1187 points,  6 beta functions with: 
                l(1) =   0
                l(2) =   0
                l(3) =   1
                l(4) =   1
                l(5) =   2
                l(6) =   2
     Q(r) pseudized with 0 coefficients 


     PseudoPot. # 3 for P  read from file:
     ~/PSEUDO/P.pbe-n-rrkjus_psl.1.0.0.UPF
     MD5 check sum: Not computed, couldn't open file
     Pseudo is Ultrasoft + core correction, Zval =  5.0
     Generated using "atomic" code by A. Dal Corso  v.5.1
     Using radial grid of 1147 points,  6 beta functions with: 
                l(1) =   0
                l(2) =   0
                l(3) =   1
                l(4) =   1
                l(5) =   2
                l(6) =   2
     Q(r) pseudized with 0 coefficients 


     PseudoPot. # 4 for O  read from file:
     ~/PSEUDO/O.pbe-rrkjus.UPF
     MD5 check sum: Not computed, couldn't open file
     Pseudo is Ultrasoft, Zval =  6.0
     Generated by new atomic code, or converted to UPF format
     Using radial grid of 1269 points,  4 beta functions with: 
                l(1) =   0
                l(2) =   0
                l(3) =   1
                l(4) =   1
     Q(r) pseudized with 0 coefficients 


     PseudoPot. # 5 for H  read from file:
     ~/PSEUDO/H.pbe-rrkjus.UPF
     MD5 check sum: Not computed, couldn't open file
     Pseudo is Ultrasoft, Zval =  1.0
     Generated by new atomic code, or converted to UPF format
     Using radial grid of 1061 points,  2 beta functions with: 
                l(1) =   0
                l(2) =   0
     Q(r) pseudized with 0 coefficients 


     atomic species   valence    mass     pseudopotential
     Ni               10.00    58.69300     Ni( 1.00)
     Mn               15.00    54.93800     Mn( 1.00)
     P                 5.00    30.97300     P ( 1.00)
     O                 6.00    15.99900     O ( 1.00)
     H                 1.00     1.00790     H ( 1.00)

     Starting magnetic structure 
     atomic species   magnetization
     Ni              1.000
     Mn              1.000
     P               1.000
     O               1.000
     H               0.000

     No symmetry found



   Cartesian axes

     site n.     atom                  positions (alat units)
         1        Ni     tau(   1) = (   0.2506570   0.8586301   1.7460606  )
         2        Mn     tau(   2) = (   0.4849727   0.7922569   1.4298438  )
         3        Ni     tau(   3) = (   0.0099166   0.3147980   1.7770697  )
         4        Ni     tau(   4) = (   0.2559633   0.2443239   1.4306739  )
         5        Ni     tau(   5) = (   0.4961466   1.1064648   1.5948314  )
         6        Ni     tau(   6) = (   0.2497854   0.5481636   1.6051322  )
         7        P      tau(   7) = (   0.2072152   1.0031948   1.4309315  )
         8        P      tau(   8) = (   0.4627705   0.6639515   1.7680067  )
         9        P      tau(   9) = (   0.2880368   0.1077753   1.7607118  )
        10        P      tau(  10) = (   0.0387468   0.4409683   1.4352442  )
        11        O      tau(  11) = (   0.1330935   0.9304818   1.5706977  )
        12        O      tau(  12) = (   0.3831504   0.7264978   1.6204600  )
        13        O      tau(  13) = (   0.3628275   0.1744689   1.6127481  )
        14        O      tau(  14) = (   0.1155931   0.3681480   1.5734176  )
        15        O      tau(  15) = (   0.1485558   0.9123257   1.3024039  )
        16        O      tau(  16) = (   0.3999411   0.7624960   1.8844666  )
        17        O      tau(  17) = (   0.3533233   0.2035263   1.8795646  )
        18        O      tau(  18) = (   0.0986482   0.3547482   1.3039728  )
        19        O      tau(  19) = (   0.0982500   0.5998695   1.4410699  )
        20        O      tau(  20) = (   0.3443251   1.0535330   1.7571523  )
        21        O      tau(  21) = (   0.3728385   0.4379153   1.4465920  )
        22        O      tau(  22) = (   0.1208408   0.1132369   1.7503220  )
        23        O      tau(  23) = (   0.1278822   0.6735676   1.7463016  )
        24        O      tau(  24) = (   0.4096499   0.5020876   1.7635143  )
        25        O      tau(  25) = (   0.1476551   0.0545948   1.4347483  )
        26        O      tau(  26) = (   0.3739202   0.9939412   1.4421146  )
        27        Ni     tau(  27) = (   0.2413539   0.8509941   1.1121345  )
        28        Mn     tau(  28) = (   0.4917018   0.7787406   0.7768134  )
        29        Ni     tau(  29) = (   0.0044877   0.2932623   1.1138982  )
        30        Ni     tau(  30) = (   0.2563139   0.2275682   0.7805625  )
        31        Ni     tau(  31) = (   0.4969120   1.0949007   0.9459116  )
        32        Ni     tau(  32) = (   0.2488318   0.5341111   0.9469721  )
        33        P      tau(  33) = (   0.2076029   0.9882917   0.7835381  )
        34        P      tau(  34) = (   0.4577012   0.6460068   1.1076436  )
        35        P      tau(  35) = (   0.2881931   0.0932770   1.1104179  )
        36        P      tau(  36) = (   0.0392916   0.4238898   0.7837243  )
        37        O      tau(  37) = (   0.1306755   0.9148866   0.9233554  )
        38        O      tau(  38) = (   0.3789780   0.7172835   0.9680652  )
        39        O      tau(  39) = (   0.3654852   0.1662865   0.9702638  )
        40        O      tau(  40) = (   0.1163776   0.3546954   0.9254186  )
        41        O      tau(  41) = (   0.1502901   0.8969129   0.6541592  )
        42        O      tau(  42) = (   0.3974525   0.7354243   1.2370031  )
        43        O      tau(  43) = (   0.3483097   0.1789497   1.2412670  )
        44        O      tau(  44) = (   0.0974932   0.3376387   0.6529083  )
        45        O      tau(  45) = (   0.0984699   0.5818903   0.7881021  )
        46        O      tau(  46) = (   0.3459978   1.0405493   1.1018526  )
        47        O      tau(  47) = (   0.3731719   0.4204123   0.7945555  )
        48        O      tau(  48) = (   0.1223503   0.0989699   1.1000566  )
        49        O      tau(  49) = (   0.1235438   0.6536772   1.0980598  )
        50        O      tau(  50) = (   0.4004339   0.4872435   1.1047245  )
        51        O      tau(  51) = (   0.1476543   0.0398268   0.7872561  )
        52        O      tau(  52) = (   0.3728637   0.9843360   0.7931368  )
        53        Ni     tau(  53) = (   0.2406075   0.8410745   0.4603118  )
        54        Mn     tau(  54) = (   0.4909555   0.7688210   0.1249907  )
        55        Ni     tau(  55) = (   0.0037414   0.2833427   0.4620755  )
        56        Ni     tau(  56) = (   0.2555676   0.2176485   0.1287398  )
        57        Ni     tau(  57) = (   0.4961657   1.0849810   0.2940889  )
        58        Ni     tau(  58) = (   0.2480854   0.5241915   0.2951494  )
        59        P      tau(  59) = (   0.2068565   0.9783721   0.1317154  )
        60        P      tau(  60) = (   0.4569549   0.6360871   0.4558210  )
        61        P      tau(  61) = (   0.2874467   0.0833574   0.4585952  )
        62        P      tau(  62) = (   0.0385452   0.4139702   0.1319017  )
        63        O      tau(  63) = (   0.1299291   0.9049669   0.2715327  )
        64        O      tau(  64) = (   0.3782317   0.7073639   0.3162425  )
        65        O      tau(  65) = (   0.3647389   0.1563669   0.3184411  )
        66        O      tau(  66) = (   0.1156313   0.3447757   0.2735959  )
        67        O      tau(  67) = (   0.1495437   0.8869933   0.0023366  )
        68        O      tau(  68) = (   0.3967062   0.7255047   0.5851804  )
        69        O      tau(  69) = (   0.3475634   0.1690300   0.5894443  )
        70        O      tau(  70) = (   0.0967469   0.3277190   0.0010856  )
        71        O      tau(  71) = (   0.0977236   0.5719706   0.1362794  )
        72        O      tau(  72) = (   0.3452514   1.0306297   0.4500300  )
        73        O      tau(  73) = (   0.3724256   0.4104926   0.1427328  )
        74        O      tau(  74) = (   0.1216040   0.0890503   0.4482339  )
        75        O      tau(  75) = (   0.1227974   0.6437575   0.4462371  )
        76        O      tau(  76) = (   0.3996875   0.4773239   0.4529018  )
        77        O      tau(  77) = (   0.1469079   0.0299071   0.1354334  )
        78        O      tau(  78) = (   0.3721173   0.9744163   0.1413141  )
        79        Ni     tau(  79) = (   0.7512968   0.8629757   1.7463792  )
        80        Mn     tau(  80) = (   0.9856283   0.7922987   1.4298132  )
        81        Ni     tau(  81) = (   0.4994156   0.3046718   1.7432553  )
        82        Ni     tau(  82) = (   0.7561331   0.2436078   1.4290244  )
        83        Ni     tau(  83) = (   0.9969098   1.1094576   1.5975923  )
        84        Ni     tau(  84) = (   0.7520413   0.5511724   1.6011549  )
        85        P      tau(  85) = (   0.7080384   1.0032090   1.4301353  )
        86        P      tau(  86) = (   0.9611635   0.6679249   1.7676684  )
        87        P      tau(  87) = (   0.7866251   0.1146576   1.7538485  )
        88        P      tau(  88) = (   0.5392440   0.4429935   1.4323773  )
        89        O      tau(  89) = (   0.6332873   0.9305214   1.5700818  )
        90        O      tau(  90) = (   0.8817828   0.7322621   1.6197895  )
        91        O      tau(  91) = (   0.8630260   0.1746843   1.6073185  )
        92        O      tau(  92) = (   0.6180632   0.3716942   1.5710585  )
        93        O      tau(  93) = (   0.6497195   0.9106468   1.3026397  )
        94        O      tau(  94) = (   0.9019451   0.7695149   1.8836030  )
        95        O      tau(  95) = (   0.8435869   0.2142205   1.8732697  )
        96        O      tau(  96) = (   0.5989220   0.3556149   1.3022932  )
        97        O      tau(  97) = (   0.5988978   0.6014494   1.4382358  )
        98        O      tau(  98) = (   0.8418133   1.0593846   1.7579884  )
        99        O      tau(  99) = (   0.8718788   0.4384067   1.4450747  )
       100        O      tau( 100) = (   0.6185655   0.1172295   1.7419182  )
       101        O      tau( 101) = (   0.6296522   0.6725592   1.7491468  )
       102        O      tau( 102) = (   0.9012154   0.5091499   1.7607365  )
       103        O      tau( 103) = (   0.6461684   0.0538532   1.4316752  )
       104        O      tau( 104) = (   0.8745741   0.9956699   1.4422503  )
       105        Ni     tau( 105) = (   0.7413539   0.8509941   1.1121345  )
       106        Mn     tau( 106) = (   0.9917018   0.7787406   0.7768134  )
       107        Ni     tau( 107) = (   0.5044877   0.2932623   1.1138982  )
       108        Ni     tau( 108) = (   0.7563139   0.2275682   0.7805625  )
       109        Ni     tau( 109) = (   0.9969120   1.0949007   0.9459116  )
       110        Ni     tau( 110) = (   0.7488318   0.5341111   0.9469721  )
       111        P      tau( 111) = (   0.7076029   0.9882917   0.7835381  )
       112        P      tau( 112) = (   0.9577012   0.6460068   1.1076436  )
       113        P      tau( 113) = (   0.7881931   0.0932770   1.1104179  )
       114        P      tau( 114) = (   0.5392916   0.4238898   0.7837243  )
       115        O      tau( 115) = (   0.6306755   0.9148866   0.9233554  )
       116        O      tau( 116) = (   0.8789780   0.7172835   0.9680652  )
       117        O      tau( 117) = (   0.8654852   0.1662865   0.9702638  )
       118        O      tau( 118) = (   0.6163776   0.3546954   0.9254186  )
       119        O      tau( 119) = (   0.6502901   0.8969129   0.6541592  )
       120        O      tau( 120) = (   0.8974525   0.7354243   1.2370031  )
       121        O      tau( 121) = (   0.8483097   0.1789497   1.2412670  )
       122        O      tau( 122) = (   0.5974932   0.3376387   0.6529083  )
       123        O      tau( 123) = (   0.5984699   0.5818903   0.7881021  )
       124        O      tau( 124) = (   0.8459978   1.0405493   1.1018526  )
       125        O      tau( 125) = (   0.8731719   0.4204123   0.7945555  )
       126        O      tau( 126) = (   0.6223503   0.0989699   1.1000566  )
       127        O      tau( 127) = (   0.6235438   0.6536772   1.0980598  )
       128        O      tau( 128) = (   0.9004339   0.4872435   1.1047245  )
       129        O      tau( 129) = (   0.6476543   0.0398268   0.7872561  )
       130        O      tau( 130) = (   0.8728637   0.9843360   0.7931368  )
       131        Ni     tau( 131) = (   0.7406075   0.8410745   0.4603118  )
       132        Mn     tau( 132) = (   0.9909555   0.7688210   0.1249907  )
       133        Ni     tau( 133) = (   0.5037414   0.2833427   0.4620755  )
       134        Ni     tau( 134) = (   0.7555676   0.2176485   0.1287398  )
       135        Ni     tau( 135) = (   0.9961657   1.0849810   0.2940889  )
       136        Ni     tau( 136) = (   0.7480854   0.5241915   0.2951494  )
       137        P      tau( 137) = (   0.7068565   0.9783721   0.1317154  )
       138        P      tau( 138) = (   0.9569549   0.6360871   0.4558210  )
       139        P      tau( 139) = (   0.7874467   0.0833574   0.4585952  )
       140        P      tau( 140) = (   0.5385452   0.4139702   0.1319017  )
       141        O      tau( 141) = (   0.6299291   0.9049669   0.2715327  )
       142        O      tau( 142) = (   0.8782317   0.7073639   0.3162425  )
       143        O      tau( 143) = (   0.8647389   0.1563669   0.3184411  )
       144        O      tau( 144) = (   0.6156313   0.3447757   0.2735959  )
       145        O      tau( 145) = (   0.6495437   0.8869933   0.0023366  )
       146        O      tau( 146) = (   0.8967062   0.7255047   0.5851804  )
       147        O      tau( 147) = (   0.8475634   0.1690300   0.5894443  )
       148        O      tau( 148) = (   0.5967469   0.3277190   0.0010856  )
       149        O      tau( 149) = (   0.5977236   0.5719706   0.1362794  )
       150        O      tau( 150) = (   0.8452514   1.0306297   0.4500300  )
       151        O      tau( 151) = (   0.8724256   0.4104926   0.1427328  )
       152        O      tau( 152) = (   0.6216040   0.0890503   0.4482339  )
       153        O      tau( 153) = (   0.6227974   0.6437575   0.4462371  )
       154        O      tau( 154) = (   0.8996875   0.4773239   0.4529018  )
       155        O      tau( 155) = (   0.6469079   0.0299071   0.1354334  )
       156        O      tau( 156) = (   0.8721173   0.9744163   0.1413141  )
       157        O      tau( 157) = (   0.1278368   0.3974856   1.9126902  )
       158        H      tau( 158) = (   0.2123993   0.3350718   1.9350536  )

     -------------------------------------------------
     Parameters for Dispersion (Grimme-D2) Correction:
     -------------------------------------------------
       atom      VdW radius       C_6     

        Ni         2.952        374.666
        Mn         2.952        374.666
        P          3.222        271.980
        O          2.536         24.284
        H          1.892          4.857

     number of k points=     1  Gaussian smearing, width (Ry)=  0.0100
                       cart. coord. in units 2pi/alat
        k(    1) = (   0.0000000   0.0000000   0.0000000), wk =   1.0000000

     Dense  grid:  1938023 G-vectors     FFT dimensions: ( 125, 144, 450)

     Smooth grid:   490328 G-vectors     FFT dimensions: (  80,  90, 288)

     Estimated max dynamical RAM per process >     326.29 MB

     Estimated total dynamical RAM >      20.39 GB

     Check: negative core charge=   -0.000001
     Generating pointlists ...
     new r_m :   0.0816 (alat units)  1.4204 (a.u.) for type    1
     new r_m :   0.0904 (alat units)  1.5744 (a.u.) for type    2
     new r_m :   0.0681 (alat units)  1.1847 (a.u.) for type    3
     new r_m :   0.0443 (alat units)  0.7716 (a.u.) for type    4
     new r_m :   0.0443 (alat units)  0.7716 (a.u.) for type    5

     Initial potential from superposition of free atoms

     starting charge    1092.8893, renormalised to    1093.0000

     negative rho (up, down):  1.398E-03 4.538E-04
 
     Adding external electric field

     Computed dipole along edir(3) : 
        Dipole                1.6505 Ry au,          4.1952 Debye
        Dipole field          0.0010 Ry au, 
 
        Potential amp.       -0.1114 Ry
        Total length         55.1515 bohr
 
 
     Adding external electric field

     Computed dipole along edir(3) : 
        Dipole                1.6505 Ry au,          4.1952 Debye
        Dipole field          0.0010 Ry au, 
 
        Potential amp.       -0.1114 Ry
        Total length         55.1515 bohr
 
     Starting wfcs are  815 randomized atomic wfcs

     total cpu time spent up to now is       10.6 secs

     Self-consistent Calculation

     iteration #  1     ecut=    50.00 Ry     beta= 0.10
     Davidson diagonalization with overlap
     ethr =  1.00E-02,  avg # of iterations =  6.0

     negative rho (up, down):  3.868E-01 3.264E-06
 
     Adding external electric field

     Computed dipole along edir(3) : 
        Dipole               -3.6322 Ry au,         -9.2320 Debye
        Dipole field         -0.0022 Ry au, 
 
        Potential amp.        0.2452 Ry
        Total length         55.1515 bohr
 
 
     Adding external electric field

     Computed dipole along edir(3) : 
        Dipole               -3.6322 Ry au,         -9.2320 Debye
        Dipole field         -0.0022 Ry au, 
 
        Potential amp.        0.2452 Ry
        Total length         55.1515 bohr
 

     total cpu time spent up to now is       38.9 secs

     total energy              =   -7519.12397326 Ry
     estimated scf accuracy    <     800.79104326 Ry

     total magnetization       =   219.00 Bohr mag/cell
     absolute magnetization    =   307.26 Bohr mag/cell

     iteration #  2     ecut=    50.00 Ry     beta= 0.10
     Davidson diagonalization with overlap
     ethr =  1.00E-02,  avg # of iterations =  2.0

     negative rho (up, down):  3.630E-01 1.753E-06
 
     Adding external electric field

     Computed dipole along edir(3) : 
        Dipole               -2.4779 Ry au,         -6.2983 Debye
        Dipole field         -0.0015 Ry au, 
 
        Potential amp.        0.1673 Ry
        Total length         55.1515 bohr
 
 
     Adding external electric field

     Computed dipole along edir(3) : 
        Dipole               -2.4779 Ry au,         -6.2983 Debye
        Dipole field         -0.0015 Ry au, 
 
        Potential amp.        0.1673 Ry
        Total length         55.1515 bohr
 

     total cpu time spent up to now is       55.2 secs

     total energy              =   -7601.20775722 Ry
     estimated scf accuracy    <     204.38315394 Ry

     total magnetization       =   157.27 Bohr mag/cell
     absolute magnetization    =   206.04 Bohr mag/cell

     iteration #  3     ecut=    50.00 Ry     beta= 0.10
     Davidson diagonalization with overlap
     ethr =  1.00E-02,  avg # of iterations =  1.5

     negative rho (up, down):  3.226E-01 1.986E-06
 
     Adding external electric field

     Computed dipole along edir(3) : 
        Dipole               -2.1164 Ry au,         -5.3794 Debye
        Dipole field         -0.0013 Ry au, 
 
        Potential amp.        0.1429 Ry
        Total length         55.1515 bohr
 
 
     Adding external electric field

     Computed dipole along edir(3) : 
        Dipole               -2.1164 Ry au,         -5.3794 Debye
        Dipole field         -0.0013 Ry au, 
 
        Potential amp.        0.1429 Ry
        Total length         55.1515 bohr
 

     total cpu time spent up to now is       69.0 secs

     total energy              =   -7631.53661310 Ry
     estimated scf accuracy    <     103.13942713 Ry

     total magnetization       =   133.83 Bohr mag/cell
     absolute magnetization    =   184.51 Bohr mag/cell

     iteration #  4     ecut=    50.00 Ry     beta= 0.10
     Davidson diagonalization with overlap
     ethr =  9.44E-03,  avg # of iterations =  1.0

     negative rho (up, down):  2.515E-01 8.237E-07
 
     Adding external electric field

     Computed dipole along edir(3) : 
        Dipole               -1.9264 Ry au,         -4.8964 Debye
        Dipole field         -0.0012 Ry au, 
 
        Potential amp.        0.1301 Ry
        Total length         55.1515 bohr
 
 
     Adding external electric field

     Computed dipole along edir(3) : 
        Dipole               -1.9264 Ry au,         -4.8964 Debye
        Dipole field         -0.0012 Ry au, 
 
        Potential amp.        0.1301 Ry
        Total length         55.1515 bohr
 

     total cpu time spent up to now is       80.9 secs

     total energy              =   -7664.43438770 Ry
     estimated scf accuracy    <      81.87965117 Ry

     total magnetization       =   118.50 Bohr mag/cell
     absolute magnetization    =   170.27 Bohr mag/cell

     iteration #  5     ecut=    50.00 Ry     beta= 0.10
     Davidson diagonalization with overlap
     ethr =  7.49E-03,  avg # of iterations =  1.0

     negative rho (up, down):  2.708E-02 4.024E-07
 
     Adding external electric field

     Computed dipole along edir(3) : 
        Dipole               -1.3971 Ry au,         -3.5510 Debye
        Dipole field         -0.0009 Ry au, 
 
        Potential amp.        0.0943 Ry
        Total length         55.1515 bohr
 
 
     Adding external electric field

     Computed dipole along edir(3) : 
        Dipole               -1.3971 Ry au,         -3.5510 Debye
        Dipole field         -0.0009 Ry au, 
 
        Potential amp.        0.0943 Ry
        Total length         55.1515 bohr
 

     total cpu time spent up to now is       93.0 secs

     total energy              =   -7723.97596061 Ry
     estimated scf accuracy    <      64.96058058 Ry

     total magnetization       =    97.12 Bohr mag/cell
     absolute magnetization    =   151.64 Bohr mag/cell

     iteration #  6     ecut=    50.00 Ry     beta= 0.10
     Davidson diagonalization with overlap
     ethr =  5.94E-03,  avg # of iterations =  1.0

     negative rho (up, down):  6.362E-04 1.095E-03
 
     Adding external electric field

     Computed dipole along edir(3) : 
        Dipole               -0.9952 Ry au,         -2.5294 Debye
        Dipole field         -0.0006 Ry au, 
 
        Potential amp.        0.0672 Ry
        Total length         55.1515 bohr
 
 
     Adding external electric field

     Computed dipole along edir(3) : 
        Dipole               -0.9952 Ry au,         -2.5294 Debye
        Dipole field         -0.0006 Ry au, 
 
        Potential amp.        0.0672 Ry
        Total length         55.1515 bohr
 

     total cpu time spent up to now is      105.5 secs

     total energy              =   -7736.10387765 Ry
     estimated scf accuracy    <      13.16180831 Ry

     total magnetization       =    91.00 Bohr mag/cell
     absolute magnetization    =   123.70 Bohr mag/cell

     iteration #  7     ecut=    50.00 Ry     beta= 0.10
     Davidson diagonalization with overlap
     ethr =  1.20E-03,  avg # of iterations =  6.0

     negative rho (up, down):  6.165E-04 1.084E-03
 
     Adding external electric field

     Computed dipole along edir(3) : 
        Dipole               -0.9988 Ry au,         -2.5387 Debye
        Dipole field         -0.0006 Ry au, 
 
        Potential amp.        0.0674 Ry
        Total length         55.1515 bohr
 
 
     Adding external electric field

     Computed dipole along edir(3) : 
        Dipole               -0.9988 Ry au,         -2.5387 Debye
        Dipole field         -0.0006 Ry au, 
 
        Potential amp.        0.0674 Ry
        Total length         55.1515 bohr
 

     total cpu time spent up to now is      126.7 secs

     total energy              =   -7738.31835572 Ry
     estimated scf accuracy    <      20.94120026 Ry

     total magnetization       =    70.12 Bohr mag/cell
     absolute magnetization    =    87.20 Bohr mag/cell

     iteration #  8     ecut=    50.00 Ry     beta= 0.10
     Davidson diagonalization with overlap
     ethr =  1.20E-03,  avg # of iterations =  1.0

     negative rho (up, down):  6.038E-04 1.057E-03
 
     Adding external electric field

     Computed dipole along edir(3) : 
        Dipole               -1.0010 Ry au,         -2.5442 Debye
        Dipole field         -0.0006 Ry au, 
 
        Potential amp.        0.0676 Ry
        Total length         55.1515 bohr
 
 
     Adding external electric field

     Computed dipole along edir(3) : 
        Dipole               -1.0010 Ry au,         -2.5442 Debye
        Dipole field         -0.0006 Ry au, 
 
        Potential amp.        0.0676 Ry
        Total length         55.1515 bohr
 

     total cpu time spent up to now is      138.2 secs

     total energy              =   -7738.35481586 Ry
     estimated scf accuracy    <      20.07954880 Ry

     total magnetization       =    70.46 Bohr mag/cell
     absolute magnetization    =    87.04 Bohr mag/cell

     iteration #  9     ecut=    50.00 Ry     beta= 0.10
     Davidson diagonalization with overlap
     ethr =  1.20E-03,  avg # of iterations =  1.0

     negative rho (up, down):  4.398E-04 9.391E-04
 
     Adding external electric field

     Computed dipole along edir(3) : 
        Dipole               -1.0303 Ry au,         -2.6189 Debye
        Dipole field         -0.0006 Ry au, 
 
        Potential amp.        0.0696 Ry
        Total length         55.1515 bohr
 
 
     Adding external electric field

     Computed dipole along edir(3) : 
        Dipole               -1.0303 Ry au,         -2.6189 Debye
        Dipole field         -0.0006 Ry au, 
 
        Potential amp.        0.0696 Ry
        Total length         55.1515 bohr
 

     total cpu time spent up to now is      150.7 secs

     total energy              =   -7738.21400546 Ry
     estimated scf accuracy    <      19.59314997 Ry

     total magnetization       =    70.65 Bohr mag/cell
     absolute magnetization    =    86.91 Bohr mag/cell

     iteration # 10     ecut=    50.00 Ry     beta= 0.10
     Davidson diagonalization with overlap
     ethr =  1.20E-03,  avg # of iterations =  1.0

     negative rho (up, down):  3.233E-04 6.491E-04
 
     Adding external electric field

     Computed dipole along edir(3) : 
        Dipole               -1.1623 Ry au,         -2.9543 Debye
        Dipole field         -0.0007 Ry au, 
 
        Potential amp.        0.0785 Ry
        Total length         55.1515 bohr
 
 
     Adding external electric field

     Computed dipole along edir(3) : 
        Dipole               -1.1623 Ry au,         -2.9543 Debye
        Dipole field         -0.0007 Ry au, 
 
        Potential amp.        0.0785 Ry
        Total length         55.1515 bohr
 

     total cpu time spent up to now is      161.9 secs

     total energy              =   -7737.70670009 Ry
     estimated scf accuracy    <      15.84774485 Ry

     total magnetization       =    71.62 Bohr mag/cell
     absolute magnetization    =    86.13 Bohr mag/cell

     iteration # 11     ecut=    50.00 Ry     beta= 0.10
     Davidson diagonalization with overlap
     ethr =  1.20E-03,  avg # of iterations =  1.5

     negative rho (up, down):  2.738E-04 6.209E-04
 
     Adding external electric field

     Computed dipole along edir(3) : 
        Dipole               -1.1325 Ry au,         -2.8786 Debye
        Dipole field         -0.0007 Ry au, 
 
        Potential amp.        0.0765 Ry
        Total length         55.1515 bohr
 
 
     Adding external electric field

     Computed dipole along edir(3) : 
        Dipole               -1.1325 Ry au,         -2.8786 Debye
        Dipole field         -0.0007 Ry au, 
 
        Potential amp.        0.0765 Ry
        Total length         55.1515 bohr
 

     total cpu time spent up to now is      174.6 secs

     total energy              =   -7738.14273040 Ry
     estimated scf accuracy    <       7.12135675 Ry

     total magnetization       =    83.00 Bohr mag/cell
     absolute magnetization    =    92.27 Bohr mag/cell

     iteration # 12     ecut=    50.00 Ry     beta= 0.10
     Davidson diagonalization with overlap
     ethr =  6.52E-04,  avg # of iterations =  1.5

     negative rho (up, down):  2.752E-04 6.716E-04
 
     Adding external electric field

     Computed dipole along edir(3) : 
        Dipole               -1.1205 Ry au,         -2.8480 Debye
        Dipole field         -0.0007 Ry au, 
 
        Potential amp.        0.0757 Ry
        Total length         55.1515 bohr
 
 
     Adding external electric field

     Computed dipole along edir(3) : 
        Dipole               -1.1205 Ry au,         -2.8480 Debye
        Dipole field         -0.0007 Ry au, 
 
        Potential amp.        0.0757 Ry
        Total length         55.1515 bohr
 

     total cpu time spent up to now is      186.6 secs

     total energy              =   -7738.14603978 Ry
     estimated scf accuracy    <       6.73777516 Ry

     total magnetization       =    82.98 Bohr mag/cell
     absolute magnetization    =    92.17 Bohr mag/cell

     iteration # 13     ecut=    50.00 Ry     beta= 0.10
     Davidson diagonalization with overlap
     ethr =  6.16E-04,  avg # of iterations =  1.0

     negative rho (up, down):  2.918E-04 7.843E-04
 
     Adding external electric field

     Computed dipole along edir(3) : 
        Dipole               -1.1535 Ry au,         -2.9318 Debye
        Dipole field         -0.0007 Ry au, 
 
        Potential amp.        0.0779 Ry
        Total length         55.1515 bohr
 
 
     Adding external electric field

     Computed dipole along edir(3) : 
        Dipole               -1.1535 Ry au,         -2.9318 Debye
        Dipole field         -0.0007 Ry au, 
 
        Potential amp.        0.0779 Ry
        Total length         55.1515 bohr
 

     total cpu time spent up to now is      198.3 secs

     total energy              =   -7738.15400335 Ry
     estimated scf accuracy    <       7.19035444 Ry

     total magnetization       =    82.53 Bohr mag/cell
     absolute magnetization    =    92.00 Bohr mag/cell

     iteration # 14     ecut=    50.00 Ry     beta= 0.10
     Davidson diagonalization with overlap
     ethr =  6.16E-04,  avg # of iterations =  1.5

     negative rho (up, down):  1.824E-03 2.356E-03
 
     Adding external electric field

     Computed dipole along edir(3) : 
        Dipole               -1.2671 Ry au,         -3.2206 Debye
        Dipole field         -0.0008 Ry au, 
 
        Potential amp.        0.0855 Ry
        Total length         55.1515 bohr
 
 
     Adding external electric field

     Computed dipole along edir(3) : 
        Dipole               -1.2671 Ry au,         -3.2206 Debye
        Dipole field         -0.0008 Ry au, 
 
        Potential amp.        0.0855 Ry
        Total length         55.1515 bohr
 

     total cpu time spent up to now is      209.9 secs

     total energy              =   -7738.31636178 Ry
     estimated scf accuracy    <       5.80422540 Ry

     total magnetization       =    83.41 Bohr mag/cell
     absolute magnetization    =    91.07 Bohr mag/cell

     iteration # 15     ecut=    50.00 Ry     beta= 0.10
     Davidson diagonalization with overlap
     ethr =  5.31E-04,  avg # of iterations =  1.5

     negative rho (up, down):  1.913E-03 3.307E-03
 
     Adding external electric field

     Computed dipole along edir(3) : 
        Dipole               -1.2663 Ry au,         -3.2187 Debye
        Dipole field         -0.0008 Ry au, 
 
        Potential amp.        0.0855 Ry
        Total length         55.1515 bohr
 
 
     Adding external electric field

     Computed dipole along edir(3) : 
        Dipole               -1.2663 Ry au,         -3.2187 Debye
        Dipole field         -0.0008 Ry au, 
 
        Potential amp.        0.0855 Ry
        Total length         55.1515 bohr
 

     total cpu time spent up to now is      221.9 secs

     total energy              =   -7738.84334256 Ry
     estimated scf accuracy    <      26.65048556 Ry

     total magnetization       =    84.88 Bohr mag/cell
     absolute magnetization    =    89.66 Bohr mag/cell

     iteration # 16     ecut=    50.00 Ry     beta= 0.10
     Davidson diagonalization with overlap
     ethr =  5.31E-04,  avg # of iterations =  1.0

     negative rho (up, down):  2.292E-03 3.073E-03
 
     Adding external electric field

     Computed dipole along edir(3) : 
        Dipole               -1.2993 Ry au,         -3.3026 Debye
        Dipole field         -0.0008 Ry au, 
 
        Potential amp.        0.0877 Ry
        Total length         55.1515 bohr
 
 
     Adding external electric field

     Computed dipole along edir(3) : 
        Dipole               -1.2993 Ry au,         -3.3026 Debye
        Dipole field         -0.0008 Ry au, 
 
        Potential amp.        0.0877 Ry
        Total length         55.1515 bohr
 

     total cpu time spent up to now is      233.6 secs

     total energy              =   -7739.13032424 Ry
     estimated scf accuracy    <      30.52885710 Ry

     total magnetization       =    82.73 Bohr mag/cell
     absolute magnetization    =    87.10 Bohr mag/cell

     iteration # 17     ecut=    50.00 Ry     beta= 0.10
     Davidson diagonalization with overlap
     ethr =  5.31E-04,  avg # of iterations =  1.0

     negative rho (up, down):  8.152E-04 1.595E-03
 
     Adding external electric field

     Computed dipole along edir(3) : 
        Dipole               -1.0835 Ry au,         -2.7540 Debye
        Dipole field         -0.0007 Ry au, 
 
        Potential amp.        0.0732 Ry
        Total length         55.1515 bohr
 
 
     Adding external electric field

     Computed dipole along edir(3) : 
        Dipole               -1.0835 Ry au,         -2.7540 Debye
        Dipole field         -0.0007 Ry au, 
 
        Potential amp.        0.0732 Ry
        Total length         55.1515 bohr
 

     total cpu time spent up to now is      244.7 secs

     total energy              =   -7737.44712312 Ry
     estimated scf accuracy    <      44.62615962 Ry

     total magnetization       =    82.39 Bohr mag/cell
     absolute magnetization    =    86.59 Bohr mag/cell

     iteration # 18     ecut=    50.00 Ry     beta= 0.10
     Davidson diagonalization with overlap
     ethr =  5.31E-04,  avg # of iterations =  2.0

     negative rho (up, down):  4.132E-04 6.637E-04
 
     Adding external electric field

     Computed dipole along edir(3) : 
        Dipole               -1.0766 Ry au,         -2.7363 Debye
        Dipole field         -0.0007 Ry au, 
 
        Potential amp.        0.0727 Ry
        Total length         55.1515 bohr
 
 
     Adding external electric field

     Computed dipole along edir(3) : 
        Dipole               -1.0766 Ry au,         -2.7363 Debye
        Dipole field         -0.0007 Ry au, 
 
        Potential amp.        0.0727 Ry
        Total length         55.1515 bohr
 

     total cpu time spent up to now is      257.4 secs

     total energy              =   -7738.19057576 Ry
     estimated scf accuracy    <       1.51041666 Ry

     total magnetization       =    90.40 Bohr mag/cell
     absolute magnetization    =    95.27 Bohr mag/cell

     iteration # 19     ecut=    50.00 Ry     beta= 0.10
     Davidson diagonalization with overlap
     ethr =  1.38E-04,  avg # of iterations =  1.5

     negative rho (up, down):  1.092E-04 1.882E-04
 
     Adding external electric field

     Computed dipole along edir(3) : 
        Dipole               -1.0387 Ry au,         -2.6402 Debye
        Dipole field         -0.0006 Ry au, 
 
        Potential amp.        0.0701 Ry
        Total length         55.1515 bohr
 
 
     Adding external electric field

     Computed dipole along edir(3) : 
        Dipole               -1.0387 Ry au,         -2.6402 Debye
        Dipole field         -0.0006 Ry au, 
 
        Potential amp.        0.0701 Ry
        Total length         55.1515 bohr
 

     total cpu time spent up to now is      269.3 secs

     total energy              =   -7738.11239097 Ry
     estimated scf accuracy    <       1.16889772 Ry

     total magnetization       =    90.03 Bohr mag/cell
     absolute magnetization    =    95.44 Bohr mag/cell

     iteration # 20     ecut=    50.00 Ry     beta= 0.10
     Davidson diagonalization with overlap
     ethr =  1.07E-04,  avg # of iterations =  9.5

     negative rho (up, down):  1.078E-04 1.562E-04
 
     Adding external electric field

     Computed dipole along edir(3) : 
        Dipole               -1.0517 Ry au,         -2.6731 Debye
        Dipole field         -0.0006 Ry au, 
 
        Potential amp.        0.0710 Ry
        Total length         55.1515 bohr
 
 
     Adding external electric field

     Computed dipole along edir(3) : 
        Dipole               -1.0517 Ry au,         -2.6731 Debye
        Dipole field         -0.0006 Ry au, 
 
        Potential amp.        0.0710 Ry
        Total length         55.1515 bohr
 

     total cpu time spent up to now is      286.5 secs

     total energy              =   -7738.14115745 Ry
     estimated scf accuracy    <       1.36819883 Ry

     total magnetization       =    89.03 Bohr mag/cell
     absolute magnetization    =    95.51 Bohr mag/cell

     iteration # 21     ecut=    50.00 Ry     beta= 0.10
     Davidson diagonalization with overlap
     ethr =  1.07E-04,  avg # of iterations =  1.5

     negative rho (up, down):  9.827E-05 1.576E-04
 
     Adding external electric field

     Computed dipole along edir(3) : 
        Dipole               -1.0458 Ry au,         -2.6581 Debye
        Dipole field         -0.0006 Ry au, 
 
        Potential amp.        0.0706 Ry
        Total length         55.1515 bohr
 
 
     Adding external electric field

     Computed dipole along edir(3) : 
        Dipole               -1.0458 Ry au,         -2.6581 Debye
        Dipole field         -0.0006 Ry au, 
 
        Potential amp.        0.0706 Ry
        Total length         55.1515 bohr
 

     total cpu time spent up to now is      298.7 secs

     total energy              =   -7738.14190028 Ry
     estimated scf accuracy    <       1.25254107 Ry

     total magnetization       =    88.75 Bohr mag/cell
     absolute magnetization    =    95.28 Bohr mag/cell

     iteration # 22     ecut=    50.00 Ry     beta= 0.10
     Davidson diagonalization with overlap
     ethr =  1.07E-04,  avg # of iterations =  1.0

     negative rho (up, down):  1.614E-04 2.367E-04
 
     Adding external electric field

     Computed dipole along edir(3) : 
        Dipole               -1.0709 Ry au,         -2.7219 Debye
        Dipole field         -0.0007 Ry au, 
 
        Potential amp.        0.0723 Ry
        Total length         55.1515 bohr
 
 
     Adding external electric field

     Computed dipole along edir(3) : 
        Dipole               -1.0709 Ry au,         -2.7219 Debye
        Dipole field         -0.0007 Ry au, 
 
        Potential amp.        0.0723 Ry
        Total length         55.1515 bohr
 

     total cpu time spent up to now is      310.6 secs

     total energy              =   -7738.19653602 Ry
     estimated scf accuracy    <       1.32033459 Ry

     total magnetization       =    88.13 Bohr mag/cell
     absolute magnetization    =    94.70 Bohr mag/cell

     iteration # 23     ecut=    50.00 Ry     beta= 0.10
     Davidson diagonalization with overlap
     ethr =  1.07E-04,  avg # of iterations =  1.5

     negative rho (up, down):  3.803E-04 5.440E-04
 
     Adding external electric field

     Computed dipole along edir(3) : 
        Dipole               -1.0880 Ry au,         -2.7654 Debye
        Dipole field         -0.0007 Ry au, 
 
        Potential amp.        0.0735 Ry
        Total length         55.1515 bohr
 
 
     Adding external electric field

     Computed dipole along edir(3) : 
        Dipole               -1.0880 Ry au,         -2.7654 Debye
        Dipole field         -0.0007 Ry au, 
 
        Potential amp.        0.0735 Ry
        Total length         55.1515 bohr
 

     total cpu time spent up to now is      322.2 secs

     total energy              =   -7738.27509471 Ry
     estimated scf accuracy    <       1.04463947 Ry

     total magnetization       =    89.28 Bohr mag/cell
     absolute magnetization    =    95.00 Bohr mag/cell

     iteration # 24     ecut=    50.00 Ry     beta= 0.10
     Davidson diagonalization with overlap
     ethr =  9.56E-05,  avg # of iterations =  1.5

     negative rho (up, down):  1.367E-03 7.322E-04
 
     Adding external electric field

     Computed dipole along edir(3) : 
        Dipole               -1.0385 Ry au,         -2.6395 Debye
        Dipole field         -0.0006 Ry au, 
 
        Potential amp.        0.0701 Ry
        Total length         55.1515 bohr
 
 
     Adding external electric field

     Computed dipole along edir(3) : 
        Dipole               -1.0385 Ry au,         -2.6395 Debye
        Dipole field         -0.0006 Ry au, 
 
        Potential amp.        0.0701 Ry
        Total length         55.1515 bohr
 

     total cpu time spent up to now is      333.8 secs

     total energy              =   -7738.29789239 Ry
     estimated scf accuracy    <       0.67533856 Ry

     total magnetization       =    89.48 Bohr mag/cell
     absolute magnetization    =    93.69 Bohr mag/cell

     iteration # 25     ecut=    50.00 Ry     beta= 0.10
     Davidson diagonalization with overlap
     ethr =  6.18E-05,  avg # of iterations =  2.0

     negative rho (up, down):  9.668E-04 4.307E-04
 
     Adding external electric field

     Computed dipole along edir(3) : 
        Dipole               -1.0097 Ry au,         -2.5663 Debye
        Dipole field         -0.0006 Ry au, 
 
        Potential amp.        0.0682 Ry
        Total length         55.1515 bohr
 
 
     Adding external electric field

     Computed dipole along edir(3) : 
        Dipole               -1.0097 Ry au,         -2.5663 Debye
        Dipole field         -0.0006 Ry au, 
 
        Potential amp.        0.0682 Ry
        Total length         55.1515 bohr
 

     total cpu time spent up to now is      346.9 secs

     total energy              =   -7738.32722095 Ry
     estimated scf accuracy    <       0.63554856 Ry

     total magnetization       =    88.54 Bohr mag/cell
     absolute magnetization    =    91.15 Bohr mag/cell

     iteration # 26     ecut=    50.00 Ry     beta= 0.10
     Davidson diagonalization with overlap
     ethr =  5.81E-05,  avg # of iterations =  1.5

     negative rho (up, down):  1.040E-03 2.070E-04
 
     Adding external electric field

     Computed dipole along edir(3) : 
        Dipole               -0.9386 Ry au,         -2.3858 Debye
        Dipole field         -0.0006 Ry au, 
 
        Potential amp.        0.0634 Ry
        Total length         55.1515 bohr
 
 
     Adding external electric field

     Computed dipole along edir(3) : 
        Dipole               -0.9386 Ry au,         -2.3858 Debye
        Dipole field         -0.0006 Ry au, 
 
        Potential amp.        0.0634 Ry
        Total length         55.1515 bohr
 

     total cpu time spent up to now is      358.6 secs

     total energy              =   -7738.28466477 Ry
     estimated scf accuracy    <       0.38434954 Ry

     total magnetization       =    90.18 Bohr mag/cell
     absolute magnetization    =    92.43 Bohr mag/cell

     iteration # 27     ecut=    50.00 Ry     beta= 0.10
     Davidson diagonalization with overlap
     ethr =  3.52E-05,  avg # of iterations =  2.0

     negative rho (up, down):  4.359E-04 1.341E-04
 
     Adding external electric field

     Computed dipole along edir(3) : 
        Dipole               -0.9268 Ry au,         -2.3558 Debye
        Dipole field         -0.0006 Ry au, 
 
        Potential amp.        0.0626 Ry
        Total length         55.1515 bohr
 
 
     Adding external electric field

     Computed dipole along edir(3) : 
        Dipole               -0.9268 Ry au,         -2.3558 Debye
        Dipole field         -0.0006 Ry au, 
 
        Potential amp.        0.0626 Ry
        Total length         55.1515 bohr
 

     total cpu time spent up to now is      371.5 secs

     total energy              =   -7738.32008199 Ry
     estimated scf accuracy    <       1.02066851 Ry

     total magnetization       =    88.42 Bohr mag/cell
     absolute magnetization    =    90.49 Bohr mag/cell

     iteration # 28     ecut=    50.00 Ry     beta= 0.10
     Davidson diagonalization with overlap
     ethr =  3.52E-05,  avg # of iterations =  2.0

     negative rho (up, down):  8.204E-04 1.849E-04
 
     Adding external electric field

     Computed dipole along edir(3) : 
        Dipole               -0.9499 Ry au,         -2.4145 Debye
        Dipole field         -0.0006 Ry au, 
 
        Potential amp.        0.0641 Ry
        Total length         55.1515 bohr
 
 
     Adding external electric field

     Computed dipole along edir(3) : 
        Dipole               -0.9499 Ry au,         -2.4145 Debye
        Dipole field         -0.0006 Ry au, 
 
        Potential amp.        0.0641 Ry
        Total length         55.1515 bohr
 

     total cpu time spent up to now is      384.1 secs

     total energy              =   -7738.29913586 Ry
     estimated scf accuracy    <       1.12724822 Ry

     total magnetization       =    88.24 Bohr mag/cell
     absolute magnetization    =    90.42 Bohr mag/cell

     iteration # 29     ecut=    50.00 Ry     beta= 0.10
     Davidson diagonalization with overlap
     ethr =  3.52E-05,  avg # of iterations =  1.5

     negative rho (up, down):  9.215E-04 2.060E-04
 
     Adding external electric field

     Computed dipole along edir(3) : 
        Dipole               -0.9530 Ry au,         -2.4223 Debye
        Dipole field         -0.0006 Ry au, 
 
        Potential amp.        0.0643 Ry
        Total length         55.1515 bohr
 
 
     Adding external electric field

     Computed dipole along edir(3) : 
        Dipole               -0.9530 Ry au,         -2.4223 Debye
        Dipole field         -0.0006 Ry au, 
 
        Potential amp.        0.0643 Ry
        Total length         55.1515 bohr
 

     total cpu time spent up to now is      395.5 secs

     total energy              =   -7738.29615183 Ry
     estimated scf accuracy    <       0.73984546 Ry

     total magnetization       =    88.68 Bohr mag/cell
     absolute magnetization    =    90.87 Bohr mag/cell

     iteration # 30     ecut=    50.00 Ry     beta= 0.10
     Davidson diagonalization with overlap
     ethr =  3.52E-05,  avg # of iterations =  1.5

     negative rho (up, down):  1.250E-03 1.535E-04
 
     Adding external electric field

     Computed dipole along edir(3) : 
        Dipole               -0.8986 Ry au,         -2.2841 Debye
        Dipole field         -0.0006 Ry au, 
 
        Potential amp.        0.0607 Ry
        Total length         55.1515 bohr
 
 
     Adding external electric field

     Computed dipole along edir(3) : 
        Dipole               -0.8986 Ry au,         -2.2841 Debye
        Dipole field         -0.0006 Ry au, 
 
        Potential amp.        0.0607 Ry
        Total length         55.1515 bohr
 

     total cpu time spent up to now is      407.4 secs

     total energy              =   -7738.25273339 Ry
     estimated scf accuracy    <       0.67575222 Ry

     total magnetization       =    88.76 Bohr mag/cell
     absolute magnetization    =    90.96 Bohr mag/cell

     iteration # 31     ecut=    50.00 Ry     beta= 0.10
     Davidson diagonalization with overlap
     ethr =  3.52E-05,  avg # of iterations =  2.0

     negative rho (up, down):  1.887E-03 2.952E-04
 
     Adding external electric field

     Computed dipole along edir(3) : 
        Dipole               -0.8625 Ry au,         -2.1922 Debye
        Dipole field         -0.0005 Ry au, 
 
        Potential amp.        0.0582 Ry
        Total length         55.1515 bohr
 
 
     Adding external electric field

     Computed dipole along edir(3) : 
        Dipole               -0.8625 Ry au,         -2.1922 Debye
        Dipole field         -0.0005 Ry au, 
 
        Potential amp.        0.0582 Ry
        Total length         55.1515 bohr
 

     total cpu time spent up to now is      420.9 secs

     total energy              =   -7738.23835531 Ry
     estimated scf accuracy    <       0.63687605 Ry

     total magnetization       =    89.28 Bohr mag/cell
     absolute magnetization    =    91.42 Bohr mag/cell

     iteration # 32     ecut=    50.00 Ry     beta= 0.10
     Davidson diagonalization with overlap
     ethr =  3.52E-05,  avg # of iterations =  2.0

     negative rho (up, down):  3.842E-03 1.669E-03
 
     Adding external electric field

     Computed dipole along edir(3) : 
        Dipole               -0.7588 Ry au,         -1.9286 Debye
        Dipole field         -0.0005 Ry au, 
 
        Potential amp.        0.0512 Ry
        Total length         55.1515 bohr
 
 
     Adding external electric field

     Computed dipole along edir(3) : 
        Dipole               -0.7588 Ry au,         -1.9286 Debye
        Dipole field         -0.0005 Ry au, 
 
        Potential amp.        0.0512 Ry
        Total length         55.1515 bohr
 

     total cpu time spent up to now is      433.6 secs

     total energy              =   -7738.26945475 Ry
     estimated scf accuracy    <       0.40185673 Ry

     total magnetization       =    89.86 Bohr mag/cell
     absolute magnetization    =    91.80 Bohr mag/cell

     iteration # 33     ecut=    50.00 Ry     beta= 0.10
     Davidson diagonalization with overlap
     ethr =  3.52E-05,  avg # of iterations =  2.0

     negative rho (up, down):  5.267E-03 4.090E-03
 
     Adding external electric field

     Computed dipole along edir(3) : 
        Dipole               -0.7302 Ry au,         -1.8560 Debye
        Dipole field         -0.0004 Ry au, 
 
        Potential amp.        0.0493 Ry
        Total length         55.1515 bohr
 
 
     Adding external electric field

     Computed dipole along edir(3) : 
        Dipole               -0.7302 Ry au,         -1.8560 Debye
        Dipole field         -0.0004 Ry au, 
 
        Potential amp.        0.0493 Ry
        Total length         55.1515 bohr
 

     total cpu time spent up to now is      445.7 secs

     total energy              =   -7738.30017037 Ry
     estimated scf accuracy    <       0.28346114 Ry

     total magnetization       =    89.87 Bohr mag/cell
     absolute magnetization    =    91.26 Bohr mag/cell

     iteration # 34     ecut=    50.00 Ry     beta= 0.10
     Davidson diagonalization with overlap
     ethr =  2.59E-05,  avg # of iterations =  2.0

     negative rho (up, down):  3.503E-03 2.993E-03
 
     Adding external electric field

     Computed dipole along edir(3) : 
        Dipole               -0.7365 Ry au,         -1.8720 Debye
        Dipole field         -0.0005 Ry au, 
 
        Potential amp.        0.0497 Ry
        Total length         55.1515 bohr
 
 
     Adding external electric field

     Computed dipole along edir(3) : 
        Dipole               -0.7365 Ry au,         -1.8720 Debye
        Dipole field         -0.0005 Ry au, 
 
        Potential amp.        0.0497 Ry
        Total length         55.1515 bohr
 

     total cpu time spent up to now is      457.9 secs

     total energy              =   -7738.32584415 Ry
     estimated scf accuracy    <       0.29195023 Ry

     total magnetization       =    89.59 Bohr mag/cell
     absolute magnetization    =    90.66 Bohr mag/cell

     iteration # 35     ecut=    50.00 Ry     beta= 0.10
     Davidson diagonalization with overlap
     ethr =  2.59E-05,  avg # of iterations = 12.0

     negative rho (up, down):  6.184E-03 5.994E-03
 
     Adding external electric field

     Computed dipole along edir(3) : 
        Dipole               -0.7039 Ry au,         -1.7891 Debye
        Dipole field         -0.0004 Ry au, 
 
        Potential amp.        0.0475 Ry
        Total length         55.1515 bohr
 
 
     Adding external electric field

     Computed dipole along edir(3) : 
        Dipole               -0.7039 Ry au,         -1.7891 Debye
        Dipole field         -0.0004 Ry au, 
 
        Potential amp.        0.0475 Ry
        Total length         55.1515 bohr
 

     total cpu time spent up to now is      480.3 secs

     total energy              =   -7738.32124432 Ry
     estimated scf accuracy    <       0.95462247 Ry

     total magnetization       =    88.91 Bohr mag/cell
     absolute magnetization    =    90.09 Bohr mag/cell

     iteration # 36     ecut=    50.00 Ry     beta= 0.10
     Davidson diagonalization with overlap
     ethr =  2.59E-05,  avg # of iterations =  2.0

     negative rho (up, down):  4.904E-03 3.931E-03
 
     Adding external electric field

     Computed dipole along edir(3) : 
        Dipole               -0.7354 Ry au,         -1.8693 Debye
        Dipole field         -0.0005 Ry au, 
 
        Potential amp.        0.0497 Ry
        Total length         55.1515 bohr
 
 
     Adding external electric field

     Computed dipole along edir(3) : 
        Dipole               -0.7354 Ry au,         -1.8693 Debye
        Dipole field         -0.0005 Ry au, 
 
        Potential amp.        0.0497 Ry
        Total length         55.1515 bohr
 

     total cpu time spent up to now is      492.2 secs

     total energy              =   -7738.28110129 Ry
     estimated scf accuracy    <       0.81124765 Ry

     total magnetization       =    88.74 Bohr mag/cell
     absolute magnetization    =    89.78 Bohr mag/cell

     iteration # 37     ecut=    50.00 Ry     beta= 0.10
     Davidson diagonalization with overlap
     ethr =  2.59E-05,  avg # of iterations =  2.0

     negative rho (up, down):  4.957E-03 3.917E-03
 
     Adding external electric field

     Computed dipole along edir(3) : 
        Dipole               -0.7375 Ry au,         -1.8745 Debye
        Dipole field         -0.0005 Ry au, 
 
        Potential amp.        0.0498 Ry
        Total length         55.1515 bohr
 
 
     Adding external electric field

     Computed dipole along edir(3) : 
        Dipole               -0.7375 Ry au,         -1.8745 Debye
        Dipole field         -0.0005 Ry au, 
 
        Potential amp.        0.0498 Ry
        Total length         55.1515 bohr
 

     total cpu time spent up to now is      504.0 secs

     total energy              =   -7738.30909331 Ry
     estimated scf accuracy    <       0.32672160 Ry

     total magnetization       =    89.83 Bohr mag/cell
     absolute magnetization    =    90.73 Bohr mag/cell

     iteration # 38     ecut=    50.00 Ry     beta= 0.10
     Davidson diagonalization with overlap
     ethr =  2.59E-05,  avg # of iterations =  1.0

     negative rho (up, down):  5.555E-03 4.375E-03
 
     Adding external electric field

     Computed dipole along edir(3) : 
        Dipole               -0.7360 Ry au,         -1.8708 Debye
        Dipole field         -0.0005 Ry au, 
 
        Potential amp.        0.0497 Ry
        Total length         55.1515 bohr
 
 
     Adding external electric field

     Computed dipole along edir(3) : 
        Dipole               -0.7360 Ry au,         -1.8708 Debye
        Dipole field         -0.0005 Ry au, 
 
        Potential amp.        0.0497 Ry
        Total length         55.1515 bohr
 

     total cpu time spent up to now is      515.0 secs

     total energy              =   -7738.30740485 Ry
     estimated scf accuracy    <       0.31195282 Ry

     total magnetization       =    89.86 Bohr mag/cell
     absolute magnetization    =    90.75 Bohr mag/cell

     iteration # 39     ecut=    50.00 Ry     beta= 0.10
     Davidson diagonalization with overlap
     ethr =  2.59E-05,  avg # of iterations =  2.0

     negative rho (up, down):  1.034E-02 8.797E-03
 
     Adding external electric field

     Computed dipole along edir(3) : 
        Dipole               -0.7058 Ry au,         -1.7939 Debye
        Dipole field         -0.0004 Ry au, 
 
        Potential amp.        0.0477 Ry
        Total length         55.1515 bohr
 
 
     Adding external electric field

     Computed dipole along edir(3) : 
        Dipole               -0.7058 Ry au,         -1.7939 Debye
        Dipole field         -0.0004 Ry au, 
 
        Potential amp.        0.0477 Ry
        Total length         55.1515 bohr
 

     total cpu time spent up to now is      527.6 secs

     total energy              =   -7738.26581345 Ry
     estimated scf accuracy    <       0.31216890 Ry

     total magnetization       =    89.82 Bohr mag/cell
     absolute magnetization    =    90.71 Bohr mag/cell

     iteration # 40     ecut=    50.00 Ry     beta= 0.10
     Davidson diagonalization with overlap
     ethr =  2.59E-05,  avg # of iterations =  2.0

     negative rho (up, down):  1.446E-02 1.462E-02
 
     Adding external electric field

     Computed dipole along edir(3) : 
        Dipole               -0.6592 Ry au,         -1.6754 Debye
        Dipole field         -0.0004 Ry au, 
 
        Potential amp.        0.0445 Ry
        Total length         55.1515 bohr
 
 
     Adding external electric field

     Computed dipole along edir(3) : 
        Dipole               -0.6592 Ry au,         -1.6754 Debye
        Dipole field         -0.0004 Ry au, 
 
        Potential amp.        0.0445 Ry
        Total length         55.1515 bohr
 

     total cpu time spent up to now is      540.3 secs

     total energy              =   -7738.26304367 Ry
     estimated scf accuracy    <       0.17255452 Ry

     total magnetization       =    89.26 Bohr mag/cell
     absolute magnetization    =    90.09 Bohr mag/cell

     iteration # 41     ecut=    50.00 Ry     beta= 0.10
     Davidson diagonalization with overlap
     ethr =  1.58E-05,  avg # of iterations =  2.0

     negative rho (up, down):  1.287E-02 1.239E-02
 
     Adding external electric field

     Computed dipole along edir(3) : 
        Dipole               -0.6753 Ry au,         -1.7164 Debye
        Dipole field         -0.0004 Ry au, 
 
        Potential amp.        0.0456 Ry
        Total length         55.1515 bohr
 
 
     Adding external electric field

     Computed dipole along edir(3) : 
        Dipole               -0.6753 Ry au,         -1.7164 Debye
        Dipole field         -0.0004 Ry au, 
 
        Potential amp.        0.0456 Ry
        Total length         55.1515 bohr
 

     total cpu time spent up to now is      553.4 secs

     total energy              =   -7738.26649173 Ry
     estimated scf accuracy    <       0.13898514 Ry

     total magnetization       =    89.03 Bohr mag/cell
     absolute magnetization    =    89.80 Bohr mag/cell

     iteration # 42     ecut=    50.00 Ry     beta= 0.10
     Davidson diagonalization with overlap
     ethr =  1.27E-05,  avg # of iterations =  2.0

     negative rho (up, down):  1.059E-02 9.583E-03
 
     Adding external electric field

     Computed dipole along edir(3) : 
        Dipole               -0.6958 Ry au,         -1.7686 Debye
        Dipole field         -0.0004 Ry au, 
 
        Potential amp.        0.0470 Ry
        Total length         55.1515 bohr
 
 
     Adding external electric field

     Computed dipole along edir(3) : 
        Dipole               -0.6958 Ry au,         -1.7686 Debye
        Dipole field         -0.0004 Ry au, 
 
        Potential amp.        0.0470 Ry
        Total length         55.1515 bohr
 

     total cpu time spent up to now is      566.5 secs

     total energy              =   -7738.27293103 Ry
     estimated scf accuracy    <       0.13758510 Ry

     total magnetization       =    89.05 Bohr mag/cell
     absolute magnetization    =    89.83 Bohr mag/cell

     iteration # 43     ecut=    50.00 Ry     beta= 0.10
     Davidson diagonalization with overlap
     ethr =  1.26E-05,  avg # of iterations =  2.0

     negative rho (up, down):  7.344E-03 6.025E-03
 
     Adding external electric field

     Computed dipole along edir(3) : 
        Dipole               -0.7293 Ry au,         -1.8536 Debye
        Dipole field         -0.0004 Ry au, 
 
        Potential amp.        0.0492 Ry
        Total length         55.1515 bohr
 
 
     Adding external electric field

     Computed dipole along edir(3) : 
        Dipole               -0.7293 Ry au,         -1.8536 Debye
        Dipole field         -0.0004 Ry au, 
 
        Potential amp.        0.0492 Ry
        Total length         55.1515 bohr
 

     total cpu time spent up to now is      578.9 secs

     total energy              =   -7738.27800743 Ry
     estimated scf accuracy    <       0.14187385 Ry

     total magnetization       =    88.99 Bohr mag/cell
     absolute magnetization    =    89.79 Bohr mag/cell

     iteration # 44     ecut=    50.00 Ry     beta= 0.10
     Davidson diagonalization with overlap
     ethr =  1.26E-05,  avg # of iterations = 14.5

     negative rho (up, down):  6.676E-03 5.663E-03
 
     Adding external electric field

     Computed dipole along edir(3) : 
        Dipole               -0.7200 Ry au,         -1.8300 Debye
        Dipole field         -0.0004 Ry au, 
 
        Potential amp.        0.0486 Ry
        Total length         55.1515 bohr
 
 
     Adding external electric field

     Computed dipole along edir(3) : 
        Dipole               -0.7200 Ry au,         -1.8300 Debye
        Dipole field         -0.0004 Ry au, 
 
        Potential amp.        0.0486 Ry
        Total length         55.1515 bohr
 

     total cpu time spent up to now is      603.1 secs

     total energy              =   -7738.27561410 Ry
     estimated scf accuracy    <       0.19979249 Ry

     total magnetization       =    88.50 Bohr mag/cell
     absolute magnetization    =    89.26 Bohr mag/cell

     iteration # 45     ecut=    50.00 Ry     beta= 0.10
     Davidson diagonalization with overlap
     ethr =  1.26E-05,  avg # of iterations =  2.0

     negative rho (up, down):  7.563E-03 6.752E-03
 
     Adding external electric field

     Computed dipole along edir(3) : 
        Dipole               -0.7037 Ry au,         -1.7886 Debye
        Dipole field         -0.0004 Ry au, 
 
        Potential amp.        0.0475 Ry
        Total length         55.1515 bohr
 
 
     Adding external electric field

     Computed dipole along edir(3) : 
        Dipole               -0.7037 Ry au,         -1.7886 Debye
        Dipole field         -0.0004 Ry au, 
 
        Potential amp.        0.0475 Ry
        Total length         55.1515 bohr
 

     total cpu time spent up to now is      615.6 secs

     total energy              =   -7738.28952351 Ry
     estimated scf accuracy    <       0.20940015 Ry

     total magnetization       =    89.54 Bohr mag/cell
     absolute magnetization    =    90.23 Bohr mag/cell

     iteration # 46     ecut=    50.00 Ry     beta= 0.10
     Davidson diagonalization with overlap
     ethr =  1.26E-05,  avg # of iterations =  1.5

     negative rho (up, down):  7.984E-03 6.921E-03
 
     Adding external electric field

     Computed dipole along edir(3) : 
        Dipole               -0.6886 Ry au,         -1.7503 Debye
        Dipole field         -0.0004 Ry au, 
 
        Potential amp.        0.0465 Ry
        Total length         55.1515 bohr
 
 
     Adding external electric field

     Computed dipole along edir(3) : 
        Dipole               -0.6886 Ry au,         -1.7503 Debye
        Dipole field         -0.0004 Ry au, 
 
        Potential amp.        0.0465 Ry
        Total length         55.1515 bohr
 

     total cpu time spent up to now is      627.1 secs

     total energy              =   -7738.29222508 Ry
     estimated scf accuracy    <       0.25779202 Ry

     total magnetization       =    89.86 Bohr mag/cell
     absolute magnetization    =    90.56 Bohr mag/cell

     iteration # 47     ecut=    50.00 Ry     beta= 0.10
     Davidson diagonalization with overlap
     ethr =  1.26E-05,  avg # of iterations =  2.0

     negative rho (up, down):  1.103E-02 1.107E-02
 
     Adding external electric field

     Computed dipole along edir(3) : 
        Dipole               -0.6446 Ry au,         -1.6384 Debye
        Dipole field         -0.0004 Ry au, 
 
        Potential amp.        0.0435 Ry
        Total length         55.1515 bohr
 
 
     Adding external electric field

     Computed dipole along edir(3) : 
        Dipole               -0.6446 Ry au,         -1.6384 Debye
        Dipole field         -0.0004 Ry au, 
 
        Potential amp.        0.0435 Ry
        Total length         55.1515 bohr
 

     total cpu time spent up to now is      639.5 secs

     total energy              =   -7738.28229280 Ry
     estimated scf accuracy    <       0.30221237 Ry

     total magnetization       =    89.64 Bohr mag/cell
     absolute magnetization    =    90.32 Bohr mag/cell

     iteration # 48     ecut=    50.00 Ry     beta= 0.10
     Davidson diagonalization with overlap
     ethr =  1.26E-05,  avg # of iterations =  2.0

     negative rho (up, down):  2.263E-03 1.200E-03
 
     Adding external electric field

     Computed dipole along edir(3) : 
        Dipole               -0.8288 Ry au,         -2.1066 Debye
        Dipole field         -0.0005 Ry au, 
 
        Potential amp.        0.0560 Ry
        Total length         55.1515 bohr
 
 
     Adding external electric field

     Computed dipole along edir(3) : 
        Dipole               -0.8288 Ry au,         -2.1066 Debye
        Dipole field         -0.0005 Ry au, 
 
        Potential amp.        0.0560 Ry
        Total length         55.1515 bohr
 

     total cpu time spent up to now is      652.1 secs

     total energy              =   -7738.32673511 Ry
     estimated scf accuracy    <       0.29393930 Ry

     total magnetization       =    89.63 Bohr mag/cell
     absolute magnetization    =    90.31 Bohr mag/cell

     iteration # 49     ecut=    50.00 Ry     beta= 0.10
     Davidson diagonalization with overlap
     ethr =  1.26E-05,  avg # of iterations =  2.5

     negative rho (up, down):  3.905E-03 2.566E-03
 
     Adding external electric field

     Computed dipole along edir(3) : 
        Dipole               -0.7862 Ry au,         -1.9983 Debye
        Dipole field         -0.0005 Ry au, 
 
        Potential amp.        0.0531 Ry
        Total length         55.1515 bohr
 
 
     Adding external electric field

     Computed dipole along edir(3) : 
        Dipole               -0.7862 Ry au,         -1.9983 Debye
        Dipole field         -0.0005 Ry au, 
 
        Potential amp.        0.0531 Ry
        Total length         55.1515 bohr
 

     total cpu time spent up to now is      665.0 secs

     total energy              =   -7738.31592748 Ry
     estimated scf accuracy    <       0.39731867 Ry

     total magnetization       =    89.55 Bohr mag/cell
     absolute magnetization    =    90.29 Bohr mag/cell

     iteration # 50     ecut=    50.00 Ry     beta= 0.10
     Davidson diagonalization with overlap
     ethr =  1.26E-05,  avg # of iterations =  2.0

     negative rho (up, down):  1.574E-03 7.905E-04
 
     Adding external electric field

     Computed dipole along edir(3) : 
        Dipole               -0.8063 Ry au,         -2.0495 Debye
        Dipole field         -0.0005 Ry au, 
 
        Potential amp.        0.0544 Ry
        Total length         55.1515 bohr
 
 
     Adding external electric field

     Computed dipole along edir(3) : 
        Dipole               -0.8063 Ry au,         -2.0495 Debye
        Dipole field         -0.0005 Ry au, 
 
        Potential amp.        0.0544 Ry
        Total length         55.1515 bohr
 

     total cpu time spent up to now is      677.8 secs

     total energy              =   -7738.33115613 Ry
     estimated scf accuracy    <       0.37233244 Ry

     total magnetization       =    89.71 Bohr mag/cell
     absolute magnetization    =    90.40 Bohr mag/cell

     iteration # 51     ecut=    50.00 Ry     beta= 0.10
     Davidson diagonalization with overlap
     ethr =  1.26E-05,  avg # of iterations =  2.0

     negative rho (up, down):  2.379E-03 1.118E-03
 
     Adding external electric field

     Computed dipole along edir(3) : 
        Dipole               -0.7311 Ry au,         -1.8583 Debye
        Dipole field         -0.0004 Ry au, 
 
        Potential amp.        0.0494 Ry
        Total length         55.1515 bohr
 
 
     Adding external electric field

     Computed dipole along edir(3) : 
        Dipole               -0.7311 Ry au,         -1.8583 Debye
        Dipole field         -0.0004 Ry au, 
 
        Potential amp.        0.0494 Ry
        Total length         55.1515 bohr
 

     total cpu time spent up to now is      691.0 secs

     total energy              =   -7738.31904536 Ry
     estimated scf accuracy    <       0.34616058 Ry

     total magnetization       =    89.79 Bohr mag/cell
     absolute magnetization    =    90.65 Bohr mag/cell

     iteration # 52     ecut=    50.00 Ry     beta= 0.10
     Davidson diagonalization with overlap
     ethr =  1.26E-05,  avg # of iterations =  2.0

     negative rho (up, down):  1.740E-03 7.291E-04
 
     Adding external electric field

     Computed dipole along edir(3) : 
        Dipole               -0.7758 Ry au,         -1.9719 Debye
        Dipole field         -0.0005 Ry au, 
 
        Potential amp.        0.0524 Ry
        Total length         55.1515 bohr
 
 
     Adding external electric field

     Computed dipole along edir(3) : 
        Dipole               -0.7758 Ry au,         -1.9719 Debye
        Dipole field         -0.0005 Ry au, 
 
        Potential amp.        0.0524 Ry
        Total length         55.1515 bohr
 

     total cpu time spent up to now is      703.8 secs

     total energy              =   -7738.33397884 Ry
     estimated scf accuracy    <       0.31501087 Ry

     total magnetization       =    89.68 Bohr mag/cell
     absolute magnetization    =    90.72 Bohr mag/cell

     iteration # 53     ecut=    50.00 Ry     beta= 0.10
     Davidson diagonalization with overlap
     ethr =  1.26E-05,  avg # of iterations =  1.5

     negative rho (up, down):  8.434E-03 6.617E-03
 
     Adding external electric field

     Computed dipole along edir(3) : 
        Dipole               -0.5998 Ry au,         -1.5246 Debye
        Dipole field         -0.0004 Ry au, 
 
        Potential amp.        0.0405 Ry
        Total length         55.1515 bohr
 
 
     Adding external electric field

     Computed dipole along edir(3) : 
        Dipole               -0.5998 Ry au,         -1.5246 Debye
        Dipole field         -0.0004 Ry au, 
 
        Potential amp.        0.0405 Ry
        Total length         55.1515 bohr
 

     total cpu time spent up to now is      715.8 secs

     total energy              =   -7738.25568449 Ry
     estimated scf accuracy    <       0.37140334 Ry

     total magnetization       =    89.75 Bohr mag/cell
     absolute magnetization    =    90.72 Bohr mag/cell

     iteration # 54     ecut=    50.00 Ry     beta= 0.10
     Davidson diagonalization with overlap
     ethr =  1.26E-05,  avg # of iterations =  3.5

     negative rho (up, down):  1.012E-03 6.228E-04
 
     Adding external electric field

     Computed dipole along edir(3) : 
        Dipole               -0.8083 Ry au,         -2.0544 Debye
        Dipole field         -0.0005 Ry au, 
 
        Potential amp.        0.0546 Ry
        Total length         55.1515 bohr
 
 
     Adding external electric field

     Computed dipole along edir(3) : 
        Dipole               -0.8083 Ry au,         -2.0544 Debye
        Dipole field         -0.0005 Ry au, 
 
        Potential amp.        0.0546 Ry
        Total length         55.1515 bohr
 

     total cpu time spent up to now is      729.8 secs

     total energy              =   -7738.23567946 Ry
     estimated scf accuracy    <       1.17163428 Ry

     total magnetization       =    86.34 Bohr mag/cell
     absolute magnetization    =    87.56 Bohr mag/cell

     iteration # 55     ecut=    50.00 Ry     beta= 0.10
     Davidson diagonalization with overlap
     ethr =  1.26E-05,  avg # of iterations =  2.5

     negative rho (up, down):  7.569E-04 4.577E-04
 
     Adding external electric field

     Computed dipole along edir(3) : 
        Dipole               -0.8275 Ry au,         -2.1034 Debye
        Dipole field         -0.0005 Ry au, 
 
        Potential amp.        0.0559 Ry
        Total length         55.1515 bohr
 
 
     Adding external electric field

     Computed dipole along edir(3) : 
        Dipole               -0.8275 Ry au,         -2.1034 Debye
        Dipole field         -0.0005 Ry au, 
 
        Potential amp.        0.0559 Ry
        Total length         55.1515 bohr
 

     total cpu time spent up to now is      743.7 secs

     total energy              =   -7738.32635722 Ry
     estimated scf accuracy    <       0.27374778 Ry

     total magnetization       =    89.64 Bohr mag/cell
     absolute magnetization    =    90.58 Bohr mag/cell

     iteration # 56     ecut=    50.00 Ry     beta= 0.10
     Davidson diagonalization with overlap
     ethr =  1.26E-05,  avg # of iterations =  2.0

     negative rho (up, down):  7.299E-04 3.979E-04
 
     Adding external electric field

     Computed dipole along edir(3) : 
        Dipole               -0.8224 Ry au,         -2.0904 Debye
        Dipole field         -0.0005 Ry au, 
 
        Potential amp.        0.0555 Ry
        Total length         55.1515 bohr
 
 
     Adding external electric field

     Computed dipole along edir(3) : 
        Dipole               -0.8224 Ry au,         -2.0904 Debye
        Dipole field         -0.0005 Ry au, 
 
        Potential amp.        0.0555 Ry
        Total length         55.1515 bohr
 

     total cpu time spent up to now is      756.3 secs

     total energy              =   -7738.32886673 Ry
     estimated scf accuracy    <       0.31094975 Ry

     total magnetization       =    89.59 Bohr mag/cell
     absolute magnetization    =    90.59 Bohr mag/cell

     iteration # 57     ecut=    50.00 Ry     beta= 0.10
     Davidson diagonalization with overlap
     ethr =  1.26E-05,  avg # of iterations =  1.0

     negative rho (up, down):  7.438E-04 1.920E-04
 
     Adding external electric field

     Computed dipole along edir(3) : 
        Dipole               -0.7178 Ry au,         -1.8245 Debye
        Dipole field         -0.0004 Ry au, 
 
        Potential amp.        0.0485 Ry
        Total length         55.1515 bohr
 
 
     Adding external electric field

     Computed dipole along edir(3) : 
        Dipole               -0.7178 Ry au,         -1.8245 Debye
        Dipole field         -0.0004 Ry au, 
 
        Potential amp.        0.0485 Ry
        Total length         55.1515 bohr
 

     total cpu time spent up to now is      767.5 secs

     total energy              =   -7738.30610613 Ry
     estimated scf accuracy    <       0.30975015 Ry

     total magnetization       =    89.61 Bohr mag/cell
     absolute magnetization    =    90.62 Bohr mag/cell

     iteration # 58     ecut=    50.00 Ry     beta= 0.10
     Davidson diagonalization with overlap
     ethr =  1.26E-05,  avg # of iterations =  2.0

     negative rho (up, down):  4.707E-04 1.623E-04
 
     Adding external electric field

     Computed dipole along edir(3) : 
        Dipole               -0.7452 Ry au,         -1.8941 Debye
        Dipole field         -0.0005 Ry au, 
 
        Potential amp.        0.0503 Ry
        Total length         55.1515 bohr
 
 
     Adding external electric field

[...]
    -5.9718  -5.9403  -5.9317  -5.9087  -5.8875  -5.8795  -5.8667  -5.8427
    -5.8278  -5.7812  -5.7524  -5.7423  -5.7298  -5.6955  -5.6699  -5.6542
    -5.6404  -5.6309  -5.5872  -5.5697  -5.5645  -5.5467  -5.5387  -5.5268
    -5.5166  -5.4893  -5.4761  -5.4449  -5.4017  -5.3665  -5.3336  -5.3173
    -5.2810  -5.2622  -5.2358  -5.1661  -5.1477  -5.1432  -5.1271  -5.1052
    -5.0645  -5.0127  -4.9659  -4.9355  -4.9001  -4.8903  -4.8611  -4.8478
    -4.8205  -4.7947  -4.7823  -4.7433  -4.7235  -4.6932  -4.6393  -4.6045
    -4.5429  -4.4734  -4.4429  -4.4241  -4.4033  -4.3903  -4.3663  -4.3535
    -4.3279  -4.2793  -4.2545  -4.2436  -4.2061  -4.1909  -4.1102  -4.1057
    -4.0894  -4.0461  -4.0380  -4.0183  -3.9575  -3.9338  -3.9213  -3.8809
    -3.8579  -3.8223  -3.8133  -3.7957  -3.7757  -3.7442  -3.7062  -3.6953
    -3.6883  -3.6707  -3.6604  -3.5886  -3.5789  -3.5778  -3.5627  -3.5462
    -3.5350  -3.5178  -3.5086  -3.4831  -3.4500  -3.4440  -3.4292  -3.4083
    -3.3860  -3.3755  -3.3709  -3.3561  -3.3396  -3.3077  -3.2874  -3.2590
    -3.2471  -3.2142  -3.1931  -3.1691  -3.1461  -3.1195  -3.1020  -3.0844
    -3.0765  -3.0656  -3.0548  -3.0367  -3.0205  -3.0034  -2.9876  -2.9388
    -2.9263  -2.9154  -2.9032  -2.8919  -2.8711  -2.8480  -2.8144  -2.7917
    -2.7873  -2.7607  -2.7541  -2.7297  -2.7235  -2.7155  -2.7095  -2.6958
    -2.6751  -2.6680  -2.6641  -2.6387  -2.6295  -2.6164  -2.6090  -2.5811
    -2.5751  -2.5749  -2.5391  -2.5280  -2.5076  -2.4845  -2.4730  -2.4604
    -2.4541  -2.4116  -2.4040  -2.3735  -2.3586  -2.3447  -2.3178  -2.2814
    -2.2760  -2.2711  -2.2263  -2.2121  -2.1900  -2.1780  -2.1540  -2.1419
    -2.1100  -2.0880  -2.0728  -2.0691  -2.0529  -2.0396  -2.0293  -2.0229
    -1.9970  -1.9530  -1.9401  -1.9195  -1.9081  -1.8901  -1.8842  -1.8667
    -1.8411  -1.8358  -1.8308  -1.8232  -1.7936  -1.7164  -1.7101  -1.6789
    -1.6728  -1.6535  -1.6344  -1.6298  -1.6170  -1.6069  -1.5908  -1.5807
    -1.5515  -1.5478  -1.5033  -1.4917  -1.4661  -1.4559  -1.4492  -1.4240
    -1.4050  -1.3947  -1.3844  -1.3643  -1.3594  -1.3320  -1.3066  -1.2974
    -1.2346  -1.2247  -1.1711  -1.1507  -1.1342  -1.1332  -1.0956  -1.0559
    -1.0307  -0.9969  -0.9305  -0.8507  -0.7309  -0.7160  -0.6193  -0.5724
    -0.5249  -0.5112  -0.3587  -0.2155   0.1776   0.2134   0.2357   0.2454
     0.2956   0.3067   0.3184   0.3276   0.3448   0.3569   0.3647   0.3679
     0.3750   0.3852   0.3972   0.3984   0.4028   0.4135   0.4179   0.4250
     0.4332   0.4378   0.4615   0.4639   0.4746   0.4817   0.4874   0.4907
     0.4961   0.4964   0.5076   0.5138   0.5211   0.5310   0.5350   0.5373
     0.5397   0.5636   0.5673   0.5716   0.5953   0.5983   0.6147   0.6182
     0.6244   0.6327   0.6417   0.6454   0.6511   0.6615   0.6626   0.6768
     0.6800   0.6832   0.6975   0.7029   0.7121   0.7138   0.7194   0.7313
     0.7409   0.7486   0.7637   0.7646   0.7764   0.7836   0.7925   0.8073
     0.8092   0.8256   0.8475   0.8560   0.8622   0.8657   0.8685   0.8758
     0.8823   0.9027   0.9072   0.9129   0.9192   0.9508   0.9671   0.9806
     0.9847   1.0343   1.0830   1.1102   1.1210   1.6843   1.7340   1.7459
     1.7733   1.7987   1.8095   1.8158   1.8216   1.8401   1.9075   1.9175
     1.9320   1.9687   1.9789   2.0041   2.0397   2.0440   2.0835   2.0897
     2.1356   2.1422   2.1724   2.1892   2.1945   2.1980   2.2092   2.2325
     2.2412   2.2733   2.2833   2.3029   2.3112   2.3231   2.3425   2.3556
     2.3709   2.3795   2.3848   2.4062   2.4148   2.4198   2.4380   2.4885
     2.5255   2.5304   2.5375   2.5467   2.5514   2.5763   2.5942   2.6156
     2.6608   2.6787   2.6953   2.7052   2.7254   2.8001   2.8041   2.8686
     2.8728   2.8887   3.7058   3.7194   3.7224   3.7819   3.7838   3.7963
     3.9044   3.9302   3.9561   3.9579   3.9809   3.9988   4.0092   4.0357
     4.0521   4.0585   4.1439   4.1460   4.1581   4.1795   4.6587   4.7144
     4.7929   4.8549   4.8807   4.9111   4.9352   4.9676   5.0408   5.0955
     5.1161   5.1464   5.4234   6.2412   6.3724   6.6120   6.6561   6.7590
     6.8084   6.8853   6.8900   6.9200   7.0202   7.0804   7.0911   7.1332
     7.2646   7.3458   7.3532   7.4337   7.4794   7.5336   7.5859   7.6330
     7.6380   7.6777   7.7343   7.7585   7.8077   7.8827   7.9026   7.9078
     8.0144   8.0262   8.0630   8.0893   8.1139   8.1768   8.1876   8.2073
     8.2617   8.2841   8.3028   8.3310   8.3776   8.4243   8.4277   8.4478
     8.4649   8.4772   8.4955   8.5257   8.5536   8.5718   8.5983   8.6196
     8.6630   8.6830   8.7217   8.7497   8.7668   8.7813   8.8296   8.8766

     the Fermi energy is     1.6583 ev

!    total energy              =   -7738.31682345 Ry
     estimated scf accuracy    <       0.00000078 Ry
     smearing contrib. (-TS)   =      -0.02219851 Ry
     internal energy E=F+TS    =   -7738.29462494 Ry

     The total energy is F=E-TS. E is the sum of the following terms:
     one-electron contribution =  -94714.76793122 Ry
     hartree contribution      =   47974.57234048 Ry
     xc contribution           =   -2218.72072590 Ry
     ewald contribution        =   41222.42913064 Ry
     Dispersion Correction     =      -1.80750017 Ry
     electric field correction =       0.00006124 Ry

     total magnetization       =    88.65 Bohr mag/cell
     absolute magnetization    =    90.03 Bohr mag/cell

     convergence has been achieved in 136 iterations

     negative rho (up, down):  1.053E-03 5.885E-04

     Forces acting on atoms (cartesian axes, Ry/au):

     atom    1 type  1   force =    -0.00006405    0.00069465    0.00034067
     atom    2 type  2   force =     0.00037076    0.00005962   -0.00033098
     atom    3 type  1   force =     0.00242897    0.00201627    0.00183456
     atom    4 type  1   force =    -0.00036754   -0.00017582    0.00046422
     atom    5 type  1   force =     0.00085202    0.00014199   -0.00006460
     atom    6 type  1   force =    -0.00008649    0.00008134   -0.00045375
     atom    7 type  3   force =    -0.00043336    0.00010699    0.00048112
     atom    8 type  3   force =     0.00011447   -0.00042359    0.00009507
     atom    9 type  3   force =    -0.00036318   -0.00010573    0.00052186
     atom   10 type  3   force =     0.00007498   -0.00007143   -0.00022938
     atom   11 type  4   force =    -0.00066929   -0.00003548    0.00026680
     atom   12 type  4   force =    -0.00001480   -0.00025754    0.00044973
     atom   13 type  4   force =    -0.00060920   -0.00030104    0.00055834
     atom   14 type  4   force =     0.00039196    0.00005068    0.00016335
     atom   15 type  4   force =     0.00044336    0.00008628    0.00009096
     atom   16 type  4   force =     0.00006449    0.00019118   -0.00005094
     atom   17 type  4   force =     0.00022391    0.00010475    0.00015874
     atom   18 type  4   force =     0.00010139    0.00008732   -0.00008874
     atom   19 type  4   force =    -0.00038075    0.00023138   -0.00007007
     atom   20 type  4   force =    -0.00001570    0.00030974   -0.00035444
     atom   21 type  4   force =     0.00010812   -0.00030024    0.00020426
     atom   22 type  4   force =    -0.00035376    0.00005279    0.00039006
     atom   23 type  4   force =    -0.00043031    0.00008129    0.00029141
     atom   24 type  4   force =     0.00080891   -0.00030057   -0.00065612
     atom   25 type  4   force =     0.00050122   -0.00035385   -0.00079696
     atom   26 type  4   force =     0.00009810    0.00025267    0.00045020
     atom   27 type  1   force =    -0.00649544   -0.00810784   -0.00405462
     atom   28 type  2   force =    -0.01211145    0.00029173   -0.00201391
     atom   29 type  1   force =     0.00433650   -0.00275044    0.00339567
     atom   30 type  1   force =     0.00242606    0.00383948   -0.00189822
     atom   31 type  1   force =     0.00180386   -0.00494948   -0.00048890
     atom   32 type  1   force =    -0.00128672    0.00124365    0.00167879
     atom   33 type  3   force =    -0.00710721   -0.00083726   -0.00046311
     atom   34 type  3   force =    -0.00621847    0.00320905   -0.00201829
     atom   35 type  3   force =     0.00408907   -0.00003170   -0.00414549
     atom   36 type  3   force =     0.00105448   -0.00131710    0.00295263
     atom   37 type  4   force =     0.00875552    0.00535752   -0.00776410
     atom   38 type  4   force =     0.00364949   -0.00104549    0.02072749
     atom   39 type  4   force =    -0.00115321    0.00364548    0.01014932
     atom   40 type  4   force =    -0.00160737   -0.00232212   -0.00886312
     atom   41 type  4   force =     0.00213071    0.00862039    0.00665202
     atom   42 type  4   force =    -0.00682091   -0.00315349   -0.01947910
     atom   43 type  4   force =     0.00944050    0.00733256   -0.00648336
     atom   44 type  4   force =     0.00722091   -0.00303701    0.00605688
     atom   45 type  4   force =     0.00225590    0.00585674   -0.00060358
     atom   46 type  4   force =     0.00334961    0.00098323    0.00497171
     atom   47 type  4   force =    -0.01320257    0.00023395    0.00330271
     atom   48 type  4   force =    -0.01447828    0.00256002   -0.00336007
     atom   49 type  4   force =     0.01313649    0.00289879   -0.00441871
     atom   50 type  4   force =    -0.00411050   -0.00393967    0.00000452
     atom   51 type  4   force =    -0.00437171    0.00259241   -0.00064957
     atom   52 type  4   force =     0.01620105   -0.00324114    0.00421822
     atom   53 type  1   force =    -0.00751585   -0.00685298   -0.00827183
     atom   54 type  2   force =     0.01573372    0.01744384   -0.00962667
     atom   55 type  1   force =     0.00577781   -0.00513907   -0.00575911
     atom   56 type  1   force =    -0.02053735    0.01897923    0.02025648
     atom   57 type  1   force =     0.00444374   -0.00749627   -0.00115761
     atom   58 type  1   force =    -0.00390642   -0.00534543   -0.00062557
     atom   59 type  3   force =    -0.03902958   -0.03834573   -0.05606616
     atom   60 type  3   force =    -0.00487138   -0.00126835   -0.00120143
     atom   61 type  3   force =     0.00272495   -0.00100668   -0.01017049
     atom   62 type  3   force =     0.02909831   -0.04950440   -0.06061328
     atom   63 type  4   force =     0.00626501    0.00351228    0.02095759
     atom   64 type  4   force =     0.00449446    0.00233002    0.01454732
     atom   65 type  4   force =    -0.00068533    0.00290485    0.01276502
     atom   66 type  4   force =     0.00014400    0.00211093    0.01618361
     atom   67 type  4   force =     0.00102909   -0.00067809    0.03899862
     atom   68 type  4   force =    -0.00564882   -0.00394802   -0.01722685
     atom   69 type  4   force =     0.00778106    0.00444994   -0.00268004
     atom   70 type  4   force =     0.00177094   -0.00743389    0.03523376
     atom   71 type  4   force =    -0.00907563    0.03925824    0.00091170
     atom   72 type  4   force =     0.00224564   -0.00037862    0.00792732
     atom   73 type  4   force =    -0.03018092    0.00087077    0.00762217
     atom   74 type  4   force =    -0.01341466    0.00143519   -0.00044215
     atom   75 type  4   force =     0.01194310    0.00349228   -0.00250956
     atom   76 type  4   force =    -0.00240686   -0.00289405    0.00256490
     atom   77 type  4   force =     0.00917349    0.02578641   -0.00256425
     atom   78 type  4   force =     0.03351566   -0.00637501    0.00617522
     atom   79 type  1   force =    -0.00011415    0.00048787   -0.00006737
     atom   80 type  2   force =     0.00016108   -0.00026188   -0.00010552
     atom   81 type  1   force =     0.00031276   -0.00004141   -0.00010049
     atom   82 type  1   force =    -0.00023159    0.00013561    0.00052874
     atom   83 type  1   force =     0.00092943    0.00013956    0.00037542
     atom   84 type  1   force =    -0.00041758   -0.00022672   -0.00056253
     atom   85 type  3   force =    -0.00035296   -0.00007913    0.00031530
     atom   86 type  3   force =    -0.00020233   -0.00005719    0.00023677
     atom   87 type  3   force =     0.00019829    0.00019534    0.00056991
     atom   88 type  3   force =     0.00066296    0.00009066   -0.00030714
     atom   89 type  4   force =    -0.00057161   -0.00035759    0.00023012
     atom   90 type  4   force =     0.00061022    0.00032487    0.00015571
     atom   91 type  4   force =    -0.00046569    0.00036097    0.00068280
     atom   92 type  4   force =     0.00010166    0.00041860   -0.00006730
     atom   93 type  4   force =     0.00009335    0.00063835   -0.00024251
     atom   94 type  4   force =     0.00002796    0.00056854    0.00002557
     atom   95 type  4   force =    -0.00017587    0.00056038    0.00041660
     atom   96 type  4   force =     0.00005950    0.00043559   -0.00009395
     atom   97 type  4   force =    -0.00072705    0.00021581   -0.00051840
     atom   98 type  4   force =    -0.00027249    0.00013329   -0.00017885
     atom   99 type  4   force =     0.00073163    0.00011706   -0.00004434
     atom  100 type  4   force =    -0.00007426    0.00036100    0.00006979
     atom  101 type  4   force =     0.00023948   -0.00008738   -0.00044187
     atom  102 type  4   force =     0.00090306   -0.00060858   -0.00049547
     atom  103 type  4   force =     0.00058531   -0.00007304   -0.00049296
     atom  104 type  4   force =    -0.00040675   -0.00009945    0.00067330
     atom  105 type  1   force =    -0.00578578   -0.00879323   -0.00435421
     atom  106 type  2   force =    -0.01213628    0.00025849   -0.00189163
     atom  107 type  1   force =     0.00280246   -0.00414263    0.00054000
     atom  108 type  1   force =     0.00243858    0.00376507   -0.00186594
     atom  109 type  1   force =     0.00183203   -0.00493985   -0.00043921
     atom  110 type  1   force =    -0.00087297    0.00124667    0.00176484
     atom  111 type  3   force =    -0.00706953   -0.00081608   -0.00050414
     atom  112 type  3   force =    -0.00680508    0.00249912   -0.00025592
     atom  113 type  3   force =     0.00400574   -0.00063121   -0.00543865
     atom  114 type  3   force =     0.00114500   -0.00127336    0.00286727
     atom  115 type  4   force =     0.00873092    0.00509088   -0.00769221
     atom  116 type  4   force =     0.00361154   -0.00107385    0.02028095
     atom  117 type  4   force =    -0.00125494    0.00348950    0.01022550
     atom  118 type  4   force =    -0.00156331   -0.00240813   -0.00896269
     atom  119 type  4   force =     0.00216887    0.00857565    0.00651640
     atom  120 type  4   force =    -0.00547297   -0.00354421   -0.01968874
     atom  121 type  4   force =     0.00979022    0.00658149   -0.00844276
     atom  122 type  4   force =     0.00702919   -0.00301822    0.00604523
     atom  123 type  4   force =     0.00201706    0.00588562   -0.00057612
     atom  124 type  4   force =     0.00308363    0.00142336    0.00503719
     atom  125 type  4   force =    -0.01307395    0.00020896    0.00322978
     atom  126 type  4   force =    -0.01447634    0.00262539   -0.00351830
     atom  127 type  4   force =     0.01245878    0.00264370   -0.00463532
     atom  128 type  4   force =    -0.00401396   -0.00407673   -0.00044226
     atom  129 type  4   force =    -0.00436857    0.00255862   -0.00055850
     atom  130 type  4   force =     0.01628035   -0.00323993    0.00418257
     atom  131 type  1   force =    -0.00752155   -0.00686382   -0.00826854
     atom  132 type  2   force =     0.01573694    0.01744937   -0.00962481
     atom  133 type  1   force =     0.00577983   -0.00513080   -0.00576638
     atom  134 type  1   force =    -0.02053681    0.01897624    0.02025608
     atom  135 type  1   force =     0.00444296   -0.00751215   -0.00116448
     atom  136 type  1   force =    -0.00388370   -0.00534292   -0.00061652
     atom  137 type  3   force =    -0.03902949   -0.03834279   -0.05607613
     atom  138 type  3   force =    -0.00486533   -0.00127012   -0.00118942
     atom  139 type  3   force =     0.00271529   -0.00100853   -0.01017692
     atom  140 type  3   force =     0.02909419   -0.04950104   -0.06061302
     atom  141 type  4   force =     0.00620525    0.00353219    0.02103846
     atom  142 type  4   force =     0.00441123    0.00233545    0.01457018
     atom  143 type  4   force =    -0.00061075    0.00280919    0.01280740
     atom  144 type  4   force =     0.00018750    0.00220053    0.01639121
     atom  145 type  4   force =     0.00118284   -0.00068053    0.03898428
     atom  146 type  4   force =    -0.00542233   -0.00394515   -0.01724799
     atom  147 type  4   force =     0.00776594    0.00450138   -0.00284605
     atom  148 type  4   force =     0.00166537   -0.00747416    0.03528449
     atom  149 type  4   force =    -0.00927056    0.03925811    0.00091109
     atom  150 type  4   force =     0.00203665   -0.00038054    0.00792807
     atom  151 type  4   force =    -0.03006547    0.00087187    0.00762611
     atom  152 type  4   force =    -0.01351439    0.00143775   -0.00044694
     atom  153 type  4   force =     0.01210341    0.00360841   -0.00251606
     atom  154 type  4   force =    -0.00244931   -0.00277679    0.00247819
     atom  155 type  4   force =     0.00907702    0.02581570   -0.00262251
     atom  156 type  4   force =     0.03348418   -0.00618989    0.00601122
     atom  157 type  4   force =    -0.00595107    0.00109402   -0.00500840
     atom  158 type  5   force =     0.00257835   -0.00172046    0.00161298

     Total force =     0.237231     Total SCF correction =     0.003620
 
     init_run     :      7.32s CPU      7.93s WALL (       1 calls)
     electrons    :   1740.79s CPU   1829.61s WALL (       1 calls)
     forces       :      3.77s CPU      4.24s WALL (       1 calls)
     force_london :      0.09s CPU      0.09s WALL (       1 calls)

     Called by init_run:
     wfcinit      :      4.37s CPU      4.57s WALL (       1 calls)
     potinit      :      0.56s CPU      0.73s WALL (       1 calls)
     hinit0       :      1.26s CPU      1.32s WALL (       1 calls)

     Called by electrons:
     c_bands      :   1374.67s CPU   1422.61s WALL (     136 calls)
     sum_band     :    230.40s CPU    252.24s WALL (     136 calls)
     v_of_rho     :     30.06s CPU     32.30s WALL (     137 calls)
     newd         :     67.09s CPU     83.74s WALL (     137 calls)
     mix_rho      :     36.56s CPU     36.77s WALL (     136 calls)
     energy_londo :      0.09s CPU      0.09s WALL (       1 calls)

     Called by c_bands:
     init_us_2    :      4.30s CPU      4.42s WALL (     548 calls)
     init_us_2:cp :      4.30s CPU      4.42s WALL (     548 calls)
     regterg      :   1345.35s CPU   1392.92s WALL (     274 calls)

     Called by *egterg:
     rdiaghg      :    393.60s CPU    417.62s WALL (    1145 calls)
     h_psi        :    523.34s CPU    534.10s WALL (    1147 calls)
     s_psi        :     98.26s CPU     98.38s WALL (    1147 calls)
     g_psi        :      0.69s CPU      0.69s WALL (     871 calls)

     Called by h_psi:
     h_psi:calbec :    130.78s CPU    139.29s WALL (    1147 calls)
     vloc_psi     :    292.10s CPU    293.32s WALL (    1147 calls)
     add_vuspsi   :     99.04s CPU    100.05s WALL (    1147 calls)

     General routines
     calbec       :    192.92s CPU    205.46s WALL (    1427 calls)
     fft          :     24.08s CPU     27.02s WALL (    2479 calls)
     ffts         :     23.08s CPU     23.15s WALL (   17015 calls)
     fftw         :    329.72s CPU    331.01s WALL (  457960 calls)
     interpolate  :      2.32s CPU      2.46s WALL (     274 calls)
 
     Parallel routines
 
     PWSCF        :  29m14.39s CPU  30m44.60s WALL

 
   This run was terminated on:  23:49:12  17Nov2025            

=------------------------------------------------------------------------------=
   JOB DONE.
=------------------------------------------------------------------------------=
