
     Program PWSCF v.7.2 starts on 17Nov2025 at 20: 5:35 

     This program is part of the open-source Quantum ESPRESSO suite
     for quantum simulation of materials; please cite
         "P. Giannozzi et al., J. Phys.:Condens. Matter 21 395502 (2009);
         "P. Giannozzi et al., J. Phys.:Condens. Matter 29 465901 (2017);
         "P. Giannozzi et al., J. Chem. Phys. 152 154105 (2020);
          URL http://www.quantum-espresso.org", 
     in publications or presentations arising from this work. More details at
     http://www.quantum-espresso.org/quote

     Parallel version (MPI), running on    64 processors

     MPI processes distributed on     4 nodes
     414332 MiB available memory on the printing compute node when the environment starts
 
     Reading input from ./H2_removed/PW.in

     Current dimensions of program PWSCF are:
     Max number of different atomic species (ntypx) = 10
     Max number of k-points (npk) =  40000
     Max angular momentum in pseudopotentials (lmaxx) =  4
     Presently no symmetry can be used with electric field

     Presently stress not available with electric field and gates

     file Ni.pbe-n-rrkjus_psl.1.0.0.UPF: wavefunction(s)  3D renormalized
     file Mn.pbe-spn-rrkjus_psl.0.3.1.UPF: wavefunction(s)  3D renormalized
     file O.pbe-rrkjus.UPF: wavefunction(s)  2S renormalized
     file H.pbe-rrkjus.UPF: wavefunction(s)  1S renormalized

     gamma-point specific algorithms are used
 
     R & G space division:  proc/nbgrp/npool/nimage =      64
     Subspace diagonalization in iterative solution of the eigenvalue problem:
     one sub-group per band group will be used
     custom distributed-memory algorithm (size of sub-group:  6*  6 procs)

 
     Parallelization info
     --------------------
     sticks:   dense  smooth     PW     G-vecs:    dense   smooth      PW
     Min         208      82     20                59912    15118    1876
     Max         210      84     22                59974    15196    1926
     Sum       13399    5355   1345              3836275   970529  121367
 
     Using Slab Decomposition
 


     bravais-lattice index     =            0
     lattice parameter (alat)  =      17.7004  a.u.
     unit-cell volume          =   20319.7251 (a.u.)^3
     number of atoms/cell      =          158
     number of atomic types    =            5
     number of electrons       =      1078.00
     number of Kohn-Sham states=          647
     kinetic-energy cutoff     =      50.0000  Ry
     charge density cutoff     =     500.0000  Ry
     scf convergence threshold =      1.0E-06
     mixing beta               =       0.1000
     number of iterations used =            8  local-TF  mixing
     energy convergence thresh.=      1.0E-04
     force convergence thresh. =      1.0E-03
     Exchange-correlation=  SLA  PW   PBE  PBE
                           (   1   4   3   4   0   0   0)
     nstep                     =         1000


     celldm(1)=  17.700384  celldm(2)=   0.000000  celldm(3)=   0.000000
     celldm(4)=   0.000000  celldm(5)=   0.000000  celldm(6)=   0.000000

     crystal axes: (cart. coord. in units of alat)
               a(1) = (   1.000000   0.000000   0.000000 )  
               a(2) = (   0.000000   1.075730   0.000000 )  
               a(3) = (   0.000000   0.000000   3.406172 )  

     reciprocal axes: (cart. coord. in units 2 pi/alat)
               b(1) = (  1.000000  0.000000  0.000000 )  
               b(2) = (  0.000000  0.929602  0.000000 )  
               b(3) = (  0.000000  0.000000  0.293585 )  


     PseudoPot. # 1 for Ni read from file:
     ~/PSEUDO/Ni.pbe-n-rrkjus_psl.1.0.0.UPF
     MD5 check sum: Not computed, couldn't open file
     Pseudo is Ultrasoft + core correction, Zval = 10.0
     Generated using "atomic" code by A. Dal Corso  v.5.1.2
     Using radial grid of 1195 points,  6 beta functions with: 
                l(1) =   0
                l(2) =   0
                l(3) =   1
                l(4) =   1
                l(5) =   2
                l(6) =   2
     Q(r) pseudized with 0 coefficients 


     PseudoPot. # 2 for Mn read from file:
     ~/PSEUDO/Mn.pbe-spn-rrkjus_psl.0.3.1.UPF
     MD5 check sum: Not computed, couldn't open file
     Pseudo is Ultrasoft + core correction, Zval = 15.0
     Generated using &quot;atomic&quot; code by A. Dal Corso  v.6.2.2
     Using radial grid of 1187 points,  6 beta functions with: 
                l(1) =   0
                l(2) =   0
                l(3) =   1
                l(4) =   1
                l(5) =   2
                l(6) =   2
     Q(r) pseudized with 0 coefficients 


     PseudoPot. # 3 for P  read from file:
     ~/PSEUDO/P.pbe-n-rrkjus_psl.1.0.0.UPF
     MD5 check sum: Not computed, couldn't open file
     Pseudo is Ultrasoft + core correction, Zval =  5.0
     Generated using "atomic" code by A. Dal Corso  v.5.1
     Using radial grid of 1147 points,  6 beta functions with: 
                l(1) =   0
                l(2) =   0
                l(3) =   1
                l(4) =   1
                l(5) =   2
                l(6) =   2
     Q(r) pseudized with 0 coefficients 


     PseudoPot. # 4 for O  read from file:
     ~/PSEUDO/O.pbe-rrkjus.UPF
     MD5 check sum: Not computed, couldn't open file
     Pseudo is Ultrasoft, Zval =  6.0
     Generated by new atomic code, or converted to UPF format
     Using radial grid of 1269 points,  4 beta functions with: 
                l(1) =   0
                l(2) =   0
                l(3) =   1
                l(4) =   1
     Q(r) pseudized with 0 coefficients 


     PseudoPot. # 5 for H  read from file:
     ~/PSEUDO/H.pbe-rrkjus.UPF
     MD5 check sum: Not computed, couldn't open file
     Pseudo is Ultrasoft, Zval =  1.0
     Generated by new atomic code, or converted to UPF format
     Using radial grid of 1061 points,  2 beta functions with: 
                l(1) =   0
                l(2) =   0
     Q(r) pseudized with 0 coefficients 


     atomic species   valence    mass     pseudopotential
     Ni               10.00    58.69300     Ni( 1.00)
     Mn               15.00    54.93800     Mn( 1.00)
     P                 5.00    30.97300     P ( 1.00)
     O                 6.00    15.99900     O ( 1.00)
     H                 1.00     1.00790     H ( 1.00)

     Starting magnetic structure 
     atomic species   magnetization
     Ni              1.000
     Mn              1.000
     P               1.000
     O               1.000
     H               0.000

     No symmetry found



   Cartesian axes

     site n.     atom                  positions (alat units)
         1        Mn     tau(   1) = (   0.2513289   0.8366376   1.6982279  )
         2        Ni     tau(   2) = (   0.4974347   0.7723839   1.3701531  )
         3        Ni     tau(   3) = (  -0.0016537   0.2963953   1.6764594  )
         4        Ni     tau(   4) = (   0.2604220   0.2375534   1.3681487  )
         5        Ni     tau(   5) = (   0.9954117   1.0756244   1.5353125  )
         6        Ni     tau(   6) = (   0.2569654   0.5361531   1.5328723  )
         7        Ni     tau(   7) = (   0.7543844   0.8338739   1.6764382  )
         8        Ni     tau(   8) = (   0.9922922   0.7734910   1.3718820  )
         9        Ni     tau(   9) = (   0.5014511   0.2956340   1.6760077  )
        10        Ni     tau(  10) = (   0.7604933   0.2356255   1.3669515  )
        11        Ni     tau(  11) = (   0.4971974   1.0741612   1.5345749  )
        12        Ni     tau(  12) = (   0.7569191   0.5343818   1.5309066  )
        13        P      tau(  13) = (   0.2096362   0.9715230   1.3807877  )
        14        P      tau(  14) = (   0.4710194   0.6431274   1.6899378  )
        15        P      tau(  15) = (   0.2847153   0.1151508   1.6957068  )
        16        P      tau(  16) = (   0.0445456   0.4320131   1.3714300  )
        17        O      tau(  17) = (   0.1334356   0.9002885   1.5169172  )
        18        O      tau(  18) = (   0.3926182   0.7054243   1.5474691  )
        19        O      tau(  19) = (   0.3639058   0.1699622   1.5487876  )
        20        O      tau(  20) = (   0.1221049   0.3614621   1.5080673  )
        21        O      tau(  21) = (   0.1477480   0.8817313   1.2565423  )
        22        O      tau(  22) = (   0.4119722   0.7392621   1.8082309  )
        23        O      tau(  23) = (   0.3444866   0.2141960   1.8091665  )
        24        O      tau(  24) = (   0.1045391   0.3443406   1.2448549  )
        25        O      tau(  25) = (   0.1037772   0.5873887   1.3757980  )
        26        O      tau(  26) = (   0.3397715   1.0324826   1.7000312  )
        27        O      tau(  27) = (   0.3810787   0.4249964   1.3830919  )
        28        O      tau(  28) = (   0.1196363   0.1153211   1.6813146  )
        29        O      tau(  29) = (   0.1310806   0.6478075   1.6825103  )
        30        O      tau(  30) = (   0.4128735   0.4867754   1.6905549  )
        31        O      tau(  31) = (   0.1507046   0.0504537   1.3800901  )
        32        O      tau(  32) = (   0.3735794   0.9622515   1.3891638  )
        33        P      tau(  33) = (   0.7095090   0.9704854   1.3728229  )
        34        P      tau(  34) = (   0.9654025   0.6444507   1.6939605  )
        35        P      tau(  35) = (   0.7849321   0.1090040   1.6936958  )
        36        P      tau(  36) = (   0.5450392   0.4306804   1.3701996  )
        37        O      tau(  37) = (   0.6318297   0.8987284   1.5089154  )
        38        O      tau(  38) = (   0.8894512   0.7058717   1.5478295  )
        39        O      tau(  39) = (   0.8629732   0.1696259   1.5477250  )
        40        O      tau(  40) = (   0.6225557   0.3590806   1.5063180  )
        41        O      tau(  41) = (   0.6495130   0.8822283   1.2463624  )
        42        O      tau(  42) = (   0.9072573   0.7437041   1.8086290  )
        43        O      tau(  43) = (   0.8447109   0.2070383   1.8083352  )
        44        O      tau(  44) = (   0.6054679   0.3423905   1.2440758  )
        45        O      tau(  45) = (   0.6058702   0.5854133   1.3737827  )
        46        O      tau(  46) = (   0.8416734   1.0271064   1.6929087  )
        47        O      tau(  47) = (   0.8806248   0.4243226   1.3833224  )
        48        O      tau(  48) = (   0.6196773   0.1112384   1.6798667  )
        49        O      tau(  49) = (   0.6356349   0.6477455   1.6777229  )
        50        O      tau(  50) = (   0.9087158   0.4874631   1.6918036  )
        51        O      tau(  51) = (   0.6493520   0.0493492   1.3760559  )
        52        O      tau(  52) = (   0.8734341   0.9630724   1.3858163  )
        53        Mn     tau(  53) = (   0.2404744   0.8246335   1.0701417  )
        54        Ni     tau(  54) = (   0.4968126   0.7601755   0.7454373  )
        55        Ni     tau(  55) = (   0.0066150   0.2811828   1.0628866  )
        56        Ni     tau(  56) = (   0.2585722   0.2230943   0.7421070  )
        57        Ni     tau(  57) = (   0.9987350   1.0571496   0.9014992  )
        58        Ni     tau(  58) = (   0.2517397   0.5205596   0.9040596  )
        59        Ni     tau(  59) = (   0.7451645   0.8212628   1.0648168  )
        60        Ni     tau(  60) = (   0.9939181   0.7613889   0.7462324  )
        61        Ni     tau(  61) = (   0.5111533   0.2799173   1.0618053  )
        62        Ni     tau(  62) = (   0.7606326   0.2194352   0.7418547  )
        63        Ni     tau(  63) = (   0.5024065   1.0563218   0.8999416  )
        64        Ni     tau(  64) = (   0.7529977   0.5192985   0.9024691  )
        65        P      tau(  65) = (   0.2092944   0.9606182   0.7524883  )
        66        P      tau(  66) = (   0.4655727   0.6234620   1.0595283  )
        67        P      tau(  67) = (   0.2910699   0.0902448   1.0573821  )
        68        P      tau(  68) = (   0.0396216   0.4163480   0.7471080  )
        69        O      tau(  69) = (   0.1294378   0.8888345   0.8859300  )
        70        O      tau(  70) = (   0.3874505   0.6929859   0.9232915  )
        71        O      tau(  71) = (   0.3702540   0.1589885   0.9209891  )
        72        O      tau(  72) = (   0.1184398   0.3458043   0.8831565  )
        73        O      tau(  73) = (   0.1451572   0.8725966   0.6282341  )
        74        O      tau(  74) = (   0.4048762   0.7120670   1.1852426  )
        75        O      tau(  75) = (   0.3523506   0.1775664   1.1834175  )
        76        O      tau(  76) = (   0.1017610   0.3285569   0.6213347  )
        77        O      tau(  77) = (   0.0975396   0.5724373   0.7511996  )
        78        O      tau(  78) = (   0.3483552   1.0190030   1.0599597  )
        79        O      tau(  79) = (   0.3784305   0.4100203   0.7560991  )
        80        O      tau(  80) = (   0.1268237   0.0943029   1.0477175  )
        81        O      tau(  81) = (   0.1212267   0.6299255   1.0507023  )
        82        O      tau(  82) = (   0.4053315   0.4684472   1.0569297  )
        83        O      tau(  83) = (   0.1536621   0.0322003   0.7496532  )
        84        O      tau(  84) = (   0.3732349   0.9506802   0.7613277  )
        85        P      tau(  85) = (   0.7119823   0.9571059   0.7496908  )
        86        P      tau(  86) = (   0.9615208   0.6238477   1.0606987  )
        87        P      tau(  87) = (   0.7927710   0.0845145   1.0577754  )
        88        P      tau(  88) = (   0.5426404   0.4144760   0.7459181  )
        89        O      tau(  89) = (   0.6326879   0.8866267   0.8856678  )
        90        O      tau(  90) = (   0.8842163   0.6958291   0.9244764  )
        91        O      tau(  91) = (   0.8716178   0.1552836   0.9216415  )
        92        O      tau(  92) = (   0.6212010   0.3433751   0.8818834  )
        93        O      tau(  93) = (   0.6507714   0.8687427   0.6238197  )
        94        O      tau(  94) = (   0.9014054   0.7139543   1.1859242  )
        95        O      tau(  95) = (   0.8548963   0.1722994   1.1834447  )
        96        O      tau(  96) = (   0.6044469   0.3253792   0.6209553  )
        97        O      tau(  97) = (   0.6024424   0.5698225   0.7490903  )
        98        O      tau(  98) = (   0.8498940   1.0129567   1.0594762  )
        99        O      tau(  99) = (   0.8798395   0.4080910   0.7564148  )
       100        O      tau( 100) = (   0.6286921   0.0909721   1.0472573  )
       101        O      tau( 101) = (   0.6294973   0.6302838   1.0497366  )
       102        O      tau( 102) = (   0.9024339   0.4685397   1.0573501  )
       103        O      tau( 103) = (   0.6547812   0.0286072   0.7473283  )
       104        O      tau( 104) = (   0.8760507   0.9507690   0.7605412  )
       105        Mn     tau( 105) = (   0.2404744   0.8121420   0.4502541  )
       106        Ni     tau( 106) = (   0.4968126   0.7476840   0.1255496  )
       107        Ni     tau( 107) = (   0.0066150   0.2686914   0.4429989  )
       108        Ni     tau( 108) = (   0.2585722   0.2106028   0.1222194  )
       109        Ni     tau( 109) = (   0.9987350   1.0446581   0.2816116  )
       110        Ni     tau( 110) = (   0.2517397   0.5080681   0.2841720  )
       111        Ni     tau( 111) = (   0.7451645   0.8087713   0.4449291  )
       112        Ni     tau( 112) = (   0.9939181   0.7488974   0.1263448  )
       113        Ni     tau( 113) = (   0.5111533   0.2674258   0.4419177  )
       114        Ni     tau( 114) = (   0.7606326   0.2069438   0.1219670  )
       115        Ni     tau( 115) = (   0.5024065   1.0438304   0.2800540  )
       116        Ni     tau( 116) = (   0.7529977   0.5068070   0.2825815  )
       117        P      tau( 117) = (   0.2092944   0.9481267   0.1326007  )
       118        P      tau( 118) = (   0.4655727   0.6109705   0.4396407  )
       119        P      tau( 119) = (   0.2910699   0.0777534   0.4374945  )
       120        P      tau( 120) = (   0.0396216   0.4038566   0.1272204  )
       121        O      tau( 121) = (   0.1294378   0.8763430   0.2660424  )
       122        O      tau( 122) = (   0.3874505   0.6804944   0.3034039  )
       123        O      tau( 123) = (   0.3702540   0.1464970   0.3011014  )
       124        O      tau( 124) = (   0.1184398   0.3333129   0.2632689  )
       125        O      tau( 125) = (   0.1451572   0.8601051   0.0083464  )
       126        O      tau( 126) = (   0.4048762   0.6995756   0.5653550  )
       127        O      tau( 127) = (   0.3523506   0.1650749   0.5635298  )
       128        O      tau( 128) = (   0.1017610   0.3160655   0.0014470  )
       129        O      tau( 129) = (   0.0975396   0.5599458   0.1313120  )
       130        O      tau( 130) = (   0.3483552   1.0065115   0.4400720  )
       131        O      tau( 131) = (   0.3784305   0.3975288   0.1362114  )
       132        O      tau( 132) = (   0.1268237   0.0818115   0.4278298  )
       133        O      tau( 133) = (   0.1212267   0.6174340   0.4308146  )
       134        O      tau( 134) = (   0.4053315   0.4559557   0.4370420  )
       135        O      tau( 135) = (   0.1536621   0.0197088   0.1297656  )
       136        O      tau( 136) = (   0.3732349   0.9381887   0.1414400  )
       137        P      tau( 137) = (   0.7119823   0.9446144   0.1298032  )
       138        P      tau( 138) = (   0.9615208   0.6113562   0.4408111  )
       139        P      tau( 139) = (   0.7927710   0.0720230   0.4378878  )
       140        P      tau( 140) = (   0.5426404   0.4019845   0.1260304  )
       141        O      tau( 141) = (   0.6326879   0.8741353   0.2657802  )
       142        O      tau( 142) = (   0.8842163   0.6833376   0.3045887  )
       143        O      tau( 143) = (   0.8716178   0.1427921   0.3017538  )
       144        O      tau( 144) = (   0.6212010   0.3308836   0.2619957  )
       145        O      tau( 145) = (   0.6507714   0.8562512   0.0039320  )
       146        O      tau( 146) = (   0.9014054   0.7014628   0.5660366  )
       147        O      tau( 147) = (   0.8548963   0.1598079   0.5635571  )
       148        O      tau( 148) = (   0.6044469   0.3128877   0.0010676  )
       149        O      tau( 149) = (   0.6024424   0.5573310   0.1292027  )
       150        O      tau( 150) = (   0.8498940   1.0004653   0.4395886  )
       151        O      tau( 151) = (   0.8798395   0.3955995   0.1365272  )
       152        O      tau( 152) = (   0.6286921   0.0784807   0.4273696  )
       153        O      tau( 153) = (   0.6294973   0.6177923   0.4298489  )
       154        O      tau( 154) = (   0.9024339   0.4560482   0.4374624  )
       155        O      tau( 155) = (   0.6547812   0.0161158   0.1274406  )
       156        O      tau( 156) = (   0.8760507   0.9382775   0.1406535  )
       157        O      tau( 157) = (   0.6312713   0.9461250   1.8841808  )
       158        H      tau( 158) = (   0.5442448   0.8796551   1.8868010  )

     -------------------------------------------------
     Parameters for Dispersion (Grimme-D2) Correction:
     -------------------------------------------------
       atom      VdW radius       C_6     

        Ni         2.952        374.666
        Mn         2.952        374.666
        P          3.222        271.980
        O          2.536         24.284
        H          1.892          4.857

     number of k points=     1  Gaussian smearing, width (Ry)=  0.0100
                       cart. coord. in units 2pi/alat
        k(    1) = (   0.0000000   0.0000000   0.0000000), wk =   1.0000000

     Dense  grid:  1918138 G-vectors     FFT dimensions: ( 125, 135, 432)

     Smooth grid:   485265 G-vectors     FFT dimensions: (  80,  90, 288)

     Estimated max dynamical RAM per process >     320.12 MB

     Estimated total dynamical RAM >      20.01 GB
     Generating pointlists ...
     new r_m :   0.0866 (alat units)  1.5324 (a.u.) for type    1
     new r_m :   0.0869 (alat units)  1.5388 (a.u.) for type    2
     new r_m :   0.0650 (alat units)  1.1499 (a.u.) for type    3
     new r_m :   0.0452 (alat units)  0.7998 (a.u.) for type    4
     new r_m :   0.0452 (alat units)  0.7998 (a.u.) for type    5

     Initial potential from superposition of free atoms

     starting charge    1077.8900, renormalised to    1078.0000

     negative rho (up, down):  1.212E-03 4.554E-04
 
     Adding external electric field

     Computed dipole along edir(3) : 
        Dipole                1.6556 Ry au,          4.2081 Debye
        Dipole field          0.0010 Ry au, 
 
        Potential amp.       -0.1111 Ry
        Total length         54.2615 bohr
 
 
     Adding external electric field

     Computed dipole along edir(3) : 
        Dipole                1.6556 Ry au,          4.2081 Debye
        Dipole field          0.0010 Ry au, 
 
        Potential amp.       -0.1111 Ry
        Total length         54.2615 bohr
 
     Starting wfcs are  812 randomized atomic wfcs

     total cpu time spent up to now is       11.1 secs

     Self-consistent Calculation

     iteration #  1     ecut=    50.00 Ry     beta= 0.10
     Davidson diagonalization with overlap
     ethr =  1.00E-02,  avg # of iterations =  6.0

     negative rho (up, down):  3.551E-01 1.816E-06
 
     Adding external electric field

     Computed dipole along edir(3) : 
        Dipole               -3.3949 Ry au,         -8.6289 Debye
        Dipole field         -0.0021 Ry au, 
 
        Potential amp.        0.2278 Ry
        Total length         54.2615 bohr
 
 
     Adding external electric field

     Computed dipole along edir(3) : 
        Dipole               -3.3949 Ry au,         -8.6289 Debye
        Dipole field         -0.0021 Ry au, 
 
        Potential amp.        0.2278 Ry
        Total length         54.2615 bohr
 

     total cpu time spent up to now is       40.6 secs

     total energy              =   -7178.61740428 Ry
     estimated scf accuracy    <     734.64179436 Ry

     total magnetization       =   216.00 Bohr mag/cell
     absolute magnetization    =   298.64 Bohr mag/cell

     iteration #  2     ecut=    50.00 Ry     beta= 0.10
     Davidson diagonalization with overlap
     ethr =  1.00E-02,  avg # of iterations =  2.0

     negative rho (up, down):  3.341E-01 1.553E-06
 
     Adding external electric field

     Computed dipole along edir(3) : 
        Dipole               -2.3353 Ry au,         -5.9357 Debye
        Dipole field         -0.0014 Ry au, 
 
        Potential amp.        0.1567 Ry
        Total length         54.2615 bohr
 
 
     Adding external electric field

     Computed dipole along edir(3) : 
        Dipole               -2.3353 Ry au,         -5.9357 Debye
        Dipole field         -0.0014 Ry au, 
 
        Potential amp.        0.1567 Ry
        Total length         54.2615 bohr
 

     total cpu time spent up to now is       57.4 secs

     total energy              =   -7263.53003800 Ry
     estimated scf accuracy    <     188.80187956 Ry

     total magnetization       =   147.56 Bohr mag/cell
     absolute magnetization    =   197.62 Bohr mag/cell

     iteration #  3     ecut=    50.00 Ry     beta= 0.10
     Davidson diagonalization with overlap
     ethr =  1.00E-02,  avg # of iterations =  1.5

     negative rho (up, down):  2.941E-01 1.430E-06
 
     Adding external electric field

     Computed dipole along edir(3) : 
        Dipole               -1.9494 Ry au,         -4.9548 Debye
        Dipole field         -0.0012 Ry au, 
 
        Potential amp.        0.1308 Ry
        Total length         54.2615 bohr
 
 
     Adding external electric field

     Computed dipole along edir(3) : 
        Dipole               -1.9494 Ry au,         -4.9548 Debye
        Dipole field         -0.0012 Ry au, 
 
        Potential amp.        0.1308 Ry
        Total length         54.2615 bohr
 

     total cpu time spent up to now is       70.7 secs

     total energy              =   -7295.28338212 Ry
     estimated scf accuracy    <      99.26042964 Ry

     total magnetization       =   123.67 Bohr mag/cell
     absolute magnetization    =   176.73 Bohr mag/cell

     iteration #  4     ecut=    50.00 Ry     beta= 0.10
     Davidson diagonalization with overlap
     ethr =  9.21E-03,  avg # of iterations =  1.0

     negative rho (up, down):  2.248E-01 4.345E-07
 
     Adding external electric field

     Computed dipole along edir(3) : 
        Dipole               -1.9766 Ry au,         -5.0240 Debye
        Dipole field         -0.0012 Ry au, 
 
        Potential amp.        0.1327 Ry
        Total length         54.2615 bohr
 
 
     Adding external electric field

     Computed dipole along edir(3) : 
        Dipole               -1.9766 Ry au,         -5.0240 Debye
        Dipole field         -0.0012 Ry au, 
 
        Potential amp.        0.1327 Ry
        Total length         54.2615 bohr
 

     total cpu time spent up to now is       83.1 secs

     total energy              =   -7327.33020655 Ry
     estimated scf accuracy    <      78.43298772 Ry

     total magnetization       =   108.55 Bohr mag/cell
     absolute magnetization    =   162.50 Bohr mag/cell

     iteration #  5     ecut=    50.00 Ry     beta= 0.10
     Davidson diagonalization with overlap
     ethr =  7.28E-03,  avg # of iterations =  1.0

     negative rho (up, down):  1.348E-02 2.817E-07
 
     Adding external electric field

     Computed dipole along edir(3) : 
        Dipole               -1.5685 Ry au,         -3.9866 Debye
        Dipole field         -0.0010 Ry au, 
 
        Potential amp.        0.1053 Ry
        Total length         54.2615 bohr
 
 
     Adding external electric field

     Computed dipole along edir(3) : 
        Dipole               -1.5685 Ry au,         -3.9866 Debye
        Dipole field         -0.0010 Ry au, 
 
        Potential amp.        0.1053 Ry
        Total length         54.2615 bohr
 

     total cpu time spent up to now is       95.5 secs

     total energy              =   -7386.82083309 Ry
     estimated scf accuracy    <      62.10872076 Ry

     total magnetization       =    88.01 Bohr mag/cell
     absolute magnetization    =   144.44 Bohr mag/cell

     iteration #  6     ecut=    50.00 Ry     beta= 0.10
     Davidson diagonalization with overlap
     ethr =  5.76E-03,  avg # of iterations =  1.5

     negative rho (up, down):  1.684E-03 7.708E-04
 
     Adding external electric field

     Computed dipole along edir(3) : 
        Dipole               -1.2638 Ry au,         -3.2123 Debye
        Dipole field         -0.0008 Ry au, 
 
        Potential amp.        0.0848 Ry
        Total length         54.2615 bohr
 
 
     Adding external electric field

     Computed dipole along edir(3) : 
        Dipole               -1.2638 Ry au,         -3.2123 Debye
        Dipole field         -0.0008 Ry au, 
 
        Potential amp.        0.0848 Ry
        Total length         54.2615 bohr
 

     total cpu time spent up to now is      108.9 secs

     total energy              =   -7395.64083498 Ry
     estimated scf accuracy    <      10.64644645 Ry

     total magnetization       =    82.00 Bohr mag/cell
     absolute magnetization    =   114.19 Bohr mag/cell

     iteration #  7     ecut=    50.00 Ry     beta= 0.10
     Davidson diagonalization with overlap
     ethr =  9.88E-04,  avg # of iterations =  5.5

     negative rho (up, down):  1.635E-03 7.316E-04
 
     Adding external electric field

     Computed dipole along edir(3) : 
        Dipole               -1.2575 Ry au,         -3.1961 Debye
        Dipole field         -0.0008 Ry au, 
 
        Potential amp.        0.0844 Ry
        Total length         54.2615 bohr
 
 
     Adding external electric field

     Computed dipole along edir(3) : 
        Dipole               -1.2575 Ry au,         -3.1961 Debye
        Dipole field         -0.0008 Ry au, 
 
        Potential amp.        0.0844 Ry
        Total length         54.2615 bohr
 

     total cpu time spent up to now is      130.8 secs

     total energy              =   -7397.63074868 Ry
     estimated scf accuracy    <      15.32804142 Ry

     total magnetization       =    69.83 Bohr mag/cell
     absolute magnetization    =    86.76 Bohr mag/cell

     iteration #  8     ecut=    50.00 Ry     beta= 0.10
     Davidson diagonalization with overlap
     ethr =  9.88E-04,  avg # of iterations =  1.0

     negative rho (up, down):  1.177E-03 5.044E-04
 
     Adding external electric field

     Computed dipole along edir(3) : 
        Dipole               -1.1482 Ry au,         -2.9185 Debye
        Dipole field         -0.0007 Ry au, 
 
        Potential amp.        0.0771 Ry
        Total length         54.2615 bohr
 
 
     Adding external electric field

     Computed dipole along edir(3) : 
        Dipole               -1.1482 Ry au,         -2.9185 Debye
        Dipole field         -0.0007 Ry au, 
 
        Potential amp.        0.0771 Ry
        Total length         54.2615 bohr
 

     total cpu time spent up to now is      143.2 secs

     total energy              =   -7397.57892152 Ry
     estimated scf accuracy    <      14.21450802 Ry

     total magnetization       =    70.41 Bohr mag/cell
     absolute magnetization    =    86.99 Bohr mag/cell

     iteration #  9     ecut=    50.00 Ry     beta= 0.10
     Davidson diagonalization with overlap
     ethr =  9.88E-04,  avg # of iterations =  1.0

     negative rho (up, down):  3.337E-04 3.687E-04
 
     Adding external electric field

     Computed dipole along edir(3) : 
        Dipole               -0.8109 Ry au,         -2.0610 Debye
        Dipole field         -0.0005 Ry au, 
 
        Potential amp.        0.0544 Ry
        Total length         54.2615 bohr
 
 
     Adding external electric field

     Computed dipole along edir(3) : 
        Dipole               -0.8109 Ry au,         -2.0610 Debye
        Dipole field         -0.0005 Ry au, 
 
        Potential amp.        0.0544 Ry
        Total length         54.2615 bohr
 

     total cpu time spent up to now is      155.3 secs

     total energy              =   -7397.49294067 Ry
     estimated scf accuracy    <      10.65552289 Ry

     total magnetization       =    71.74 Bohr mag/cell
     absolute magnetization    =    87.40 Bohr mag/cell

     iteration # 10     ecut=    50.00 Ry     beta= 0.10
     Davidson diagonalization with overlap
     ethr =  9.88E-04,  avg # of iterations =  1.0

     negative rho (up, down):  4.976E-04 3.375E-04
 
     Adding external electric field

     Computed dipole along edir(3) : 
        Dipole               -0.9859 Ry au,         -2.5059 Debye
        Dipole field         -0.0006 Ry au, 
 
        Potential amp.        0.0662 Ry
        Total length         54.2615 bohr
 
 
     Adding external electric field

     Computed dipole along edir(3) : 
        Dipole               -0.9859 Ry au,         -2.5059 Debye
        Dipole field         -0.0006 Ry au, 
 
        Potential amp.        0.0662 Ry
        Total length         54.2615 bohr
 

     total cpu time spent up to now is      167.2 secs

     total energy              =   -7397.54845936 Ry
     estimated scf accuracy    <       7.19642830 Ry

     total magnetization       =    72.54 Bohr mag/cell
     absolute magnetization    =    85.77 Bohr mag/cell

     iteration # 11     ecut=    50.00 Ry     beta= 0.10
     Davidson diagonalization with overlap
     ethr =  6.68E-04,  avg # of iterations =  1.5

     negative rho (up, down):  8.165E-04 1.871E-03
 
     Adding external electric field

     Computed dipole along edir(3) : 
        Dipole               -0.8321 Ry au,         -2.1149 Debye
        Dipole field         -0.0005 Ry au, 
 
        Potential amp.        0.0558 Ry
        Total length         54.2615 bohr
 
 
     Adding external electric field

     Computed dipole along edir(3) : 
        Dipole               -0.8321 Ry au,         -2.1149 Debye
        Dipole field         -0.0005 Ry au, 
 
        Potential amp.        0.0558 Ry
        Total length         54.2615 bohr
 

     total cpu time spent up to now is      179.7 secs

     total energy              =   -7397.35394287 Ry
     estimated scf accuracy    <       6.47602165 Ry

     total magnetization       =    72.25 Bohr mag/cell
     absolute magnetization    =    85.37 Bohr mag/cell

     iteration # 12     ecut=    50.00 Ry     beta= 0.10
     Davidson diagonalization with overlap
     ethr =  6.01E-04,  avg # of iterations =  2.0

     negative rho (up, down):  7.106E-04 1.692E-03
 
     Adding external electric field

     Computed dipole along edir(3) : 
        Dipole               -0.7523 Ry au,         -1.9123 Debye
        Dipole field         -0.0005 Ry au, 
 
        Potential amp.        0.0505 Ry
        Total length         54.2615 bohr
 
 
     Adding external electric field

     Computed dipole along edir(3) : 
        Dipole               -0.7523 Ry au,         -1.9123 Debye
        Dipole field         -0.0005 Ry au, 
 
        Potential amp.        0.0505 Ry
        Total length         54.2615 bohr
 

     total cpu time spent up to now is      193.0 secs

     total energy              =   -7397.75745368 Ry
     estimated scf accuracy    <       0.77074464 Ry

     total magnetization       =    81.46 Bohr mag/cell
     absolute magnetization    =    88.79 Bohr mag/cell

     iteration # 13     ecut=    50.00 Ry     beta= 0.10
     Davidson diagonalization with overlap
     ethr =  7.15E-05,  avg # of iterations = 16.0

     negative rho (up, down):  1.339E-04 5.069E-04
 
     Adding external electric field

     Computed dipole along edir(3) : 
        Dipole               -0.5716 Ry au,         -1.4529 Debye
        Dipole field         -0.0004 Ry au, 
 
        Potential amp.        0.0384 Ry
        Total length         54.2615 bohr
 
 
     Adding external electric field

     Computed dipole along edir(3) : 
        Dipole               -0.5716 Ry au,         -1.4529 Debye
        Dipole field         -0.0004 Ry au, 
 
        Potential amp.        0.0384 Ry
        Total length         54.2615 bohr
 

     total cpu time spent up to now is      217.7 secs

     total energy              =   -7397.78027316 Ry
     estimated scf accuracy    <       0.80154049 Ry

     total magnetization       =    81.22 Bohr mag/cell
     absolute magnetization    =    87.70 Bohr mag/cell

     iteration # 14     ecut=    50.00 Ry     beta= 0.10
     Davidson diagonalization with overlap
     ethr =  7.15E-05,  avg # of iterations =  1.5

     negative rho (up, down):  1.246E-04 5.781E-04
 
     Adding external electric field

     Computed dipole along edir(3) : 
        Dipole               -0.6612 Ry au,         -1.6805 Debye
        Dipole field         -0.0004 Ry au, 
 
        Potential amp.        0.0444 Ry
        Total length         54.2615 bohr
 
 
     Adding external electric field

     Computed dipole along edir(3) : 
        Dipole               -0.6612 Ry au,         -1.6805 Debye
        Dipole field         -0.0004 Ry au, 
 
        Potential amp.        0.0444 Ry
        Total length         54.2615 bohr
 

     total cpu time spent up to now is      230.4 secs

     total energy              =   -7397.74163047 Ry
     estimated scf accuracy    <       3.30345891 Ry

     total magnetization       =    79.23 Bohr mag/cell
     absolute magnetization    =    85.38 Bohr mag/cell

     iteration # 15     ecut=    50.00 Ry     beta= 0.10
     Davidson diagonalization with overlap
     ethr =  7.15E-05,  avg # of iterations =  1.5

     negative rho (up, down):  2.144E-04 3.974E-04
 
     Adding external electric field

     Computed dipole along edir(3) : 
        Dipole               -0.7459 Ry au,         -1.8960 Debye
        Dipole field         -0.0005 Ry au, 
 
        Potential amp.        0.0501 Ry
        Total length         54.2615 bohr
 
 
     Adding external electric field

     Computed dipole along edir(3) : 
        Dipole               -0.7459 Ry au,         -1.8960 Debye
        Dipole field         -0.0005 Ry au, 
 
        Potential amp.        0.0501 Ry
        Total length         54.2615 bohr
 

     total cpu time spent up to now is      243.0 secs

     total energy              =   -7397.76080276 Ry
     estimated scf accuracy    <       2.15922444 Ry

     total magnetization       =    78.99 Bohr mag/cell
     absolute magnetization    =    85.31 Bohr mag/cell

     iteration # 16     ecut=    50.00 Ry     beta= 0.10
     Davidson diagonalization with overlap
     ethr =  7.15E-05,  avg # of iterations =  1.5

     negative rho (up, down):  1.946E-04 6.134E-04
 
     Adding external electric field

     Computed dipole along edir(3) : 
        Dipole               -0.6524 Ry au,         -1.6582 Debye
        Dipole field         -0.0004 Ry au, 
 
        Potential amp.        0.0438 Ry
        Total length         54.2615 bohr
 
 
     Adding external electric field

     Computed dipole along edir(3) : 
        Dipole               -0.6524 Ry au,         -1.6582 Debye
        Dipole field         -0.0004 Ry au, 
 
        Potential amp.        0.0438 Ry
        Total length         54.2615 bohr
 

     total cpu time spent up to now is      255.5 secs

     total energy              =   -7397.76069978 Ry
     estimated scf accuracy    <       0.88668265 Ry

     total magnetization       =    80.48 Bohr mag/cell
     absolute magnetization    =    87.08 Bohr mag/cell

     iteration # 17     ecut=    50.00 Ry     beta= 0.10
     Davidson diagonalization with overlap
     ethr =  7.15E-05,  avg # of iterations =  1.5

     negative rho (up, down):  1.376E-04 2.296E-04
 
     Adding external electric field

     Computed dipole along edir(3) : 
        Dipole               -0.7581 Ry au,         -1.9268 Debye
        Dipole field         -0.0005 Ry au, 
 
        Potential amp.        0.0509 Ry
        Total length         54.2615 bohr
 
 
     Adding external electric field

     Computed dipole along edir(3) : 
        Dipole               -0.7581 Ry au,         -1.9268 Debye
        Dipole field         -0.0005 Ry au, 
 
        Potential amp.        0.0509 Ry
        Total length         54.2615 bohr
 

     total cpu time spent up to now is      268.2 secs

     total energy              =   -7397.85109122 Ry
     estimated scf accuracy    <       1.73658455 Ry

     total magnetization       =    79.65 Bohr mag/cell
     absolute magnetization    =    86.15 Bohr mag/cell

     iteration # 18     ecut=    50.00 Ry     beta= 0.10
     Davidson diagonalization with overlap
     ethr =  7.15E-05,  avg # of iterations =  1.5

     negative rho (up, down):  2.287E-05 1.287E-04
 
     Adding external electric field

     Computed dipole along edir(3) : 
        Dipole               -0.6491 Ry au,         -1.6499 Debye
        Dipole field         -0.0004 Ry au, 
 
        Potential amp.        0.0436 Ry
        Total length         54.2615 bohr
 
 
     Adding external electric field

     Computed dipole along edir(3) : 
        Dipole               -0.6491 Ry au,         -1.6499 Debye
        Dipole field         -0.0004 Ry au, 
 
        Potential amp.        0.0436 Ry
        Total length         54.2615 bohr
 

     total cpu time spent up to now is      280.8 secs

     total energy              =   -7397.91142741 Ry
     estimated scf accuracy    <       0.33928304 Ry

     total magnetization       =    81.08 Bohr mag/cell
     absolute magnetization    =    85.96 Bohr mag/cell

     iteration # 19     ecut=    50.00 Ry     beta= 0.10
     Davidson diagonalization with overlap
     ethr =  3.15E-05,  avg # of iterations =  2.0

     negative rho (up, down):  2.306E-05 1.154E-04
 
     Adding external electric field

     Computed dipole along edir(3) : 
        Dipole               -0.6274 Ry au,         -1.5948 Debye
        Dipole field         -0.0004 Ry au, 
 
        Potential amp.        0.0421 Ry
        Total length         54.2615 bohr
 
 
     Adding external electric field

     Computed dipole along edir(3) : 
        Dipole               -0.6274 Ry au,         -1.5948 Debye
        Dipole field         -0.0004 Ry au, 
 
        Potential amp.        0.0421 Ry
        Total length         54.2615 bohr
 

     total cpu time spent up to now is      294.0 secs

     total energy              =   -7397.93840713 Ry
     estimated scf accuracy    <       0.41815127 Ry

     total magnetization       =    79.89 Bohr mag/cell
     absolute magnetization    =    82.77 Bohr mag/cell

     iteration # 20     ecut=    50.00 Ry     beta= 0.10
     Davidson diagonalization with overlap
     ethr =  3.15E-05,  avg # of iterations =  1.0

     negative rho (up, down):  5.574E-06 7.098E-05
 
     Adding external electric field

     Computed dipole along edir(3) : 
        Dipole               -0.6705 Ry au,         -1.7044 Debye
        Dipole field         -0.0004 Ry au, 
 
        Potential amp.        0.0450 Ry
        Total length         54.2615 bohr
 
 
     Adding external electric field

     Computed dipole along edir(3) : 
        Dipole               -0.6705 Ry au,         -1.7044 Debye
        Dipole field         -0.0004 Ry au, 
 
        Potential amp.        0.0450 Ry
        Total length         54.2615 bohr
 

     total cpu time spent up to now is      305.2 secs

     total energy              =   -7397.94494773 Ry
     estimated scf accuracy    <       0.62839555 Ry

     total magnetization       =    79.50 Bohr mag/cell
     absolute magnetization    =    82.31 Bohr mag/cell

     iteration # 21     ecut=    50.00 Ry     beta= 0.10
     Davidson diagonalization with overlap
     ethr =  3.15E-05,  avg # of iterations =  2.0

     negative rho (up, down):  4.123E-06 6.230E-05
 
     Adding external electric field

     Computed dipole along edir(3) : 
        Dipole               -0.6622 Ry au,         -1.6832 Debye
        Dipole field         -0.0004 Ry au, 
 
        Potential amp.        0.0444 Ry
        Total length         54.2615 bohr
 
 
     Adding external electric field

     Computed dipole along edir(3) : 
        Dipole               -0.6622 Ry au,         -1.6832 Debye
        Dipole field         -0.0004 Ry au, 
 
        Potential amp.        0.0444 Ry
        Total length         54.2615 bohr
 

     total cpu time spent up to now is      318.0 secs

     total energy              =   -7397.96226227 Ry
     estimated scf accuracy    <       0.96429537 Ry

     total magnetization       =    78.28 Bohr mag/cell
     absolute magnetization    =    80.43 Bohr mag/cell

     iteration # 22     ecut=    50.00 Ry     beta= 0.10
     Davidson diagonalization with overlap
     ethr =  3.15E-05,  avg # of iterations =  1.0

     negative rho (up, down):  3.721E-06 1.804E-04
 
     Adding external electric field

     Computed dipole along edir(3) : 
        Dipole               -0.6867 Ry au,         -1.7455 Debye
        Dipole field         -0.0004 Ry au, 
 
        Potential amp.        0.0461 Ry
        Total length         54.2615 bohr
 
 
     Adding external electric field

     Computed dipole along edir(3) : 
        Dipole               -0.6867 Ry au,         -1.7455 Debye
        Dipole field         -0.0004 Ry au, 
 
        Potential amp.        0.0461 Ry
        Total length         54.2615 bohr
 

     total cpu time spent up to now is      329.6 secs

     total energy              =   -7397.90848622 Ry
     estimated scf accuracy    <       0.96484106 Ry

     total magnetization       =    78.37 Bohr mag/cell
     absolute magnetization    =    80.47 Bohr mag/cell

     iteration # 23     ecut=    50.00 Ry     beta= 0.10
     Davidson diagonalization with overlap
     ethr =  3.15E-05,  avg # of iterations = 11.5

     negative rho (up, down):  2.222E-06 8.684E-05
 
     Adding external electric field

     Computed dipole along edir(3) : 
        Dipole               -0.6856 Ry au,         -1.7427 Debye
        Dipole field         -0.0004 Ry au, 
 
        Potential amp.        0.0460 Ry
        Total length         54.2615 bohr
 
 
     Adding external electric field

     Computed dipole along edir(3) : 
        Dipole               -0.6856 Ry au,         -1.7427 Debye
        Dipole field         -0.0004 Ry au, 
 
        Potential amp.        0.0460 Ry
        Total length         54.2615 bohr
 

     total cpu time spent up to now is      352.8 secs

     total energy              =   -7397.93099780 Ry
     estimated scf accuracy    <       0.08924967 Ry

     total magnetization       =    80.11 Bohr mag/cell
     absolute magnetization    =    82.25 Bohr mag/cell

     iteration # 24     ecut=    50.00 Ry     beta= 0.10
     Davidson diagonalization with overlap
     c_bands:  2 eigenvalues not converged
     ethr =  8.28E-06,  avg # of iterations = 11.0

     negative rho (up, down):  2.618E-06 1.302E-05
 
     Adding external electric field

     Computed dipole along edir(3) : 
        Dipole               -0.6169 Ry au,         -1.5681 Debye
        Dipole field         -0.0004 Ry au, 
 
        Potential amp.        0.0414 Ry
        Total length         54.2615 bohr
 
 
     Adding external electric field

     Computed dipole along edir(3) : 
        Dipole               -0.6169 Ry au,         -1.5681 Debye
        Dipole field         -0.0004 Ry au, 
 
        Potential amp.        0.0414 Ry
        Total length         54.2615 bohr
 

     total cpu time spent up to now is      373.7 secs

     total energy              =   -7397.94199108 Ry
     estimated scf accuracy    <       0.12733444 Ry

     total magnetization       =    79.91 Bohr mag/cell
     absolute magnetization    =    82.03 Bohr mag/cell

     iteration # 25     ecut=    50.00 Ry     beta= 0.10
     Davidson diagonalization with overlap
     ethr =  8.28E-06,  avg # of iterations =  2.0

     negative rho (up, down):  3.846E-06 5.115E-06
 
     Adding external electric field

     Computed dipole along edir(3) : 
        Dipole               -0.6015 Ry au,         -1.5289 Debye
        Dipole field         -0.0004 Ry au, 
 
        Potential amp.        0.0404 Ry
        Total length         54.2615 bohr
 
 
     Adding external electric field

     Computed dipole along edir(3) : 
        Dipole               -0.6015 Ry au,         -1.5289 Debye
        Dipole field         -0.0004 Ry au, 
 
        Potential amp.        0.0404 Ry
        Total length         54.2615 bohr
 

     total cpu time spent up to now is      387.6 secs

     total energy              =   -7397.94810720 Ry
     estimated scf accuracy    <       0.07161642 Ry

     total magnetization       =    80.51 Bohr mag/cell
     absolute magnetization    =    82.23 Bohr mag/cell

     iteration # 26     ecut=    50.00 Ry     beta= 0.10
     Davidson diagonalization with overlap
     ethr =  6.64E-06,  avg # of iterations =  1.0

     negative rho (up, down):  5.235E-06 2.499E-06
 
     Adding external electric field

     Computed dipole along edir(3) : 
        Dipole               -0.5857 Ry au,         -1.4886 Debye
        Dipole field         -0.0004 Ry au, 
 
        Potential amp.        0.0393 Ry
        Total length         54.2615 bohr
 
 
     Adding external electric field

     Computed dipole along edir(3) : 
        Dipole               -0.5857 Ry au,         -1.4886 Debye
        Dipole field         -0.0004 Ry au, 
 
        Potential amp.        0.0393 Ry
        Total length         54.2615 bohr
 

     total cpu time spent up to now is      399.3 secs

     total energy              =   -7397.94688101 Ry
     estimated scf accuracy    <       0.07507380 Ry

     total magnetization       =    80.59 Bohr mag/cell
     absolute magnetization    =    82.21 Bohr mag/cell

     iteration # 27     ecut=    50.00 Ry     beta= 0.10
     Davidson diagonalization with overlap
     ethr =  6.64E-06,  avg # of iterations =  1.0

     negative rho (up, down):  6.273E-06 2.915E-06
 
     Adding external electric field

     Computed dipole along edir(3) : 
        Dipole               -0.5849 Ry au,         -1.4867 Debye
        Dipole field         -0.0004 Ry au, 
 
        Potential amp.        0.0393 Ry
        Total length         54.2615 bohr
 
 
     Adding external electric field

     Computed dipole along edir(3) : 
        Dipole               -0.5849 Ry au,         -1.4867 Debye
        Dipole field         -0.0004 Ry au, 
 
        Potential amp.        0.0393 Ry
        Total length         54.2615 bohr
 

     total cpu time spent up to now is      410.6 secs

     total energy              =   -7397.94710054 Ry
     estimated scf accuracy    <       0.05648409 Ry

     total magnetization       =    80.54 Bohr mag/cell
     absolute magnetization    =    82.15 Bohr mag/cell

     iteration # 28     ecut=    50.00 Ry     beta= 0.10
     Davidson diagonalization with overlap
     ethr =  5.24E-06,  avg # of iterations =  1.0

     negative rho (up, down):  1.125E-05 5.485E-06
 
     Adding external electric field

     Computed dipole along edir(3) : 
        Dipole               -0.5839 Ry au,         -1.4841 Debye
        Dipole field         -0.0004 Ry au, 
 
        Potential amp.        0.0392 Ry
        Total length         54.2615 bohr
 
 
     Adding external electric field

     Computed dipole along edir(3) : 
        Dipole               -0.5839 Ry au,         -1.4841 Debye
        Dipole field         -0.0004 Ry au, 
 
        Potential amp.        0.0392 Ry
        Total length         54.2615 bohr
 

     total cpu time spent up to now is      421.9 secs

     total energy              =   -7397.94647719 Ry
     estimated scf accuracy    <       0.04885303 Ry

     total magnetization       =    80.48 Bohr mag/cell
     absolute magnetization    =    82.12 Bohr mag/cell

     iteration # 29     ecut=    50.00 Ry     beta= 0.10
     Davidson diagonalization with overlap
     ethr =  4.53E-06,  avg # of iterations =  1.0

     negative rho (up, down):  2.229E-05 1.074E-05
 
     Adding external electric field

     Computed dipole along edir(3) : 
        Dipole               -0.5643 Ry au,         -1.4342 Debye
        Dipole field         -0.0003 Ry au, 
 
        Potential amp.        0.0379 Ry
        Total length         54.2615 bohr
 
 
     Adding external electric field

     Computed dipole along edir(3) : 
        Dipole               -0.5643 Ry au,         -1.4342 Debye
        Dipole field         -0.0003 Ry au, 
 
        Potential amp.        0.0379 Ry
        Total length         54.2615 bohr
 

     total cpu time spent up to now is      433.5 secs

     total energy              =   -7397.94555885 Ry
     estimated scf accuracy    <       0.03883596 Ry

     total magnetization       =    80.50 Bohr mag/cell
     absolute magnetization    =    82.19 Bohr mag/cell

     iteration # 30     ecut=    50.00 Ry     beta= 0.10
     Davidson diagonalization with overlap
     ethr =  3.60E-06,  avg # of iterations =  1.5

     negative rho (up, down):  3.552E-05 3.459E-05
 
     Adding external electric field

     Computed dipole along edir(3) : 
        Dipole               -0.4811 Ry au,         -1.2227 Debye
        Dipole field         -0.0003 Ry au, 
 
        Potential amp.        0.0323 Ry
        Total length         54.2615 bohr
 
 
     Adding external electric field

     Computed dipole along edir(3) : 
        Dipole               -0.4811 Ry au,         -1.2227 Debye
        Dipole field         -0.0003 Ry au, 
 
        Potential amp.        0.0323 Ry
        Total length         54.2615 bohr
 

     total cpu time spent up to now is      445.8 secs

     total energy              =   -7397.94479741 Ry
     estimated scf accuracy    <       0.02599256 Ry

     total magnetization       =    80.34 Bohr mag/cell
     absolute magnetization    =    82.03 Bohr mag/cell

     iteration # 31     ecut=    50.00 Ry     beta= 0.10
     Davidson diagonalization with overlap
     ethr =  2.41E-06,  avg # of iterations =  3.0

     negative rho (up, down):  2.069E-05 1.469E-05
 
     Adding external electric field

     Computed dipole along edir(3) : 
        Dipole               -0.5043 Ry au,         -1.2818 Debye
        Dipole field         -0.0003 Ry au, 
 
        Potential amp.        0.0338 Ry
        Total length         54.2615 bohr
 
 
     Adding external electric field

     Computed dipole along edir(3) : 
        Dipole               -0.5043 Ry au,         -1.2818 Debye
        Dipole field         -0.0003 Ry au, 
 
        Potential amp.        0.0338 Ry
        Total length         54.2615 bohr
 

     total cpu time spent up to now is      459.0 secs

     total energy              =   -7397.94551336 Ry
     estimated scf accuracy    <       0.02937582 Ry

     total magnetization       =    80.14 Bohr mag/cell
     absolute magnetization    =    81.66 Bohr mag/cell

     iteration # 32     ecut=    50.00 Ry     beta= 0.10
     Davidson diagonalization with overlap
     ethr =  2.41E-06,  avg # of iterations =  1.0

     negative rho (up, down):  1.397E-05 1.031E-05
 
     Adding external electric field

     Computed dipole along edir(3) : 
        Dipole               -0.5022 Ry au,         -1.2765 Debye
        Dipole field         -0.0003 Ry au, 
 
        Potential amp.        0.0337 Ry
        Total length         54.2615 bohr
 
 
     Adding external electric field

     Computed dipole along edir(3) : 
        Dipole               -0.5022 Ry au,         -1.2765 Debye
        Dipole field         -0.0003 Ry au, 
 
        Potential amp.        0.0337 Ry
        Total length         54.2615 bohr
 

     total cpu time spent up to now is      470.5 secs

     total energy              =   -7397.94609322 Ry
     estimated scf accuracy    <       0.03513696 Ry

     total magnetization       =    80.26 Bohr mag/cell
     absolute magnetization    =    81.86 Bohr mag/cell

     iteration # 33     ecut=    50.00 Ry     beta= 0.10
     Davidson diagonalization with overlap
     ethr =  2.41E-06,  avg # of iterations =  1.0

     negative rho (up, down):  1.454E-05 8.739E-06
 
     Adding external electric field

     Computed dipole along edir(3) : 
        Dipole               -0.4990 Ry au,         -1.2683 Debye
        Dipole field         -0.0003 Ry au, 
 
        Potential amp.        0.0335 Ry
        Total length         54.2615 bohr
 
 
     Adding external electric field

     Computed dipole along edir(3) : 
        Dipole               -0.4990 Ry au,         -1.2683 Debye
        Dipole field         -0.0003 Ry au, 
 
        Potential amp.        0.0335 Ry
        Total length         54.2615 bohr
 

     total cpu time spent up to now is      482.4 secs

     total energy              =   -7397.94542466 Ry
     estimated scf accuracy    <       0.04740186 Ry

     total magnetization       =    80.32 Bohr mag/cell
     absolute magnetization    =    81.89 Bohr mag/cell

     iteration # 34     ecut=    50.00 Ry     beta= 0.10
     Davidson diagonalization with overlap
     ethr =  2.41E-06,  avg # of iterations =  1.0

     negative rho (up, down):  1.474E-05 6.413E-06
 
     Adding external electric field

     Computed dipole along edir(3) : 
        Dipole               -0.4862 Ry au,         -1.2358 Debye
        Dipole field         -0.0003 Ry au, 
 
        Potential amp.        0.0326 Ry
        Total length         54.2615 bohr
 
 
     Adding external electric field

     Computed dipole along edir(3) : 
        Dipole               -0.4862 Ry au,         -1.2358 Debye
        Dipole field         -0.0003 Ry au, 
 
        Potential amp.        0.0326 Ry
        Total length         54.2615 bohr
 

     total cpu time spent up to now is      494.0 secs

     total energy              =   -7397.94489661 Ry
     estimated scf accuracy    <       0.03391259 Ry

     total magnetization       =    80.26 Bohr mag/cell
     absolute magnetization    =    81.93 Bohr mag/cell

     iteration # 35     ecut=    50.00 Ry     beta= 0.10
     Davidson diagonalization with overlap
     ethr =  2.41E-06,  avg # of iterations =  1.0

     negative rho (up, down):  2.692E-05 2.078E-05
 
     Adding external electric field

     Computed dipole along edir(3) : 
        Dipole               -0.5411 Ry au,         -1.3753 Debye
        Dipole field         -0.0003 Ry au, 
 
        Potential amp.        0.0363 Ry
        Total length         54.2615 bohr
 
 
     Adding external electric field

     Computed dipole along edir(3) : 
        Dipole               -0.5411 Ry au,         -1.3753 Debye
        Dipole field         -0.0003 Ry au, 
 
        Potential amp.        0.0363 Ry
        Total length         54.2615 bohr
 

     total cpu time spent up to now is      505.7 secs

     total energy              =   -7397.94536998 Ry
     estimated scf accuracy    <       0.03686389 Ry

     total magnetization       =    80.32 Bohr mag/cell
     absolute magnetization    =    82.01 Bohr mag/cell

     iteration # 36     ecut=    50.00 Ry     beta= 0.10
     Davidson diagonalization with overlap
     ethr =  2.41E-06,  avg # of iterations =  1.0

     negative rho (up, down):  1.896E-04 1.618E-04
 
     Adding external electric field

     Computed dipole along edir(3) : 
        Dipole               -0.5968 Ry au,         -1.5169 Debye
        Dipole field         -0.0004 Ry au, 
 
        Potential amp.        0.0401 Ry
        Total length         54.2615 bohr
 
 
     Adding external electric field

     Computed dipole along edir(3) : 
        Dipole               -0.5968 Ry au,         -1.5169 Debye
        Dipole field         -0.0004 Ry au, 
 
        Potential amp.        0.0401 Ry
        Total length         54.2615 bohr
 

     total cpu time spent up to now is      517.3 secs

     total energy              =   -7397.94550030 Ry
     estimated scf accuracy    <       0.02535678 Ry

     total magnetization       =    80.33 Bohr mag/cell
     absolute magnetization    =    82.08 Bohr mag/cell

     iteration # 37     ecut=    50.00 Ry     beta= 0.10
     Davidson diagonalization with overlap
     ethr =  2.35E-06,  avg # of iterations =  1.5

     negative rho (up, down):  1.304E-05 7.242E-06
 
     Adding external electric field

     Computed dipole along edir(3) : 
        Dipole               -0.5368 Ry au,         -1.3645 Debye
        Dipole field         -0.0003 Ry au, 
 
        Potential amp.        0.0360 Ry
        Total length         54.2615 bohr
 
 
     Adding external electric field

     Computed dipole along edir(3) : 
        Dipole               -0.5368 Ry au,         -1.3645 Debye
        Dipole field         -0.0003 Ry au, 
 
        Potential amp.        0.0360 Ry
        Total length         54.2615 bohr
 

     total cpu time spent up to now is      529.7 secs

     total energy              =   -7397.94567767 Ry
     estimated scf accuracy    <       0.02743617 Ry

     total magnetization       =    80.24 Bohr mag/cell
     absolute magnetization    =    81.98 Bohr mag/cell

     iteration # 38     ecut=    50.00 Ry     beta= 0.10
     Davidson diagonalization with overlap
     ethr =  2.35E-06,  avg # of iterations =  1.0

     negative rho (up, down):  8.474E-05 8.497E-05
 
     Adding external electric field

     Computed dipole along edir(3) : 
        Dipole               -0.5556 Ry au,         -1.4122 Debye
        Dipole field         -0.0003 Ry au, 
 
        Potential amp.        0.0373 Ry
        Total length         54.2615 bohr
 
 
     Adding external electric field

     Computed dipole along edir(3) : 
        Dipole               -0.5556 Ry au,         -1.4122 Debye
        Dipole field         -0.0003 Ry au, 
 
        Potential amp.        0.0373 Ry
        Total length         54.2615 bohr
 

     total cpu time spent up to now is      541.7 secs

     total energy              =   -7397.94381806 Ry
     estimated scf accuracy    <       0.02915269 Ry

     total magnetization       =    80.31 Bohr mag/cell
     absolute magnetization    =    82.00 Bohr mag/cell

     iteration # 39     ecut=    50.00 Ry     beta= 0.10
     Davidson diagonalization with overlap
     ethr =  2.35E-06,  avg # of iterations =  1.5

     negative rho (up, down):  1.047E-04 9.861E-05
 
     Adding external electric field

     Computed dipole along edir(3) : 
        Dipole               -0.5839 Ry au,         -1.4842 Debye
        Dipole field         -0.0004 Ry au, 
 
        Potential amp.        0.0392 Ry
        Total length         54.2615 bohr
 
 
     Adding external electric field

     Computed dipole along edir(3) : 
        Dipole               -0.5839 Ry au,         -1.4842 Debye
        Dipole field         -0.0004 Ry au, 
 
        Potential amp.        0.0392 Ry
        Total length         54.2615 bohr
 

     total cpu time spent up to now is      554.4 secs

     total energy              =   -7397.94536674 Ry
     estimated scf accuracy    <       0.02611521 Ry

     total magnetization       =    80.31 Bohr mag/cell
     absolute magnetization    =    82.17 Bohr mag/cell

     iteration # 40     ecut=    50.00 Ry     beta= 0.10
     Davidson diagonalization with overlap
     ethr =  2.35E-06,  avg # of iterations =  1.0

     negative rho (up, down):  8.247E-05 8.055E-05
 
     Adding external electric field

     Computed dipole along edir(3) : 
        Dipole               -0.5503 Ry au,         -1.3988 Debye
        Dipole field         -0.0003 Ry au, 
 
        Potential amp.        0.0369 Ry
        Total length         54.2615 bohr
 
 
     Adding external electric field

     Computed dipole along edir(3) : 
        Dipole               -0.5503 Ry au,         -1.3988 Debye
        Dipole field         -0.0003 Ry au, 
 
        Potential amp.        0.0369 Ry
        Total length         54.2615 bohr
 

     total cpu time spent up to now is      565.7 secs

     total energy              =   -7397.94510479 Ry
     estimated scf accuracy    <       0.02548421 Ry

     total magnetization       =    80.36 Bohr mag/cell
     absolute magnetization    =    82.18 Bohr mag/cell

     iteration # 41     ecut=    50.00 Ry     beta= 0.10
     Davidson diagonalization with overlap
     ethr =  2.35E-06,  avg # of iterations =  1.0

     negative rho (up, down):  1.097E-04 1.090E-04
 
     Adding external electric field

     Computed dipole along edir(3) : 
        Dipole               -0.5736 Ry au,         -1.4580 Debye
        Dipole field         -0.0004 Ry au, 
 
        Potential amp.        0.0385 Ry
        Total length         54.2615 bohr
 
 
     Adding external electric field

     Computed dipole along edir(3) : 
        Dipole               -0.5736 Ry au,         -1.4580 Debye
        Dipole field         -0.0004 Ry au, 
 
        Potential amp.        0.0385 Ry
        Total length         54.2615 bohr
 

     total cpu time spent up to now is      577.1 secs

     total energy              =   -7397.94509845 Ry
     estimated scf accuracy    <       0.02634647 Ry

     total magnetization       =    80.29 Bohr mag/cell
     absolute magnetization    =    82.12 Bohr mag/cell

     iteration # 42     ecut=    50.00 Ry     beta= 0.10
     Davidson diagonalization with overlap
     ethr =  2.35E-06,  avg # of iterations =  1.0

     negative rho (up, down):  5.696E-05 5.688E-05
 
     Adding external electric field

     Computed dipole along edir(3) : 
        Dipole               -0.5023 Ry au,         -1.2766 Debye
        Dipole field         -0.0003 Ry au, 
 
        Potential amp.        0.0337 Ry
        Total length         54.2615 bohr
 
 
     Adding external electric field

     Computed dipole along edir(3) : 
        Dipole               -0.5023 Ry au,         -1.2766 Debye
        Dipole field         -0.0003 Ry au, 
 
        Potential amp.        0.0337 Ry
        Total length         54.2615 bohr
 

     total cpu time spent up to now is      588.9 secs

     total energy              =   -7397.94478572 Ry
     estimated scf accuracy    <       0.02631638 Ry

     total magnetization       =    80.30 Bohr mag/cell
     absolute magnetization    =    82.14 Bohr mag/cell

     iteration # 43     ecut=    50.00 Ry     beta= 0.10
     Davidson diagonalization with overlap
     ethr =  2.35E-06,  avg # of iterations =  1.5

     negative rho (up, down):  1.623E-04 1.550E-04
 
     Adding external electric field

     Computed dipole along edir(3) : 
        Dipole               -0.4669 Ry au,         -1.1866 Debye
        Dipole field         -0.0003 Ry au, 
 
        Potential amp.        0.0313 Ry
        Total length         54.2615 bohr
 
 
     Adding external electric field

     Computed dipole along edir(3) : 
        Dipole               -0.4669 Ry au,         -1.1866 Debye
        Dipole field         -0.0003 Ry au, 
 
        Potential amp.        0.0313 Ry
        Total length         54.2615 bohr
 

     total cpu time spent up to now is      601.7 secs

     total energy              =   -7397.94429202 Ry
     estimated scf accuracy    <       0.02659777 Ry

     total magnetization       =    80.31 Bohr mag/cell
     absolute magnetization    =    82.12 Bohr mag/cell

     iteration # 44     ecut=    50.00 Ry     beta= 0.10
     Davidson diagonalization with overlap
     ethr =  2.35E-06,  avg # of iterations =  2.0

     negative rho (up, down):  4.462E-04 3.627E-04
 
     Adding external electric field

     Computed dipole along edir(3) : 
        Dipole               -0.4691 Ry au,         -1.1924 Debye
        Dipole field         -0.0003 Ry au, 
 
        Potential amp.        0.0315 Ry
        Total length         54.2615 bohr
 
 
     Adding external electric field

     Computed dipole along edir(3) : 
        Dipole               -0.4691 Ry au,         -1.1924 Debye
        Dipole field         -0.0003 Ry au, 
 
        Potential amp.        0.0315 Ry
        Total length         54.2615 bohr
 

     total cpu time spent up to now is      615.0 secs

     total energy              =   -7397.94346960 Ry
     estimated scf accuracy    <       0.02482473 Ry

     total magnetization       =    80.35 Bohr mag/cell
     absolute magnetization    =    82.14 Bohr mag/cell

     iteration # 45     ecut=    50.00 Ry     beta= 0.10
     Davidson diagonalization with overlap
     ethr =  2.30E-06,  avg # of iterations =  1.5

     negative rho (up, down):  9.368E-04 7.334E-04
 
     Adding external electric field

     Computed dipole along edir(3) : 
        Dipole               -0.4005 Ry au,         -1.0181 Debye
        Dipole field         -0.0002 Ry au, 
 
        Potential amp.        0.0269 Ry
        Total length         54.2615 bohr
 
 
     Adding external electric field

     Computed dipole along edir(3) : 
        Dipole               -0.4005 Ry au,         -1.0181 Debye
        Dipole field         -0.0002 Ry au, 
 
        Potential amp.        0.0269 Ry
        Total length         54.2615 bohr
 

     total cpu time spent up to now is      627.6 secs

     total energy              =   -7397.94258165 Ry
     estimated scf accuracy    <       0.02280722 Ry

     total magnetization       =    80.39 Bohr mag/cell
     absolute magnetization    =    82.15 Bohr mag/cell

     iteration # 46     ecut=    50.00 Ry     beta= 0.10
     Davidson diagonalization with overlap
     ethr =  2.12E-06,  avg # of iterations =  2.5

     negative rho (up, down):  8.393E-04 6.391E-04
 
     Adding external electric field

     Computed dipole along edir(3) : 
        Dipole               -0.4109 Ry au,         -1.0445 Debye
        Dipole field         -0.0003 Ry au, 
 
        Potential amp.        0.0276 Ry
        Total length         54.2615 bohr
 
 
     Adding external electric field

     Computed dipole along edir(3) : 
        Dipole               -0.4109 Ry au,         -1.0445 Debye
        Dipole field         -0.0003 Ry au, 
 
        Potential amp.        0.0276 Ry
        Total length         54.2615 bohr
 

     total cpu time spent up to now is      641.4 secs

     total energy              =   -7397.94287807 Ry
     estimated scf accuracy    <       0.01645549 Ry

     total magnetization       =    80.44 Bohr mag/cell
     absolute magnetization    =    82.16 Bohr mag/cell

     iteration # 47     ecut=    50.00 Ry     beta= 0.10
     Davidson diagonalization with overlap
     ethr =  1.53E-06,  avg # of iterations =  2.0

     negative rho (up, down):  2.399E-03 2.093E-03
 
     Adding external electric field

     Computed dipole along edir(3) : 
        Dipole               -0.3213 Ry au,         -0.8168 Debye
        Dipole field         -0.0002 Ry au, 
 
        Potential amp.        0.0216 Ry
        Total length         54.2615 bohr
 
 
     Adding external electric field

     Computed dipole along edir(3) : 
        Dipole               -0.3213 Ry au,         -0.8168 Debye
        Dipole field         -0.0002 Ry au, 
 
        Potential amp.        0.0216 Ry
        Total length         54.2615 bohr
 

     total cpu time spent up to now is      655.0 secs

     total energy              =   -7397.94263773 Ry
     estimated scf accuracy    <       0.01250013 Ry

     total magnetization       =    80.48 Bohr mag/cell
     absolute magnetization    =    82.16 Bohr mag/cell

     iteration # 48     ecut=    50.00 Ry     beta= 0.10
     Davidson diagonalization with overlap
     ethr =  1.16E-06,  avg # of iterations =  2.0

     negative rho (up, down):  4.257E-03 4.186E-03
 
     Adding external electric field

     Computed dipole along edir(3) : 
        Dipole               -0.2035 Ry au,         -0.5172 Debye
        Dipole field         -0.0001 Ry au, 
 
        Potential amp.        0.0137 Ry
        Total length         54.2615 bohr
 
 
     Adding external electric field

     Computed dipole along edir(3) : 
        Dipole               -0.2035 Ry au,         -0.5172 Debye
        Dipole field         -0.0001 Ry au, 
 
        Potential amp.        0.0137 Ry
        Total length         54.2615 bohr
 

     total cpu time spent up to now is      668.5 secs

     total energy              =   -7397.94226965 Ry
     estimated scf accuracy    <       0.00835437 Ry

     total magnetization       =    80.49 Bohr mag/cell
     absolute magnetization    =    82.14 Bohr mag/cell

     iteration # 49     ecut=    50.00 Ry     beta= 0.10
     Davidson diagonalization with overlap
     c_bands:  4 eigenvalues not converged
     ethr =  7.75E-07,  avg # of iterations = 11.0

     negative rho (up, down):  3.320E-03 3.246E-03
 
     Adding external electric field

     Computed dipole along edir(3) : 
        Dipole               -0.1338 Ry au,         -0.3400 Debye
        Dipole field         -0.0001 Ry au, 
 
        Potential amp.        0.0090 Ry
        Total length         54.2615 bohr
 
 
     Adding external electric field

     Computed dipole along edir(3) : 
        Dipole               -0.1338 Ry au,         -0.3400 Debye
        Dipole field         -0.0001 Ry au, 
 
        Potential amp.        0.0090 Ry
        Total length         54.2615 bohr
 

     total cpu time spent up to now is      688.3 secs

     total energy              =   -7397.94262043 Ry
     estimated scf accuracy    <       0.00515987 Ry

     total magnetization       =    80.43 Bohr mag/cell
     absolute magnetization    =    82.17 Bohr mag/cell

     iteration # 50     ecut=    50.00 Ry     beta= 0.10
     Davidson diagonalization with overlap
     ethr =  4.79E-07,  avg # of iterations =  2.0

     negative rho (up, down):  2.683E-03 2.394E-03
 
     Adding external electric field

     Computed dipole along edir(3) : 
        Dipole               -0.0178 Ry au,         -0.0453 Debye
        Dipole field         -0.0000 Ry au, 
 
        Potential amp.        0.0012 Ry
        Total length         54.2615 bohr
 
 
     Adding external electric field

     Computed dipole along edir(3) : 
        Dipole               -0.0178 Ry au,         -0.0453 Debye
        Dipole field         -0.0000 Ry au, 
 
        Potential amp.        0.0012 Ry
        Total length         54.2615 bohr
 

     total cpu time spent up to now is      701.7 secs

     total energy              =   -7397.94291577 Ry
     estimated scf accuracy    <       0.00363752 Ry

     total magnetization       =    80.42 Bohr mag/cell
     absolute magnetization    =    82.16 Bohr mag/cell

     iteration # 51     ecut=    50.00 Ry     beta= 0.10
     Davidson diagonalization with overlap
     ethr =  3.37E-07,  avg # of iterations =  2.0

     negative rho (up, down):  2.982E-03 2.622E-03
 
     Adding external electric field

     Computed dipole along edir(3) : 
        Dipole                0.0255 Ry au,          0.0649 Debye
        Dipole field          0.0000 Ry au, 
 
        Potential amp.       -0.0017 Ry
        Total length         54.2615 bohr
 
 
     Adding external electric field

     Computed dipole along edir(3) : 
        Dipole                0.0255 Ry au,          0.0649 Debye
        Dipole field          0.0000 Ry au, 
 
        Potential amp.       -0.0017 Ry
        Total length         54.2615 bohr
 

     total cpu time spent up to now is      715.2 secs

     total energy              =   -7397.94315372 Ry
     estimated scf accuracy    <       0.00202570 Ry

     total magnetization       =    80.45 Bohr mag/cell
     absolute magnetization    =    82.12 Bohr mag/cell

     iteration # 52     ecut=    50.00 Ry     beta= 0.10
     Davidson diagonalization with overlap
     ethr =  1.88E-07,  avg # of iterations =  2.0

     negative rho (up, down):  2.112E-03 2.005E-03
 
     Adding external electric field

     Computed dipole along edir(3) : 
        Dipole                0.0509 Ry au,          0.1294 Debye
        Dipole field          0.0000 Ry au, 
 
        Potential amp.       -0.0034 Ry
        Total length         54.2615 bohr
 
 
     Adding external electric field

     Computed dipole along edir(3) : 
        Dipole                0.0509 Ry au,          0.1294 Debye
        Dipole field          0.0000 Ry au, 
 
        Potential amp.       -0.0034 Ry
        Total length         54.2615 bohr
 

     total cpu time spent up to now is      728.9 secs

     total energy              =   -7397.94329560 Ry
     estimated scf accuracy    <       0.00133106 Ry

     total magnetization       =    80.45 Bohr mag/cell
     absolute magnetization    =    82.09 Bohr mag/cell

     iteration # 53     ecut=    50.00 Ry     beta= 0.10
     Davidson diagonalization with overlap
     ethr =  1.23E-07,  avg # of iterations =  2.5

     negative rho (up, down):  1.362E-03 1.295E-03
 
     Adding external electric field

     Computed dipole along edir(3) : 
        Dipole                0.0368 Ry au,          0.0935 Debye
        Dipole field          0.0000 Ry au, 
 
        Potential amp.       -0.0025 Ry
        Total length         54.2615 bohr
 
 
     Adding external electric field

     Computed dipole along edir(3) : 
        Dipole                0.0368 Ry au,          0.0935 Debye
        Dipole field          0.0000 Ry au, 
 
        Potential amp.       -0.0025 Ry
        Total length         54.2615 bohr
 

     total cpu time spent up to now is      743.0 secs

     total energy              =   -7397.94335759 Ry
     estimated scf accuracy    <       0.00043126 Ry

     total magnetization       =    80.43 Bohr mag/cell
     absolute magnetization    =    82.03 Bohr mag/cell

     iteration # 54     ecut=    50.00 Ry     beta= 0.10
     Davidson diagonalization with overlap
     ethr =  4.00E-08,  avg # of iterations =  2.5

     negative rho (up, down):  7.424E-04 7.086E-04
 
     Adding external electric field

     Computed dipole along edir(3) : 
        Dipole                0.0297 Ry au,          0.0754 Debye
        Dipole field          0.0000 Ry au, 
 
        Potential amp.       -0.0020 Ry
        Total length         54.2615 bohr
 
 
     Adding external electric field

     Computed dipole along edir(3) : 
        Dipole                0.0297 Ry au,          0.0754 Debye
        Dipole field          0.0000 Ry au, 
 
        Potential amp.       -0.0020 Ry
        Total length         54.2615 bohr
 

     total cpu time spent up to now is      755.7 secs

     total energy              =   -7397.94336417 Ry
     estimated scf accuracy    <       0.00031908 Ry

     total magnetization       =    80.43 Bohr mag/cell
     absolute magnetization    =    82.03 Bohr mag/cell

     iteration # 55     ecut=    50.00 Ry     beta= 0.10
     Davidson diagonalization with overlap
     ethr =  2.96E-08,  avg # of iterations =  2.0

     negative rho (up, down):  4.489E-04 3.916E-04
 
     Adding external electric field

     Computed dipole along edir(3) : 
        Dipole                0.0282 Ry au,          0.0718 Debye
        Dipole field          0.0000 Ry au, 
 
        Potential amp.       -0.0019 Ry
        Total length         54.2615 bohr
 
 
     Adding external electric field

     Computed dipole along edir(3) : 
        Dipole                0.0282 Ry au,          0.0718 Debye
        Dipole field          0.0000 Ry au, 
 
        Potential amp.       -0.0019 Ry
        Total length         54.2615 bohr
 

     total cpu time spent up to now is      768.8 secs

     total energy              =   -7397.94336381 Ry
     estimated scf accuracy    <       0.00023649 Ry

     total magnetization       =    80.43 Bohr mag/cell
     absolute magnetization    =    82.02 Bohr mag/cell

     iteration # 56     ecut=    50.00 Ry     beta= 0.10
     Davidson diagonalization with overlap
     ethr =  2.19E-08,  avg # of iterations =  2.0

     negative rho (up, down):  3.551E-04 2.714E-04
 
     Adding external electric field

     Computed dipole along edir(3) : 
        Dipole                0.0293 Ry au,          0.0746 Debye
        Dipole field          0.0000 Ry au, 
 
        Potential amp.       -0.0020 Ry
        Total length         54.2615 bohr
 
 
     Adding external electric field

     Computed dipole along edir(3) : 
        Dipole                0.0293 Ry au,          0.0746 Debye
        Dipole field          0.0000 Ry au, 
 
        Potential amp.       -0.0020 Ry
        Total length         54.2615 bohr
 

     total cpu time spent up to now is      782.4 secs

     total energy              =   -7397.94337230 Ry
     estimated scf accuracy    <       0.00015493 Ry

     total magnetization       =    80.43 Bohr mag/cell
     absolute magnetization    =    82.01 Bohr mag/cell

     iteration # 57     ecut=    50.00 Ry     beta= 0.10
     Davidson diagonalization with overlap
     ethr =  1.44E-08,  avg # of iterations =  2.0

     negative rho (up, down):  5.175E-04 3.004E-04
 
     Adding external electric field

     Computed dipole along edir(3) : 
        Dipole                0.0323 Ry au,          0.0821 Debye
        Dipole field          0.0000 Ry au, 
 
        Potential amp.       -0.0022 Ry
        Total length         54.2615 bohr
 
 
     Adding external electric field

     Computed dipole along edir(3) : 
        Dipole                0.0323 Ry au,          0.0821 Debye
        Dipole field          0.0000 Ry au, 
 
        Potential amp.       -0.0022 Ry
        Total length         54.2615 bohr
 

     total cpu time spent up to now is      795.8 secs

     total energy              =   -7397.94339279 Ry
     estimated scf accuracy    <       0.00009200 Ry

     total magnetization       =    80.43 Bohr mag/cell
     absolute magnetization    =    82.01 Bohr mag/cell

     iteration # 58     ecut=    50.00 Ry     beta= 0.10
     Davidson diagonalization with overlap
     ethr =  8.53E-09,  avg # of iterations =  2.0

     negative rho (up, down):  5.912E-04 3.083E-04
 
     Adding external electric field

[...]
     atom   99 type  4   force =    -0.06660831    0.00000692    0.00632326
     atom  100 type  4   force =    -0.00202652    0.00353540   -0.00255602
     atom  101 type  4   force =     0.00002319    0.00080551   -0.00089493
     atom  102 type  4   force =    -0.00614885    0.00435842   -0.00139755
     atom  103 type  4   force =    -0.04028099    0.13340790    0.00428833
     atom  104 type  4   force =    -0.00705276   -0.00989313   -0.00527526
     atom  105 type  2   force =     0.00415165   -0.00657214   -0.01786687
     atom  106 type  1   force =     0.02821241    0.01429142    0.01170996
     atom  107 type  1   force =     0.00870145   -0.00612560   -0.01386479
     atom  108 type  1   force =    -0.02842492    0.02170121    0.01874718
     atom  109 type  1   force =     0.00503402    0.01616567    0.00951872
     atom  110 type  1   force =    -0.00254061   -0.00879629   -0.00669987
     atom  111 type  1   force =    -0.00085117   -0.00950037   -0.01132261
     atom  112 type  1   force =     0.02919087    0.01753120    0.01140383
     atom  113 type  1   force =    -0.00068394   -0.00498773   -0.01369934
     atom  114 type  1   force =    -0.02966282    0.02075464    0.01855476
     atom  115 type  1   force =    -0.00717741    0.01857377    0.01223863
     atom  116 type  1   force =    -0.00554592   -0.00437008   -0.00286726
     atom  117 type  3   force =     0.01426334   -0.17388741   -0.10882953
     atom  118 type  3   force =     0.00517846   -0.00850252   -0.01248080
     atom  119 type  3   force =    -0.04467208    0.12499926   -0.00176076
     atom  120 type  3   force =     0.09507597   -0.04105574   -0.07972573
     atom  121 type  4   force =     0.00612886   -0.01710475    0.03723181
     atom  122 type  4   force =    -0.00352960    0.00374570    0.00442429
     atom  123 type  4   force =    -0.00085798    0.00255690   -0.00290567
     atom  124 type  4   force =     0.00850485    0.00218077    0.02692722
     atom  125 type  4   force =     0.00987326   -0.01690698    0.01594869
     atom  126 type  4   force =    -0.00754019    0.00097956   -0.00324416
     atom  127 type  4   force =     0.00396183    0.00963731    0.00034026
     atom  128 type  4   force =    -0.00060779   -0.00109986    0.03017156
     atom  129 type  4   force =    -0.00766814    0.02551344    0.00118250
     atom  130 type  4   force =     0.04340130   -0.14599097   -0.00195202
     atom  131 type  4   force =    -0.01740840   -0.00039998    0.00285475
     atom  132 type  4   force =     0.00340533    0.00264571    0.00196612
     atom  133 type  4   force =     0.06975591    0.00370174   -0.00194400
     atom  134 type  4   force =     0.00094930    0.00367509    0.00267611
     atom  135 type  4   force =    -0.02754540    0.17223613    0.00605724
     atom  136 type  4   force =     0.01957578   -0.00862454    0.00400569
     atom  137 type  3   force =     0.00909733   -0.16687525   -0.09424441
     atom  138 type  3   force =    -0.06471331   -0.00205635   -0.00480742
     atom  139 type  3   force =    -0.04871872    0.11826142    0.00166337
     atom  140 type  3   force =     0.03145168   -0.04325636   -0.07369526
     atom  141 type  4   force =     0.00465236   -0.01330006    0.03207799
     atom  142 type  4   force =    -0.00542961   -0.00034406    0.00425112
     atom  143 type  4   force =    -0.00818894    0.00809658   -0.00357596
     atom  144 type  4   force =     0.00385069    0.00138247    0.02752240
     atom  145 type  4   force =     0.00689387   -0.01301541    0.03232940
     atom  146 type  4   force =    -0.00871775   -0.00181789   -0.00316496
     atom  147 type  4   force =     0.00030372    0.00985991    0.00253128
     atom  148 type  4   force =    -0.00790483    0.00121560    0.02908445
     atom  149 type  4   force =    -0.01316629    0.02943417    0.00050030
     atom  150 type  4   force =     0.03981143   -0.13830806   -0.00144844
     atom  151 type  4   force =    -0.08615165   -0.00174318    0.00915038
     atom  152 type  4   force =     0.00121156    0.00389162    0.00138814
     atom  153 type  4   force =    -0.00354141    0.00083474    0.00293064
     atom  154 type  4   force =    -0.00588717    0.00601350    0.00126670
     atom  155 type  4   force =    -0.02796298    0.16645301    0.00483675
     atom  156 type  4   force =     0.01055890   -0.00972792   -0.00138170
     atom  157 type  4   force =     0.00085853    0.00071446   -0.00008002
     atom  158 type  5   force =    -0.00089058   -0.00044904   -0.00069377

     Total force =     0.003768     Total SCF correction =     0.000254
     Energy error            =      2.1E-05 Ry
     Gradient error          =      9.5E-04 Ry/Bohr

     bfgs converged in  28 scf cycles and  26 bfgs steps
     (criteria: energy <  1.0E-04 Ry, force <  1.0E-03 Ry/Bohr)

     End of BFGS Geometry Optimization

     Final energy             =   -7398.0284489868 Ry

     File ./tmp/pwscf.bfgs deleted, as requested
Begin final coordinates

ATOMIC_POSITIONS (angstrom)
Mn               2.3296215345        7.8448110179       15.8782878557
Ni               4.6699068687        7.2515162275       12.8403641122
Ni              -0.0108141553        2.8157747658       15.6874242775
Ni               2.4475351801        2.2364311913       12.8160492191
Ni               9.3323023566       10.0968911318       14.3666187211
Ni               2.3916870243        5.0357606360       14.3333490739
Ni               6.9510550273        7.9014228530       15.9919024864
Ni               9.2968628880        7.2612950978       12.8421583297
Ni               4.7033015698        2.7670324179       15.6898302514
Ni               7.1295953510        2.2232273997       12.8089367931
Ni               4.6924079177       10.0622100940       14.3932436006
Ni               7.0667055562        5.0433501388       14.3524029104
P                1.9815230154        9.1124768291       12.9288006327
P                4.3703317806        5.9958775292       15.8314764844
P                2.6768755698        1.0773440842       15.8828082079
P                0.4100771841        4.0622499031       12.8313127125
O                1.2569050751        8.4466448530       14.2004341905
O                3.6701807611        6.6171018662       14.5000675968
O                3.4272975997        1.5914401008       14.5088322703
O                1.1431778007        3.4045484605       14.1113447809
O                1.3972861123        8.2712541926       11.7664375750
O                3.7602218730        6.8619878857       16.9500346263
O                3.2569129181        1.9872240024       16.9495752236
O                0.9773602472        3.2309143809       11.6541897970
O                0.9728282613        5.5155262061       12.8648140722
O                3.1697526524        9.6603131293       15.9162342425
O                3.5674753972        3.9910602627       12.9428762280
O                1.1344047819        1.1111185524       15.7377148961
O                1.2088184748        6.1004336657       15.7213471555
O                3.8196352329        4.5356185921       15.8093061579
O                1.4285829071        0.4843817682       12.9245096535
O                3.5149763409        9.0214396194       13.0170901066
P                6.6652401705        9.0851111999       12.8833559689
P                9.0181453059        6.0770769205       15.8132765936
P                7.3789837442        1.0632479728       15.8614654775
P                5.1048717730        4.0463522391       12.8304479582
O                5.9454039057        8.4070740247       14.1510892621
O                8.3122937953        6.6373027525       14.4702310202
O                8.1149663940        1.6366777491       14.4855034642
O                5.8294554734        3.3831758097       14.1072119172
O                6.1012188070        8.2671325064       11.6890747016
O                8.5044134953        6.9986895979       16.9154678845
O                7.9245455120        2.0058472967       16.9234688369
O                5.6736795809        3.2172532253       11.6516261224
O                5.6684915125        5.4976424720       12.8730024596
O                7.9480689777        9.6833711436       15.8307936854
O                8.2429296527        4.0006263940       12.9458965151
O                5.8361735805        1.0867155520       15.7051304770
O                5.9098420106        6.0441505358       15.7673986094
O                8.4986208807        4.6002212496       15.8319878118
O                6.1038569878        0.4622008243       12.9111594676
O                8.2037935681        9.0370132812       12.9729027717
Mn               2.2524368768        7.7240452976       10.0236323639    0   0   0
Ni               4.6534647676        7.1202901005        6.9822425005    0   0   0
Ni               0.0619603813        2.6337384440        9.9556760802    0   0   0
Ni               2.4219525798        2.0896438093        6.9510492594    0   0   0
Ni               9.3547912696        9.9019397956        8.4440186395    0   0   0
Ni               2.3579554440        4.8758940102        8.4680010131    0   0   0
Ni               6.9796879716        7.6924726712        9.9737552430    0   0   0
Ni               9.3096730862        7.1316559318        6.9896902714    0   0   0
Ni               4.7877892837        2.6218843324        9.9455480718    0   0   0
Ni               7.1245715506        2.0553708916        6.9486854554    0   0   0
Ni               4.7058610954        9.8941863400        8.4294293279    0   0   0
Ni               7.0530582306        4.8640817481        8.4531033399    0   0   0
P                1.9603854589        8.9977651159        7.0482873394    0   0   0
P                4.3608513788        5.8397436861        9.9242203128    0   0   0
P                2.7263470654        0.8452909389        9.9041174682    0   0   0
P                0.3711210654        3.8997822466        6.9978917740    0   0   0
O                1.2123972175        8.3253929520        8.2981876587    0   0   0
O                3.6291095674        6.4909496873        8.6481394006    0   0   0
O                3.4680363025        1.4891875754        8.6265731291    0   0   0
O                1.1093829690        3.2390247331        8.2722091938    0   0   0
O                1.3596349964        8.1732983076        5.8844425164    0   0   0
O                3.7923299398        6.6696755998       11.1017409419    0   0   0
O                3.3003412998        1.6632003659       11.0846454462    0   0   0
O                0.9531584297        3.0774745500        5.8198181531    0   0   0
O                0.9136186619        5.3618137311        7.0362164392    0   0   0
O                3.2629172638        9.5446340885        9.9282608343    0   0   0
O                3.5446225228        3.8405128423        7.0821078828    0   0   0
O                1.1879123926        0.8833017255        9.8135924863    0   0   0
O                1.1354873087        5.9002852466        9.8415499985    0   0   0
O                3.7965946052        4.3877760984        9.8998794461    0   0   0
O                1.4392974591        0.3016087220        7.0217319728    0   0   0
O                3.4959570534        8.9046787901        7.1310821586    0   0   0
P                6.6688818178        8.9648664905        7.0220839690    0   0   0
P                9.0062189322        5.8433568154        9.9351828548    0   0   0
P                7.4256001189        0.7916169815        9.9078014654    0   0   0
P                5.0827169838        3.8822476802        6.9867459032    0   0   0
O                5.9261601580        8.3047134747        8.2957315165    0   0   0
O                8.2821359139        6.5175804600        8.6592372243    0   0   0
O                8.1641303211        1.4544857869        8.6326835892    0   0   0
O                5.8185662143        3.2162709709        8.2602842260    0   0   0
O                6.0955409502        8.1372002858        5.8430941221    0   0   0
O                8.4431397248        6.6873528892       11.1081253718    0   0   0
O                8.0075057281        1.6138667826       11.0849006204    0   0   0
O                5.6616365268        3.0477094258        5.8162644606    0   0   0
O                5.6428606763        5.3373221456        7.0164591929    0   0   0
O                7.9606510584        9.4880010964        9.9237323917    0   0   0
O                8.2411397074        3.8224416068        7.0850651702    0   0   0
O                5.8887324813        0.8521033415        9.8092820433    0   0   0
O                5.8962744512        5.9036412465        9.8325045456    0   0   0
O                8.4527730620        4.3886428208        9.9038173381    0   0   0
O                6.1330998669        0.2679537444        6.9999548578    0   0   0
O                8.2056512655        8.9055106833        7.1237153000    0   0   0
Mn               2.2524368768        7.6070420221        4.2173679033    0   0   0
Ni               4.6534647676        7.0032868250        1.1759780399    0   0   0
Ni               0.0619603813        2.5167351685        4.1494116195    0   0   0
Ni               2.4219525798        1.9726405338        1.1447847987    0   0   0
Ni               9.3547912696        9.7849365202        2.6377541788    0   0   0
Ni               2.3579554440        4.7588907347        2.6617365524    0   0   0
Ni               6.9796879716        7.5754693957        4.1674907823    0   0   0
Ni               9.3096730862        7.0146526563        1.1834258107    0   0   0
Ni               4.7877892837        2.5048810569        4.1392836112    0   0   0
Ni               7.1245715506        1.9383676161        1.1424209947    0   0   0
Ni               4.7058610954        9.7771830645        2.6231648672    0   0   0
Ni               7.0530582306        4.7470784726        2.6468388792    0   0   0
P                1.9603854589        8.8807618404        1.2420228787    0   0   0
P                4.3608513788        5.7227404107        4.1179558521    0   0   0
P                2.7263470654        0.7282876635        4.0978530075    0   0   0
P                0.3711210654        3.7827789711        1.1916273134    0   0   0
O                1.2123972175        8.2083896765        2.4919231980    0   0   0
O                3.6291095674        6.3739464118        2.8418749399    0   0   0
O                3.4680363025        1.3721842999        2.8203086685    0   0   0
O                1.1093829690        3.1220214576        2.4659447331    0   0   0
O                1.3596349964        8.0562950321        0.0781780558    0   0   0
O                3.7923299398        6.5526723243        5.2954764813    0   0   0
O                3.3003412998        1.5461970904        5.2783809855    0   0   0
O                0.9531584297        2.9604712745        0.0135536924    0   0   0
O                0.9136186619        5.2448104556        1.2299519786    0   0   0
O                3.2629172638        9.4276308131        4.1219963736    0   0   0
O                3.5446225228        3.7235095668        1.2758434221    0   0   0
O                1.1879123926        0.7662984500        4.0073280256    0   0   0
O                1.1354873087        5.7832819711        4.0352855378    0   0   0
O                3.7965946052        4.2707728229        4.0936149854    0   0   0
O                1.4392974591        0.1846054465        1.2154675122    0   0   0
O                3.4959570534        8.7876755146        1.3248176979    0   0   0
P                6.6688818178        8.8478632150        1.2158195084    0   0   0
P                9.0062189322        5.7263535399        4.1289183942    0   0   0
P                7.4256001189        0.6746137060        4.1015370047    0   0   0
P                5.0827169838        3.7652444047        1.1804814425    0   0   0
O                5.9261601580        8.1877101992        2.4894670559    0   0   0
O                8.2821359139        6.4005771845        2.8529727636    0   0   0
O                8.1641303211        1.3374825114        2.8264191286    0   0   0
O                5.8185662143        3.0992676954        2.4540197653    0   0   0
O                6.0955409502        8.0201970103        0.0368296614    0   0   0
O                8.4431397248        6.5703496137        5.3018609112    0   0   0
O                8.0075057281        1.4968635071        5.2786361598    0   0   0
O                5.6616365268        2.9307061503        0.0100000000    0   0   0
O                5.6428606763        5.2203188701        1.2101947322    0   0   0
O                7.9606510584        9.3709978209        4.1174679311    0   0   0
O                8.2411397074        3.7054383313        1.2788007096    0   0   0
O                5.8887324813        0.7351000660        4.0030175826    0   0   0
O                5.8962744512        5.7866379710        4.0262400850    0   0   0
O                8.4527730620        4.2716395453        4.0975528774    0   0   0
O                6.1330998669        0.1509504689        1.1936903972    0   0   0
O                8.2056512655        8.7885074078        1.3174508394    0   0   0
O                5.8924983036        8.6573161544       17.2686833879
H                5.1740727873        8.0544741845       17.5734438370
End final coordinates



     Writing all to output data dir ./tmp/pwscf.save/
 
     init_run     :      7.94s CPU      8.61s WALL (       1 calls)
     electrons    :   8851.24s CPU   9294.62s WALL (      28 calls)
     update_pot   :     12.03s CPU     12.36s WALL (      27 calls)
     forces       :    122.69s CPU    131.95s WALL (      28 calls)
     force_london :      2.65s CPU      2.65s WALL (      28 calls)

     Called by init_run:
     wfcinit      :      4.56s CPU      4.75s WALL (       1 calls)
     potinit      :      0.62s CPU      0.81s WALL (       1 calls)
     hinit0       :      1.30s CPU      1.39s WALL (       1 calls)

     Called by electrons:
     c_bands      :   6805.26s CPU   6992.59s WALL (     658 calls)
     sum_band     :   1240.77s CPU   1346.98s WALL (     658 calls)
     v_of_rho     :    251.38s CPU    284.39s WALL (     671 calls)
     newd         :    390.48s CPU    481.98s WALL (     671 calls)
     mix_rho      :    169.13s CPU    170.43s WALL (     658 calls)
     energy_londo :      2.46s CPU      2.46s WALL (      28 calls)

     Called by c_bands:
     init_us_2    :     26.95s CPU     27.23s WALL (    2690 calls)
     init_us_2:cp :     26.92s CPU     27.22s WALL (    2690 calls)
     regterg      :   6640.32s CPU   6826.18s WALL (    1317 calls)

     Called by *egterg:
     rdiaghg      :   1523.83s CPU   1611.50s WALL (    4389 calls)
     h_psi        :   2721.74s CPU   2771.63s WALL (    4475 calls)
     s_psi        :    553.57s CPU    554.08s WALL (    4475 calls)
     g_psi        :      3.95s CPU      3.99s WALL (    3156 calls)

     Called by h_psi:
     h_psi:calbec :    703.86s CPU    745.76s WALL (    4475 calls)
     vloc_psi     :   1439.48s CPU   1446.40s WALL (    4475 calls)
     add_vuspsi   :    569.40s CPU    570.40s WALL (    4475 calls)

     General routines
     calbec       :   1081.90s CPU   1146.90s WALL (    6015 calls)
     fft          :    300.31s CPU    335.30s WALL (   12484 calls)
     ffts         :     93.57s CPU     93.94s WALL (   77645 calls)
     fftw         :   1547.07s CPU   1554.30s WALL ( 2207006 calls)
     interpolate  :     10.92s CPU     11.59s WALL (    1342 calls)
 
     Parallel routines
 
     PWSCF        :      2h30m CPU      2h38m WALL

 
   This run was terminated on:  22:44:29  17Nov2025            

=------------------------------------------------------------------------------=
   JOB DONE.
=------------------------------------------------------------------------------=
