
     Program PWSCF v.7.2 starts on 19Nov2025 at 19:51:53 

     This program is part of the open-source Quantum ESPRESSO suite
     for quantum simulation of materials; please cite
         "P. Giannozzi et al., J. Phys.:Condens. Matter 21 395502 (2009);
         "P. Giannozzi et al., J. Phys.:Condens. Matter 29 465901 (2017);
         "P. Giannozzi et al., J. Chem. Phys. 152 154105 (2020);
          URL http://www.quantum-espresso.org", 
     in publications or presentations arising from this work. More details at
     http://www.quantum-espresso.org/quote

     Parallel version (MPI), running on    64 processors

     MPI processes distributed on     4 nodes
     429277 MiB available memory on the printing compute node when the environment starts
 
     Reading input from PWINPUT_atm157_ym

     Current dimensions of program PWSCF are:
     Max number of different atomic species (ntypx) = 10
     Max number of k-points (npk) =  40000
     Max angular momentum in pseudopotentials (lmaxx) =  4
     Presently no symmetry can be used with electric field

     file Ni.pbe-n-rrkjus_psl.1.0.0.UPF: wavefunction(s)  3D renormalized
     file Mn.pbe-spn-rrkjus_psl.0.3.1.UPF: wavefunction(s)  3D renormalized
     file O.pbe-rrkjus.UPF: wavefunction(s)  2S renormalized
     file H.pbe-rrkjus.UPF: wavefunction(s)  1S renormalized

     gamma-point specific algorithms are used
 
     R & G space division:  proc/nbgrp/npool/nimage =      64
     Subspace diagonalization in iterative solution of the eigenvalue problem:
     one sub-group per band group will be used
     custom distributed-memory algorithm (size of sub-group:  6*  6 procs)

 
     Parallelization info
     --------------------
     sticks:   dense  smooth     PW     G-vecs:    dense   smooth      PW
     Min         208      82     20                59912    15118    1876
     Max         210      84     22                59974    15196    1926
     Sum       13399    5355   1345              3836275   970529  121367
 
     Using Slab Decomposition
 


     bravais-lattice index     =            0
     lattice parameter (alat)  =      17.7004  a.u.
     unit-cell volume          =   20319.7251 (a.u.)^3
     number of atoms/cell      =          158
     number of atomic types    =            5
     number of electrons       =      1078.00
     number of Kohn-Sham states=          647
     kinetic-energy cutoff     =      50.0000  Ry
     charge density cutoff     =     500.0000  Ry
     scf convergence threshold =      1.0E-06
     mixing beta               =       0.1000
     number of iterations used =            8  local-TF  mixing
     Exchange-correlation=  SLA  PW   PBE  PBE
                           (   1   4   3   4   0   0   0)

     celldm(1)=  17.700384  celldm(2)=   0.000000  celldm(3)=   0.000000
     celldm(4)=   0.000000  celldm(5)=   0.000000  celldm(6)=   0.000000

     crystal axes: (cart. coord. in units of alat)
               a(1) = (   1.000000   0.000000   0.000000 )  
               a(2) = (   0.000000   1.075730   0.000000 )  
               a(3) = (   0.000000   0.000000   3.406172 )  

     reciprocal axes: (cart. coord. in units 2 pi/alat)
               b(1) = (  1.000000  0.000000  0.000000 )  
               b(2) = (  0.000000  0.929602  0.000000 )  
               b(3) = (  0.000000  0.000000  0.293585 )  


     PseudoPot. # 1 for Ni read from file:
     ~/PSEUDO/Ni.pbe-n-rrkjus_psl.1.0.0.UPF
     MD5 check sum: Not computed, couldn't open file
     Pseudo is Ultrasoft + core correction, Zval = 10.0
     Generated using "atomic" code by A. Dal Corso  v.5.1.2
     Using radial grid of 1195 points,  6 beta functions with: 
                l(1) =   0
                l(2) =   0
                l(3) =   1
                l(4) =   1
                l(5) =   2
                l(6) =   2
     Q(r) pseudized with 0 coefficients 


     PseudoPot. # 2 for Mn read from file:
     ~/PSEUDO/Mn.pbe-spn-rrkjus_psl.0.3.1.UPF
     MD5 check sum: Not computed, couldn't open file
     Pseudo is Ultrasoft + core correction, Zval = 15.0
     Generated using &quot;atomic&quot; code by A. Dal Corso  v.6.2.2
     Using radial grid of 1187 points,  6 beta functions with: 
                l(1) =   0
                l(2) =   0
                l(3) =   1
                l(4) =   1
                l(5) =   2
                l(6) =   2
     Q(r) pseudized with 0 coefficients 


     PseudoPot. # 3 for P  read from file:
     ~/PSEUDO/P.pbe-n-rrkjus_psl.1.0.0.UPF
     MD5 check sum: Not computed, couldn't open file
     Pseudo is Ultrasoft + core correction, Zval =  5.0
     Generated using "atomic" code by A. Dal Corso  v.5.1
     Using radial grid of 1147 points,  6 beta functions with: 
                l(1) =   0
                l(2) =   0
                l(3) =   1
                l(4) =   1
                l(5) =   2
                l(6) =   2
     Q(r) pseudized with 0 coefficients 


     PseudoPot. # 4 for O  read from file:
     ~/PSEUDO/O.pbe-rrkjus.UPF
     MD5 check sum: Not computed, couldn't open file
     Pseudo is Ultrasoft, Zval =  6.0
     Generated by new atomic code, or converted to UPF format
     Using radial grid of 1269 points,  4 beta functions with: 
                l(1) =   0
                l(2) =   0
                l(3) =   1
                l(4) =   1
     Q(r) pseudized with 0 coefficients 


     PseudoPot. # 5 for H  read from file:
     ~/PSEUDO/H.pbe-rrkjus.UPF
     MD5 check sum: Not computed, couldn't open file
     Pseudo is Ultrasoft, Zval =  1.0
     Generated by new atomic code, or converted to UPF format
     Using radial grid of 1061 points,  2 beta functions with: 
                l(1) =   0
                l(2) =   0
     Q(r) pseudized with 0 coefficients 


     atomic species   valence    mass     pseudopotential
     Ni               10.00    58.69300     Ni( 1.00)
     Mn               15.00    54.93800     Mn( 1.00)
     P                 5.00    30.97300     P ( 1.00)
     O                 6.00    15.99900     O ( 1.00)
     H                 1.00     1.00790     H ( 1.00)

     Starting magnetic structure 
     atomic species   magnetization
     Ni              1.000
     Mn              1.000
     P               1.000
     O               1.000
     H               0.000

     No symmetry found



   Cartesian axes

     site n.     atom                  positions (alat units)
         1        Mn     tau(   1) = (   0.2404744   0.8371250   0.1168501  )
         2        Ni     tau(   2) = (   0.4968126   0.7726670   0.4415546  )
         3        Ni     tau(   3) = (   0.0066150   0.2936743   0.1241053  )
         4        Ni     tau(   4) = (   0.2585722   0.2355858   0.4448848  )
         5        Ni     tau(   5) = (   0.9987350   1.0696411   0.2854926  )
         6        Ni     tau(   6) = (   0.2517397   0.5330511   0.2829322  )
         7        Ni     tau(   7) = (   0.7451645   0.8337543   0.1221751  )
         8        Ni     tau(   8) = (   0.9939181   0.7738804   0.4407595  )
         9        Ni     tau(   9) = (   0.5111533   0.2924088   0.1251865  )
        10        Ni     tau(  10) = (   0.7606326   0.2319267   0.4451372  )
        11        Ni     tau(  11) = (   0.5024065   1.0688133   0.2870502  )
        12        Ni     tau(  12) = (   0.7529977   0.5317900   0.2845227  )
        13        P      tau(  13) = (   0.2092944   0.9731097   0.4345035  )
        14        P      tau(  14) = (   0.4655727   0.6359535   0.1274635  )
        15        P      tau(  15) = (   0.2910699   0.1027363   0.1296098  )
        16        P      tau(  16) = (   0.0396216   0.4288395   0.4398838  )
        17        O      tau(  17) = (   0.1294378   0.9013260   0.3010618  )
        18        O      tau(  18) = (   0.3874505   0.7054774   0.2637003  )
        19        O      tau(  19) = (   0.3702540   0.1714799   0.2660028  )
        20        O      tau(  20) = (   0.1184398   0.3582958   0.3038353  )
        21        O      tau(  21) = (   0.1451572   0.8850881   0.5587578  )
        22        O      tau(  22) = (   0.4048762   0.7245585   0.0017492  )
        23        O      tau(  23) = (   0.3523506   0.1900579   0.0035744  )
        24        O      tau(  24) = (   0.1017610   0.3410484   0.5656572  )
        25        O      tau(  25) = (   0.0975396   0.5849288   0.4357922  )
        26        O      tau(  26) = (   0.3483552   1.0314945   0.1270322  )
        27        O      tau(  27) = (   0.3784305   0.4225118   0.4308928  )
        28        O      tau(  28) = (   0.1268237   0.1067944   0.1392744  )
        29        O      tau(  29) = (   0.1212267   0.6424170   0.1362896  )
        30        O      tau(  30) = (   0.4053315   0.4809387   0.1300622  )
        31        O      tau(  31) = (   0.1536621   0.0446918   0.4373386  )
        32        O      tau(  32) = (   0.3732349   0.9631717   0.4256642  )
        33        P      tau(  33) = (   0.7119823   0.9695974   0.4373010  )
        34        P      tau(  34) = (   0.9615208   0.6363392   0.1262932  )
        35        P      tau(  35) = (   0.7927710   0.0970060   0.1292164  )
        36        P      tau(  36) = (   0.5426404   0.4269675   0.4410738  )
        37        O      tau(  37) = (   0.6326879   0.8991182   0.3013240  )
        38        O      tau(  38) = (   0.8842163   0.7083206   0.2625155  )
        39        O      tau(  39) = (   0.8716178   0.1677751   0.2653504  )
        40        O      tau(  40) = (   0.6212010   0.3558666   0.3051085  )
        41        O      tau(  41) = (   0.6507714   0.8812342   0.5631722  )
        42        O      tau(  42) = (   0.9014054   0.7264458   0.0010676  )
        43        O      tau(  43) = (   0.8548963   0.1847909   0.0035471  )
        44        O      tau(  44) = (   0.6044469   0.3378706   0.5660366  )
        45        O      tau(  45) = (   0.6024424   0.5823140   0.4379016  )
        46        O      tau(  46) = (   0.8498940   1.0254482   0.1275156  )
        47        O      tau(  47) = (   0.8798395   0.4205825   0.4305771  )
        48        O      tau(  48) = (   0.6286921   0.1034636   0.1397346  )
        49        O      tau(  49) = (   0.6294973   0.6427753   0.1372553  )
        50        O      tau(  50) = (   0.9024339   0.4810312   0.1296418  )
        51        O      tau(  51) = (   0.6547812   0.0410987   0.4396636  )
        52        O      tau(  52) = (   0.8760507   0.9632605   0.4264507  )
        53        Mn     tau(  53) = (   0.2404744   0.8246335   0.7367378  )
        54        Ni     tau(  54) = (   0.4968126   0.7601755   1.0614423  )
        55        Ni     tau(  55) = (   0.0066150   0.2811828   0.7439929  )
        56        Ni     tau(  56) = (   0.2585722   0.2230943   1.0647725  )
        57        Ni     tau(  57) = (   0.9987350   1.0571496   0.9053803  )
        58        Ni     tau(  58) = (   0.2517397   0.5205596   0.9028199  )
        59        Ni     tau(  59) = (   0.7451645   0.8212628   0.7420628  )
        60        Ni     tau(  60) = (   0.9939181   0.7613889   1.0606471  )
        61        Ni     tau(  61) = (   0.5111533   0.2799173   0.7450742  )
        62        Ni     tau(  62) = (   0.7606326   0.2194352   1.0650249  )
        63        Ni     tau(  63) = (   0.5024065   1.0563218   0.9069379  )
        64        Ni     tau(  64) = (   0.7529977   0.5192985   0.9044104  )
        65        P      tau(  65) = (   0.2092944   0.9606182   1.0543912  )
        66        P      tau(  66) = (   0.4655727   0.6234620   0.7473512  )
        67        P      tau(  67) = (   0.2910699   0.0902448   0.7494974  )
        68        P      tau(  68) = (   0.0396216   0.4163480   1.0597715  )
        69        O      tau(  69) = (   0.1294378   0.8888345   0.9209495  )
        70        O      tau(  70) = (   0.3874505   0.6929859   0.8835880  )
        71        O      tau(  71) = (   0.3702540   0.1589885   0.8858904  )
        72        O      tau(  72) = (   0.1184398   0.3458043   0.9237230  )
        73        O      tau(  73) = (   0.1451572   0.8725966   1.1786454  )
        74        O      tau(  74) = (   0.4048762   0.7120670   0.6216369  )
        75        O      tau(  75) = (   0.3523506   0.1775664   0.6234620  )
        76        O      tau(  76) = (   0.1017610   0.3285569   1.1855448  )
        77        O      tau(  77) = (   0.0975396   0.5724373   1.0556799  )
        78        O      tau(  78) = (   0.3483552   1.0190030   0.7469198  )
        79        O      tau(  79) = (   0.3784305   0.4100203   1.0507804  )
        80        O      tau(  80) = (   0.1268237   0.0943029   0.7591620  )
        81        O      tau(  81) = (   0.1212267   0.6299255   0.7561772  )
        82        O      tau(  82) = (   0.4053315   0.4684472   0.7499499  )
        83        O      tau(  83) = (   0.1536621   0.0322003   1.0572263  )
        84        O      tau(  84) = (   0.3732349   0.9506802   1.0455518  )
        85        P      tau(  85) = (   0.7119823   0.9571059   1.0571887  )
        86        P      tau(  86) = (   0.9615208   0.6238477   0.7461808  )
        87        P      tau(  87) = (   0.7927710   0.0845145   0.7491041  )
        88        P      tau(  88) = (   0.5426404   0.4144760   1.0609615  )
        89        O      tau(  89) = (   0.6326879   0.8866267   0.9212117  )
        90        O      tau(  90) = (   0.8842163   0.6958291   0.8824032  )
        91        O      tau(  91) = (   0.8716178   0.1552836   0.8852381  )
        92        O      tau(  92) = (   0.6212010   0.3433751   0.9249961  )
        93        O      tau(  93) = (   0.6507714   0.8687427   1.1830599  )
        94        O      tau(  94) = (   0.9014054   0.7139543   0.6209553  )
        95        O      tau(  95) = (   0.8548963   0.1722994   0.6234348  )
        96        O      tau(  96) = (   0.6044469   0.3253792   1.1859242  )
        97        O      tau(  97) = (   0.6024424   0.5698225   1.0577892  )
        98        O      tau(  98) = (   0.8498940   1.0129567   0.7474033  )
        99        O      tau(  99) = (   0.8798395   0.4080910   1.0504647  )
       100        O      tau( 100) = (   0.6286921   0.0909721   0.7596222  )
       101        O      tau( 101) = (   0.6294973   0.6302838   0.7571429  )
       102        O      tau( 102) = (   0.9024339   0.4685397   0.7495295  )
       103        O      tau( 103) = (   0.6547812   0.0286072   1.0595512  )
       104        O      tau( 104) = (   0.8760507   0.9507690   1.0463383  )
       105        Mn     tau( 105) = (   0.2366231   0.8099108   1.3652025  )
       106        Ni     tau( 106) = (   0.5054159   0.7462824   1.6760027  )
       107        Ni     tau( 107) = (   0.0089171   0.2673656   1.3686123  )
       108        Ni     tau( 108) = (   0.2644416   0.1993195   1.7084151  )
       109        Ni     tau( 109) = (   1.0061379   1.0432337   1.5350349  )
       110        Ni     tau( 110) = (   0.2518568   0.5022264   1.5321875  )
       111        Ni     tau( 111) = (   0.7428918   0.8054563   1.3680737  )
       112        Ni     tau( 112) = (   1.0041850   0.7431092   1.6780598  )
       113        Ni     tau( 113) = (   0.5112288   0.2659826   1.3709479  )
       114        Ni     tau( 114) = (   0.7532805   0.2088052   1.6753652  )
       115        Ni     tau( 115) = (   0.5047699   1.0448721   1.5373338  )
       116        Ni     tau( 116) = (   0.7503649   0.5053471   1.5308247  )
       117        P      tau( 117) = (   0.2161577   0.9302828   1.6982302  )
       118        P      tau( 118) = (   0.4629997   0.6076656   1.3708803  )
       119        P      tau( 119) = (   0.2923548   0.0759931   1.3761085  )
       120        P      tau( 120) = (   0.0403728   0.3936694   1.6855939  )
       121        O      tau( 121) = (   0.1364693   0.8668413   1.5531897  )
       122        O      tau( 122) = (   0.3862188   0.6762237   1.5077855  )
       123        O      tau( 123) = (   0.3702313   0.1459453   1.5113118  )
       124        O      tau( 124) = (   0.1164972   0.3354481   1.5416341  )
       125        O      tau( 125) = (   0.1561077   0.8312184   1.8121815  )
       126        O      tau( 126) = (   0.4024345   0.6977036   1.2456547  )
       127        O      tau( 127) = (   0.3529885   0.1608260   1.2478482  )
       128        O      tau( 128) = (   0.0988259   0.2967762   1.8028337  )
       129        O      tau( 129) = (   0.0955223   0.5521437   1.6882589  )
       130        O      tau( 130) = (   0.3501042   0.9948817   1.3794940  )
       131        O      tau( 131) = (   0.3769862   0.3955830   1.6820705  )
       132        O      tau( 132) = (   0.1282711   0.0787148   1.3850164  )
       133        O      tau( 133) = (   0.1228222   0.6171400   1.3807433  )
       134        O      tau( 134) = (   0.4031340   0.4526637   1.3730383  )
       135        O      tau( 135) = (   0.1564153   0.0102487   1.6911737  )
       136        O      tau( 136) = (   0.3803451   0.9249762   1.6777280  )
       137        P      tau( 137) = (   0.7174345   0.9334429   1.6935398  )
       138        P      tau( 138) = (   0.9584537   0.6093492   1.3691178  )
       139        P      tau( 139) = (   0.7939811   0.0700328   1.3725244  )
       140        P      tau( 140) = (   0.5416921   0.3997600   1.6930504  )
       141        O      tau( 141) = (   0.6378837   0.8729788   1.5477586  )
       142        O      tau( 142) = (   0.8828523   0.6807110   1.5061576  )
       143        O      tau( 143) = (   0.8725292   0.1417236   1.5079952  )
       144        O      tau( 144) = (   0.6175250   0.3342570   1.5484665  )
       145        O      tau( 145) = (   0.6556870   0.8369021   1.8084207  )
       146        O      tau( 146) = (   0.8987137   0.6988347   1.2434250  )
       147        O      tau( 147) = (   0.8547435   0.1573124   1.2458538  )
       148        O      tau( 148) = (   0.6058869   0.3057682   1.8100154  )
       149        O      tau( 149) = (   0.5996895   0.5564472   1.6887454  )
       150        O      tau( 150) = (   0.8537678   0.9909218   1.3764211  )
       151        O      tau( 151) = (   0.8747176   0.3908074   1.6749590  )
       152        O      tau( 152) = (   0.6300578   0.0775778   1.3854873  )
       153        O      tau( 153) = (   0.6270029   0.6154737   1.3814513  )
       154        O      tau( 154) = (   0.8992703   0.4545543   1.3717766  )
       155        O      tau( 155) = (   0.6630869   0.0162628   1.6912339  )
       156        O      tau( 156) = (   0.8822397   0.9273982   1.6791779  )
       157        O      tau( 157) = (   0.3793940   0.1162770   1.8413832  )
       158        H      tau( 158) = (   0.4636452   0.1772953   1.8643216  )

     -------------------------------------------------
     Parameters for Dispersion (Grimme-D2) Correction:
     -------------------------------------------------
       atom      VdW radius       C_6     

        Ni         2.952        374.666
        Mn         2.952        374.666
        P          3.222        271.980
        O          2.536         24.284
        H          1.892          4.857

     number of k points=     1  Gaussian smearing, width (Ry)=  0.0100
                       cart. coord. in units 2pi/alat
        k(    1) = (   0.0000000   0.0000000   0.0000000), wk =   1.0000000

     Dense  grid:  1918138 G-vectors     FFT dimensions: ( 125, 135, 432)

     Smooth grid:   485265 G-vectors     FFT dimensions: (  80,  90, 288)

     Estimated max dynamical RAM per process >     320.12 MB

     Estimated total dynamical RAM >      20.01 GB
     Generating pointlists ...
     new r_m :   0.0802 (alat units)  1.4194 (a.u.) for type    1
     new r_m :   0.0869 (alat units)  1.5388 (a.u.) for type    2
     new r_m :   0.0650 (alat units)  1.1499 (a.u.) for type    3
     new r_m :   0.0439 (alat units)  0.7778 (a.u.) for type    4
     new r_m :   0.0439 (alat units)  0.7778 (a.u.) for type    5

     Initial potential from superposition of free atoms

     starting charge    1077.8900, renormalised to    1078.0000

     negative rho (up, down):  1.237E-03 4.538E-04
 
     Adding external electric field

     Computed dipole along edir(3) : 
        Dipole                1.6236 Ry au,          4.1268 Debye
        Dipole field          0.0010 Ry au, 
 
        Potential amp.       -0.1090 Ry
        Total length         54.2615 bohr
 
 
     Adding external electric field

     Computed dipole along edir(3) : 
        Dipole                1.6236 Ry au,          4.1268 Debye
        Dipole field          0.0010 Ry au, 
 
        Potential amp.       -0.1090 Ry
        Total length         54.2615 bohr
 
     Starting wfcs are  812 randomized atomic wfcs

     total cpu time spent up to now is       10.7 secs

     Self-consistent Calculation

     iteration #  1     ecut=    50.00 Ry     beta= 0.10
     Davidson diagonalization with overlap
     ethr =  1.00E-02,  avg # of iterations =  6.0

     negative rho (up, down):  3.339E-01 2.255E-06
 
     Adding external electric field

     Computed dipole along edir(3) : 
        Dipole               -3.5146 Ry au,         -8.9331 Debye
        Dipole field         -0.0022 Ry au, 
 
        Potential amp.        0.2359 Ry
        Total length         54.2615 bohr
 
 
     Adding external electric field

     Computed dipole along edir(3) : 
        Dipole               -3.5146 Ry au,         -8.9331 Debye
        Dipole field         -0.0022 Ry au, 
 
        Potential amp.        0.2359 Ry
        Total length         54.2615 bohr
 

     total cpu time spent up to now is       37.3 secs

     total energy              =   -7179.12064239 Ry
     estimated scf accuracy    <     756.10548745 Ry

     total magnetization       =   216.00 Bohr mag/cell
     absolute magnetization    =   296.78 Bohr mag/cell

     iteration #  2     ecut=    50.00 Ry     beta= 0.10
     Davidson diagonalization with overlap
     ethr =  1.00E-02,  avg # of iterations =  2.0

     negative rho (up, down):  3.151E-01 2.164E-06
 
     Adding external electric field

     Computed dipole along edir(3) : 
        Dipole               -2.3794 Ry au,         -6.0478 Debye
        Dipole field         -0.0015 Ry au, 
 
        Potential amp.        0.1597 Ry
        Total length         54.2615 bohr
 
 
     Adding external electric field

     Computed dipole along edir(3) : 
        Dipole               -2.3794 Ry au,         -6.0478 Debye
        Dipole field         -0.0015 Ry au, 
 
        Potential amp.        0.1597 Ry
        Total length         54.2615 bohr
 

     total cpu time spent up to now is       53.2 secs

     total energy              =   -7262.63839158 Ry
     estimated scf accuracy    <     198.61005292 Ry

     total magnetization       =   149.14 Bohr mag/cell
     absolute magnetization    =   199.29 Bohr mag/cell

     iteration #  3     ecut=    50.00 Ry     beta= 0.10
     Davidson diagonalization with overlap
     ethr =  1.00E-02,  avg # of iterations =  1.5

     negative rho (up, down):  2.769E-01 1.966E-06
 
     Adding external electric field

     Computed dipole along edir(3) : 
        Dipole               -2.0201 Ry au,         -5.1347 Debye
        Dipole field         -0.0012 Ry au, 
 
        Potential amp.        0.1356 Ry
        Total length         54.2615 bohr
 
 
     Adding external electric field

     Computed dipole along edir(3) : 
        Dipole               -2.0201 Ry au,         -5.1347 Debye
        Dipole field         -0.0012 Ry au, 
 
        Potential amp.        0.1356 Ry
        Total length         54.2615 bohr
 

     total cpu time spent up to now is       66.4 secs

     total energy              =   -7293.59239498 Ry
     estimated scf accuracy    <      98.01984542 Ry

     total magnetization       =   124.68 Bohr mag/cell
     absolute magnetization    =   178.71 Bohr mag/cell

     iteration #  4     ecut=    50.00 Ry     beta= 0.10
     Davidson diagonalization with overlap
     ethr =  9.09E-03,  avg # of iterations =  1.5

     negative rho (up, down):  2.050E-01 6.403E-07
 
     Adding external electric field

     Computed dipole along edir(3) : 
        Dipole               -1.9411 Ry au,         -4.9339 Debye
        Dipole field         -0.0012 Ry au, 
 
        Potential amp.        0.1303 Ry
        Total length         54.2615 bohr
 
 
     Adding external electric field

     Computed dipole along edir(3) : 
        Dipole               -1.9411 Ry au,         -4.9339 Debye
        Dipole field         -0.0012 Ry au, 
 
        Potential amp.        0.1303 Ry
        Total length         54.2615 bohr
 

     total cpu time spent up to now is       78.6 secs

     total energy              =   -7328.30841806 Ry
     estimated scf accuracy    <      77.99741899 Ry

     total magnetization       =   109.81 Bohr mag/cell
     absolute magnetization    =   164.38 Bohr mag/cell

     iteration #  5     ecut=    50.00 Ry     beta= 0.10
     Davidson diagonalization with overlap
     ethr =  7.24E-03,  avg # of iterations =  1.5

     negative rho (up, down):  6.379E-03 5.849E-07
 
     Adding external electric field

     Computed dipole along edir(3) : 
        Dipole               -1.4776 Ry au,         -3.7556 Debye
        Dipole field         -0.0009 Ry au, 
 
        Potential amp.        0.0992 Ry
        Total length         54.2615 bohr
 
 
     Adding external electric field

     Computed dipole along edir(3) : 
        Dipole               -1.4776 Ry au,         -3.7556 Debye
        Dipole field         -0.0009 Ry au, 
 
        Potential amp.        0.0992 Ry
        Total length         54.2615 bohr
 

     total cpu time spent up to now is       91.6 secs

     total energy              =   -7386.83848836 Ry
     estimated scf accuracy    <      60.07255702 Ry

     total magnetization       =    88.00 Bohr mag/cell
     absolute magnetization    =   145.35 Bohr mag/cell

     iteration #  6     ecut=    50.00 Ry     beta= 0.10
     Davidson diagonalization with overlap
     ethr =  5.57E-03,  avg # of iterations =  1.5

     negative rho (up, down):  2.271E-04 2.928E-04
 
     Adding external electric field

     Computed dipole along edir(3) : 
        Dipole               -1.1439 Ry au,         -2.9076 Debye
        Dipole field         -0.0007 Ry au, 
 
        Potential amp.        0.0768 Ry
        Total length         54.2615 bohr
 
 
     Adding external electric field

     Computed dipole along edir(3) : 
        Dipole               -1.1439 Ry au,         -2.9076 Debye
        Dipole field         -0.0007 Ry au, 
 
        Potential amp.        0.0768 Ry
        Total length         54.2615 bohr
 

     total cpu time spent up to now is      103.6 secs

     total energy              =   -7395.58536596 Ry
     estimated scf accuracy    <       9.47292244 Ry

     total magnetization       =    81.62 Bohr mag/cell
     absolute magnetization    =   114.48 Bohr mag/cell

     iteration #  7     ecut=    50.00 Ry     beta= 0.10
     Davidson diagonalization with overlap
     ethr =  8.79E-04,  avg # of iterations =  5.0

     negative rho (up, down):  2.210E-04 2.842E-04
 
     Adding external electric field

     Computed dipole along edir(3) : 
        Dipole               -1.1412 Ry au,         -2.9007 Debye
        Dipole field         -0.0007 Ry au, 
 
        Potential amp.        0.0766 Ry
        Total length         54.2615 bohr
 
 
     Adding external electric field

     Computed dipole along edir(3) : 
        Dipole               -1.1412 Ry au,         -2.9007 Debye
        Dipole field         -0.0007 Ry au, 
 
        Potential amp.        0.0766 Ry
        Total length         54.2615 bohr
 

     total cpu time spent up to now is      123.3 secs

     total energy              =   -7397.63351690 Ry
     estimated scf accuracy    <      10.82903450 Ry

     total magnetization       =    71.53 Bohr mag/cell
     absolute magnetization    =    88.86 Bohr mag/cell

     iteration #  8     ecut=    50.00 Ry     beta= 0.10
     Davidson diagonalization with overlap
     ethr =  8.79E-04,  avg # of iterations =  1.0

     negative rho (up, down):  2.238E-04 2.826E-04
 
     Adding external electric field

     Computed dipole along edir(3) : 
        Dipole               -1.1474 Ry au,         -2.9163 Debye
        Dipole field         -0.0007 Ry au, 
 
        Potential amp.        0.0770 Ry
        Total length         54.2615 bohr
 
 
     Adding external electric field

     Computed dipole along edir(3) : 
        Dipole               -1.1474 Ry au,         -2.9163 Debye
        Dipole field         -0.0007 Ry au, 
 
        Potential amp.        0.0770 Ry
        Total length         54.2615 bohr
 

     total cpu time spent up to now is      134.9 secs

     total energy              =   -7397.65685229 Ry
     estimated scf accuracy    <      10.70562851 Ry

     total magnetization       =    71.59 Bohr mag/cell
     absolute magnetization    =    88.61 Bohr mag/cell

     iteration #  9     ecut=    50.00 Ry     beta= 0.10
     Davidson diagonalization with overlap
     ethr =  8.79E-04,  avg # of iterations =  1.0

     negative rho (up, down):  3.167E-04 3.894E-04
 
     Adding external electric field

     Computed dipole along edir(3) : 
        Dipole               -0.7992 Ry au,         -2.0315 Debye
        Dipole field         -0.0005 Ry au, 
 
        Potential amp.        0.0536 Ry
        Total length         54.2615 bohr
 
 
     Adding external electric field

     Computed dipole along edir(3) : 
        Dipole               -0.7992 Ry au,         -2.0315 Debye
        Dipole field         -0.0005 Ry au, 
 
        Potential amp.        0.0536 Ry
        Total length         54.2615 bohr
 

     total cpu time spent up to now is      145.8 secs

     total energy              =   -7397.52645257 Ry
     estimated scf accuracy    <      10.76177901 Ry

     total magnetization       =    71.58 Bohr mag/cell
     absolute magnetization    =    88.36 Bohr mag/cell

     iteration # 10     ecut=    50.00 Ry     beta= 0.10
     Davidson diagonalization with overlap
     ethr =  8.79E-04,  avg # of iterations =  1.0

     negative rho (up, down):  2.674E-03 3.885E-03
 
     Adding external electric field

     Computed dipole along edir(3) : 
        Dipole               -0.5168 Ry au,         -1.3136 Debye
        Dipole field         -0.0003 Ry au, 
 
        Potential amp.        0.0347 Ry
        Total length         54.2615 bohr
 
 
     Adding external electric field

     Computed dipole along edir(3) : 
        Dipole               -0.5168 Ry au,         -1.3136 Debye
        Dipole field         -0.0003 Ry au, 
 
        Potential amp.        0.0347 Ry
        Total length         54.2615 bohr
 

     total cpu time spent up to now is      156.8 secs

     total energy              =   -7397.54953918 Ry
     estimated scf accuracy    <       8.44744944 Ry

     total magnetization       =    72.01 Bohr mag/cell
     absolute magnetization    =    87.85 Bohr mag/cell

     iteration # 11     ecut=    50.00 Ry     beta= 0.10
     Davidson diagonalization with overlap
     ethr =  7.84E-04,  avg # of iterations =  1.5

     negative rho (up, down):  9.078E-04 1.975E-03
 
     Adding external electric field

     Computed dipole along edir(3) : 
        Dipole               -0.6745 Ry au,         -1.7143 Debye
        Dipole field         -0.0004 Ry au, 
 
        Potential amp.        0.0453 Ry
        Total length         54.2615 bohr
 
 
     Adding external electric field

     Computed dipole along edir(3) : 
        Dipole               -0.6745 Ry au,         -1.7143 Debye
        Dipole field         -0.0004 Ry au, 
 
        Potential amp.        0.0453 Ry
        Total length         54.2615 bohr
 

     total cpu time spent up to now is      168.5 secs

     total energy              =   -7397.60435574 Ry
     estimated scf accuracy    <       7.34966075 Ry

     total magnetization       =    73.35 Bohr mag/cell
     absolute magnetization    =    87.53 Bohr mag/cell

     iteration # 12     ecut=    50.00 Ry     beta= 0.10
     Davidson diagonalization with overlap
     ethr =  6.82E-04,  avg # of iterations =  1.0

     negative rho (up, down):  1.814E-02 1.958E-02
 
     Adding external electric field

     Computed dipole along edir(3) : 
        Dipole               -0.2775 Ry au,         -0.7054 Debye
        Dipole field         -0.0002 Ry au, 
 
        Potential amp.        0.0186 Ry
        Total length         54.2615 bohr
 
 
     Adding external electric field

     Computed dipole along edir(3) : 
        Dipole               -0.2775 Ry au,         -0.7054 Debye
        Dipole field         -0.0002 Ry au, 
 
        Potential amp.        0.0186 Ry
        Total length         54.2615 bohr
 

     total cpu time spent up to now is      178.8 secs

     total energy              =   -7397.40270115 Ry
     estimated scf accuracy    <       7.39143544 Ry

     total magnetization       =    72.08 Bohr mag/cell
     absolute magnetization    =    86.32 Bohr mag/cell

     iteration # 13     ecut=    50.00 Ry     beta= 0.10
     Davidson diagonalization with overlap
     ethr =  6.82E-04,  avg # of iterations =  2.0

     negative rho (up, down):  1.719E-02 2.130E-02
 
     Adding external electric field

     Computed dipole along edir(3) : 
        Dipole               -0.2237 Ry au,         -0.5687 Debye
        Dipole field         -0.0001 Ry au, 
 
        Potential amp.        0.0150 Ry
        Total length         54.2615 bohr
 
 
     Adding external electric field

     Computed dipole along edir(3) : 
        Dipole               -0.2237 Ry au,         -0.5687 Debye
        Dipole field         -0.0001 Ry au, 
 
        Potential amp.        0.0150 Ry
        Total length         54.2615 bohr
 

     total cpu time spent up to now is      190.3 secs

     total energy              =   -7397.74654175 Ry
     estimated scf accuracy    <       0.78762721 Ry

     total magnetization       =    81.31 Bohr mag/cell
     absolute magnetization    =    90.79 Bohr mag/cell

     iteration # 14     ecut=    50.00 Ry     beta= 0.10
     Davidson diagonalization with overlap
     ethr =  7.31E-05,  avg # of iterations = 18.5

     negative rho (up, down):  8.399E-03 1.243E-02
 
     Adding external electric field

     Computed dipole along edir(3) : 
        Dipole               -0.3657 Ry au,         -0.9295 Debye
        Dipole field         -0.0002 Ry au, 
 
        Potential amp.        0.0245 Ry
        Total length         54.2615 bohr
 
 
     Adding external electric field

     Computed dipole along edir(3) : 
        Dipole               -0.3657 Ry au,         -0.9295 Debye
        Dipole field         -0.0002 Ry au, 
 
        Potential amp.        0.0245 Ry
        Total length         54.2615 bohr
 

     total cpu time spent up to now is      218.8 secs

     total energy              =   -7397.79975550 Ry
     estimated scf accuracy    <       0.72135372 Ry

     total magnetization       =    80.99 Bohr mag/cell
     absolute magnetization    =    88.71 Bohr mag/cell

     iteration # 15     ecut=    50.00 Ry     beta= 0.10
     Davidson diagonalization with overlap
     ethr =  6.69E-05,  avg # of iterations =  1.0

     negative rho (up, down):  7.662E-04 2.553E-03
 
     Adding external electric field

     Computed dipole along edir(3) : 
        Dipole               -0.7779 Ry au,         -1.9773 Debye
        Dipole field         -0.0005 Ry au, 
 
        Potential amp.        0.0522 Ry
        Total length         54.2615 bohr
 
 
     Adding external electric field

     Computed dipole along edir(3) : 
        Dipole               -0.7779 Ry au,         -1.9773 Debye
        Dipole field         -0.0005 Ry au, 
 
        Potential amp.        0.0522 Ry
        Total length         54.2615 bohr
 

     total cpu time spent up to now is      229.5 secs

     total energy              =   -7397.88412642 Ry
     estimated scf accuracy    <       0.49397370 Ry

     total magnetization       =    80.36 Bohr mag/cell
     absolute magnetization    =    87.11 Bohr mag/cell

     iteration # 16     ecut=    50.00 Ry     beta= 0.10
     Davidson diagonalization with overlap
     ethr =  4.58E-05,  avg # of iterations =  2.0

     negative rho (up, down):  1.735E-03 3.623E-03
 
     Adding external electric field

     Computed dipole along edir(3) : 
        Dipole               -0.6272 Ry au,         -1.5942 Debye
        Dipole field         -0.0004 Ry au, 
 
        Potential amp.        0.0421 Ry
        Total length         54.2615 bohr
 
 
     Adding external electric field

     Computed dipole along edir(3) : 
        Dipole               -0.6272 Ry au,         -1.5942 Debye
        Dipole field         -0.0004 Ry au, 
 
        Potential amp.        0.0421 Ry
        Total length         54.2615 bohr
 

     total cpu time spent up to now is      241.5 secs

     total energy              =   -7397.93333975 Ry
     estimated scf accuracy    <       1.30034414 Ry

     total magnetization       =    77.34 Bohr mag/cell
     absolute magnetization    =    82.50 Bohr mag/cell

     iteration # 17     ecut=    50.00 Ry     beta= 0.10
     Davidson diagonalization with overlap
     ethr =  4.58E-05,  avg # of iterations =  1.0

     negative rho (up, down):  7.016E-04 1.766E-03
 
     Adding external electric field

     Computed dipole along edir(3) : 
        Dipole               -0.7828 Ry au,         -1.9898 Debye
        Dipole field         -0.0005 Ry au, 
 
        Potential amp.        0.0525 Ry
        Total length         54.2615 bohr
 
 
     Adding external electric field

     Computed dipole along edir(3) : 
        Dipole               -0.7828 Ry au,         -1.9898 Debye
        Dipole field         -0.0005 Ry au, 
 
        Potential amp.        0.0525 Ry
        Total length         54.2615 bohr
 

     total cpu time spent up to now is      251.9 secs

     total energy              =   -7397.99554988 Ry
     estimated scf accuracy    <       0.23676699 Ry

     total magnetization       =    80.06 Bohr mag/cell
     absolute magnetization    =    84.22 Bohr mag/cell

     iteration # 18     ecut=    50.00 Ry     beta= 0.10
     Davidson diagonalization with overlap
     ethr =  2.20E-05,  avg # of iterations =  2.0

     negative rho (up, down):  1.157E-03 1.721E-03
 
     Adding external electric field

     Computed dipole along edir(3) : 
        Dipole               -0.8591 Ry au,         -2.1837 Debye
        Dipole field         -0.0005 Ry au, 
 
        Potential amp.        0.0577 Ry
        Total length         54.2615 bohr
 
 
     Adding external electric field

     Computed dipole along edir(3) : 
        Dipole               -0.8591 Ry au,         -2.1837 Debye
        Dipole field         -0.0005 Ry au, 
 
        Potential amp.        0.0577 Ry
        Total length         54.2615 bohr
 

     total cpu time spent up to now is      264.3 secs

     total energy              =   -7398.02534410 Ry
     estimated scf accuracy    <       0.19560891 Ry

     total magnetization       =    79.53 Bohr mag/cell
     absolute magnetization    =    82.83 Bohr mag/cell

     iteration # 19     ecut=    50.00 Ry     beta= 0.10
     Davidson diagonalization with overlap
     ethr =  1.81E-05,  avg # of iterations =  2.0

     negative rho (up, down):  1.170E-03 1.444E-03
 
     Adding external electric field

     Computed dipole along edir(3) : 
        Dipole               -0.9479 Ry au,         -2.4093 Debye
        Dipole field         -0.0006 Ry au, 
 
        Potential amp.        0.0636 Ry
        Total length         54.2615 bohr
 
 
     Adding external electric field

     Computed dipole along edir(3) : 
        Dipole               -0.9479 Ry au,         -2.4093 Debye
        Dipole field         -0.0006 Ry au, 
 
        Potential amp.        0.0636 Ry
        Total length         54.2615 bohr
 

     total cpu time spent up to now is      276.1 secs

     total energy              =   -7398.03727483 Ry
     estimated scf accuracy    <       0.06711377 Ry

     total magnetization       =    80.93 Bohr mag/cell
     absolute magnetization    =    83.14 Bohr mag/cell

     iteration # 20     ecut=    50.00 Ry     beta= 0.10
     Davidson diagonalization with overlap
     c_bands:  5 eigenvalues not converged
     c_bands:  1 eigenvalues not converged
     ethr =  6.23E-06,  avg # of iterations = 20.0

     negative rho (up, down):  4.108E-04 4.674E-04
 
     Adding external electric field

     Computed dipole along edir(3) : 
        Dipole               -0.8816 Ry au,         -2.2407 Debye
        Dipole field         -0.0005 Ry au, 
 
        Potential amp.        0.0592 Ry
        Total length         54.2615 bohr
 
 
     Adding external electric field

     Computed dipole along edir(3) : 
        Dipole               -0.8816 Ry au,         -2.2407 Debye
        Dipole field         -0.0005 Ry au, 
 
        Potential amp.        0.0592 Ry
        Total length         54.2615 bohr
 

     total cpu time spent up to now is      297.7 secs

     total energy              =   -7398.03847630 Ry
     estimated scf accuracy    <       0.07612618 Ry

     total magnetization       =    80.24 Bohr mag/cell
     absolute magnetization    =    82.18 Bohr mag/cell

     iteration # 21     ecut=    50.00 Ry     beta= 0.10
     Davidson diagonalization with overlap
     c_bands:  3 eigenvalues not converged
     ethr =  6.23E-06,  avg # of iterations = 21.5

     negative rho (up, down):  4.070E-04 4.420E-04
 
     Adding external electric field

     Computed dipole along edir(3) : 
        Dipole               -0.8879 Ry au,         -2.2568 Debye
        Dipole field         -0.0005 Ry au, 
 
        Potential amp.        0.0596 Ry
        Total length         54.2615 bohr
 
 
     Adding external electric field

     Computed dipole along edir(3) : 
        Dipole               -0.8879 Ry au,         -2.2568 Debye
        Dipole field         -0.0005 Ry au, 
 
        Potential amp.        0.0596 Ry
        Total length         54.2615 bohr
 

     total cpu time spent up to now is      326.2 secs

     total energy              =   -7398.04070995 Ry
     estimated scf accuracy    <       0.05835185 Ry

     total magnetization       =    80.15 Bohr mag/cell
     absolute magnetization    =    81.93 Bohr mag/cell

     iteration # 22     ecut=    50.00 Ry     beta= 0.10
     Davidson diagonalization with overlap
     ethr =  5.41E-06,  avg # of iterations =  2.0

     negative rho (up, down):  5.044E-05 6.122E-05
 
     Adding external electric field

     Computed dipole along edir(3) : 
        Dipole               -0.8364 Ry au,         -2.1258 Debye
        Dipole field         -0.0005 Ry au, 
 
        Potential amp.        0.0561 Ry
        Total length         54.2615 bohr
 
 
     Adding external electric field

     Computed dipole along edir(3) : 
        Dipole               -0.8364 Ry au,         -2.1258 Debye
        Dipole field         -0.0005 Ry au, 
 
        Potential amp.        0.0561 Ry
        Total length         54.2615 bohr
 

     total cpu time spent up to now is      338.7 secs

     total energy              =   -7398.03894278 Ry
     estimated scf accuracy    <       0.03526727 Ry

     total magnetization       =    80.21 Bohr mag/cell
     absolute magnetization    =    81.87 Bohr mag/cell

     iteration # 23     ecut=    50.00 Ry     beta= 0.10
     Davidson diagonalization with overlap
     c_bands:  1 eigenvalues not converged
     ethr =  3.27E-06,  avg # of iterations = 11.0

     negative rho (up, down):  2.410E-05 2.240E-05
 
     Adding external electric field

     Computed dipole along edir(3) : 
        Dipole               -0.8169 Ry au,         -2.0764 Debye
        Dipole field         -0.0005 Ry au, 
 
        Potential amp.        0.0548 Ry
        Total length         54.2615 bohr
 
 
     Adding external electric field

     Computed dipole along edir(3) : 
        Dipole               -0.8169 Ry au,         -2.0764 Debye
        Dipole field         -0.0005 Ry au, 
 
        Potential amp.        0.0548 Ry
        Total length         54.2615 bohr
 

     total cpu time spent up to now is      356.3 secs

     total energy              =   -7398.03973043 Ry
     estimated scf accuracy    <       0.01605798 Ry

     total magnetization       =    80.54 Bohr mag/cell
     absolute magnetization    =    82.05 Bohr mag/cell

     iteration # 24     ecut=    50.00 Ry     beta= 0.10
     Davidson diagonalization with overlap
     ethr =  1.49E-06,  avg # of iterations =  8.0

     negative rho (up, down):  6.946E-06 5.407E-06
 
     Adding external electric field

     Computed dipole along edir(3) : 
        Dipole               -0.7566 Ry au,         -1.9232 Debye
        Dipole field         -0.0005 Ry au, 
 
        Potential amp.        0.0508 Ry
        Total length         54.2615 bohr
 
 
     Adding external electric field

     Computed dipole along edir(3) : 
        Dipole               -0.7566 Ry au,         -1.9232 Debye
        Dipole field         -0.0005 Ry au, 
 
        Potential amp.        0.0508 Ry
        Total length         54.2615 bohr
 

     total cpu time spent up to now is      372.4 secs

     total energy              =   -7398.03883653 Ry
     estimated scf accuracy    <       0.01533484 Ry

     total magnetization       =    80.42 Bohr mag/cell
     absolute magnetization    =    81.90 Bohr mag/cell

     iteration # 25     ecut=    50.00 Ry     beta= 0.10
     Davidson diagonalization with overlap
     c_bands:  4 eigenvalues not converged
     ethr =  1.42E-06,  avg # of iterations = 21.0

     negative rho (up, down):  3.843E-06 4.230E-06
 
     Adding external electric field

     Computed dipole along edir(3) : 
        Dipole               -0.7130 Ry au,         -1.8123 Debye
        Dipole field         -0.0004 Ry au, 
 
        Potential amp.        0.0479 Ry
        Total length         54.2615 bohr
 
 
     Adding external electric field

     Computed dipole along edir(3) : 
        Dipole               -0.7130 Ry au,         -1.8123 Debye
        Dipole field         -0.0004 Ry au, 
 
        Potential amp.        0.0479 Ry
        Total length         54.2615 bohr
 

     total cpu time spent up to now is      402.6 secs

     total energy              =   -7398.03879301 Ry
     estimated scf accuracy    <       0.01395165 Ry

     total magnetization       =    80.46 Bohr mag/cell
     absolute magnetization    =    81.91 Bohr mag/cell

     iteration # 26     ecut=    50.00 Ry     beta= 0.10
     Davidson diagonalization with overlap
     ethr =  1.29E-06,  avg # of iterations =  2.0

     negative rho (up, down):  7.294E-06 7.952E-06
 
     Adding external electric field

     Computed dipole along edir(3) : 
        Dipole               -0.7011 Ry au,         -1.7819 Debye
        Dipole field         -0.0004 Ry au, 
 
        Potential amp.        0.0471 Ry
        Total length         54.2615 bohr
 
 
     Adding external electric field

     Computed dipole along edir(3) : 
        Dipole               -0.7011 Ry au,         -1.7819 Debye
        Dipole field         -0.0004 Ry au, 
 
        Potential amp.        0.0471 Ry
        Total length         54.2615 bohr
 

     total cpu time spent up to now is      415.8 secs

     total energy              =   -7398.03868200 Ry
     estimated scf accuracy    <       0.01569870 Ry

     total magnetization       =    80.44 Bohr mag/cell
     absolute magnetization    =    81.89 Bohr mag/cell

     iteration # 27     ecut=    50.00 Ry     beta= 0.10
     Davidson diagonalization with overlap
     ethr =  1.29E-06,  avg # of iterations =  1.5

     negative rho (up, down):  4.652E-05 4.503E-05
 
     Adding external electric field

     Computed dipole along edir(3) : 
        Dipole               -0.6939 Ry au,         -1.7638 Debye
        Dipole field         -0.0004 Ry au, 
 
        Potential amp.        0.0466 Ry
        Total length         54.2615 bohr
 
 
     Adding external electric field

     Computed dipole along edir(3) : 
        Dipole               -0.6939 Ry au,         -1.7638 Debye
        Dipole field         -0.0004 Ry au, 
 
        Potential amp.        0.0466 Ry
        Total length         54.2615 bohr
 

     total cpu time spent up to now is      428.0 secs

     total energy              =   -7398.03823486 Ry
     estimated scf accuracy    <       0.01570353 Ry

     total magnetization       =    80.44 Bohr mag/cell
     absolute magnetization    =    81.89 Bohr mag/cell

     iteration # 28     ecut=    50.00 Ry     beta= 0.10
     Davidson diagonalization with overlap
     ethr =  1.29E-06,  avg # of iterations =  2.0

     negative rho (up, down):  5.202E-05 4.987E-05
 
     Adding external electric field

     Computed dipole along edir(3) : 
        Dipole               -0.6934 Ry au,         -1.7624 Debye
        Dipole field         -0.0004 Ry au, 
 
        Potential amp.        0.0465 Ry
        Total length         54.2615 bohr
 
 
     Adding external electric field

     Computed dipole along edir(3) : 
        Dipole               -0.6934 Ry au,         -1.7624 Debye
        Dipole field         -0.0004 Ry au, 
 
        Potential amp.        0.0465 Ry
        Total length         54.2615 bohr
 

     total cpu time spent up to now is      440.6 secs

     total energy              =   -7398.03822191 Ry
     estimated scf accuracy    <       0.01453313 Ry

     total magnetization       =    80.46 Bohr mag/cell
     absolute magnetization    =    81.88 Bohr mag/cell

     iteration # 29     ecut=    50.00 Ry     beta= 0.10
     Davidson diagonalization with overlap
     ethr =  1.29E-06,  avg # of iterations =  1.0

     negative rho (up, down):  5.259E-05 5.753E-05
 
     Adding external electric field

     Computed dipole along edir(3) : 
        Dipole               -0.6764 Ry au,         -1.7193 Debye
        Dipole field         -0.0004 Ry au, 
 
        Potential amp.        0.0454 Ry
        Total length         54.2615 bohr
 
 
     Adding external electric field

     Computed dipole along edir(3) : 
        Dipole               -0.6764 Ry au,         -1.7193 Debye
        Dipole field         -0.0004 Ry au, 
 
        Potential amp.        0.0454 Ry
        Total length         54.2615 bohr
 

     total cpu time spent up to now is      451.5 secs

     total energy              =   -7398.03791920 Ry
     estimated scf accuracy    <       0.01430045 Ry

     total magnetization       =    80.47 Bohr mag/cell
     absolute magnetization    =    81.87 Bohr mag/cell

     iteration # 30     ecut=    50.00 Ry     beta= 0.10
     Davidson diagonalization with overlap
     ethr =  1.29E-06,  avg # of iterations =  1.5

     negative rho (up, down):  3.232E-04 3.446E-04
 
     Adding external electric field

     Computed dipole along edir(3) : 
        Dipole               -0.6835 Ry au,         -1.7373 Debye
        Dipole field         -0.0004 Ry au, 
 
        Potential amp.        0.0459 Ry
        Total length         54.2615 bohr
 
 
     Adding external electric field

     Computed dipole along edir(3) : 
        Dipole               -0.6835 Ry au,         -1.7373 Debye
        Dipole field         -0.0004 Ry au, 
 
        Potential amp.        0.0459 Ry
        Total length         54.2615 bohr
 

     total cpu time spent up to now is      463.9 secs

     total energy              =   -7398.03686646 Ry
     estimated scf accuracy    <       0.01369775 Ry

     total magnetization       =    80.47 Bohr mag/cell
     absolute magnetization    =    81.87 Bohr mag/cell

     iteration # 31     ecut=    50.00 Ry     beta= 0.10
     Davidson diagonalization with overlap
     ethr =  1.27E-06,  avg # of iterations =  1.0

     negative rho (up, down):  8.918E-05 9.020E-05
 
     Adding external electric field

     Computed dipole along edir(3) : 
        Dipole               -0.7186 Ry au,         -1.8265 Debye
        Dipole field         -0.0004 Ry au, 
 
        Potential amp.        0.0482 Ry
        Total length         54.2615 bohr
 
 
     Adding external electric field

     Computed dipole along edir(3) : 
        Dipole               -0.7186 Ry au,         -1.8265 Debye
        Dipole field         -0.0004 Ry au, 
 
        Potential amp.        0.0482 Ry
        Total length         54.2615 bohr
 

     total cpu time spent up to now is      474.7 secs

     total energy              =   -7398.03823870 Ry
     estimated scf accuracy    <       0.01337371 Ry

     total magnetization       =    80.48 Bohr mag/cell
     absolute magnetization    =    81.81 Bohr mag/cell

     iteration # 32     ecut=    50.00 Ry     beta= 0.10
     Davidson diagonalization with overlap
     ethr =  1.24E-06,  avg # of iterations =  1.5

     negative rho (up, down):  9.149E-05 1.168E-04
 
     Adding external electric field

     Computed dipole along edir(3) : 
        Dipole               -0.6562 Ry au,         -1.6678 Debye
        Dipole field         -0.0004 Ry au, 
 
        Potential amp.        0.0440 Ry
        Total length         54.2615 bohr
 
 
     Adding external electric field

     Computed dipole along edir(3) : 
        Dipole               -0.6562 Ry au,         -1.6678 Debye
        Dipole field         -0.0004 Ry au, 
 
        Potential amp.        0.0440 Ry
        Total length         54.2615 bohr
 

     total cpu time spent up to now is      486.2 secs

     total energy              =   -7398.03711696 Ry
     estimated scf accuracy    <       0.01343605 Ry

     total magnetization       =    80.49 Bohr mag/cell
     absolute magnetization    =    81.88 Bohr mag/cell

     iteration # 33     ecut=    50.00 Ry     beta= 0.10
     Davidson diagonalization with overlap
     ethr =  1.24E-06,  avg # of iterations =  1.5

     negative rho (up, down):  1.101E-04 1.445E-04
 
     Adding external electric field

     Computed dipole along edir(3) : 
        Dipole               -0.6437 Ry au,         -1.6362 Debye
        Dipole field         -0.0004 Ry au, 
 
        Potential amp.        0.0432 Ry
        Total length         54.2615 bohr
 
 
     Adding external electric field

     Computed dipole along edir(3) : 
        Dipole               -0.6437 Ry au,         -1.6362 Debye
        Dipole field         -0.0004 Ry au, 
 
        Potential amp.        0.0432 Ry
        Total length         54.2615 bohr
 

     total cpu time spent up to now is      497.8 secs

     total energy              =   -7398.03695295 Ry
     estimated scf accuracy    <       0.01280825 Ry

     total magnetization       =    80.44 Bohr mag/cell
     absolute magnetization    =    81.81 Bohr mag/cell

     iteration # 34     ecut=    50.00 Ry     beta= 0.10
     Davidson diagonalization with overlap
     ethr =  1.19E-06,  avg # of iterations =  1.5

     negative rho (up, down):  7.236E-05 1.011E-04
 
     Adding external electric field

     Computed dipole along edir(3) : 
        Dipole               -0.6478 Ry au,         -1.6467 Debye
        Dipole field         -0.0004 Ry au, 
 
        Potential amp.        0.0435 Ry
        Total length         54.2615 bohr
 
 
     Adding external electric field

     Computed dipole along edir(3) : 
        Dipole               -0.6478 Ry au,         -1.6467 Debye
        Dipole field         -0.0004 Ry au, 
 
        Potential amp.        0.0435 Ry
        Total length         54.2615 bohr
 

     total cpu time spent up to now is      509.3 secs

     total energy              =   -7398.03720543 Ry
     estimated scf accuracy    <       0.01281331 Ry

     total magnetization       =    80.43 Bohr mag/cell
     absolute magnetization    =    81.80 Bohr mag/cell

     iteration # 35     ecut=    50.00 Ry     beta= 0.10
     Davidson diagonalization with overlap
     ethr =  1.19E-06,  avg # of iterations =  1.5

     negative rho (up, down):  8.701E-05 1.172E-04
 
     Adding external electric field

     Computed dipole along edir(3) : 
        Dipole               -0.6485 Ry au,         -1.6482 Debye
        Dipole field         -0.0004 Ry au, 
 
        Potential amp.        0.0435 Ry
        Total length         54.2615 bohr
 
 
     Adding external electric field

     Computed dipole along edir(3) : 
        Dipole               -0.6485 Ry au,         -1.6482 Debye
        Dipole field         -0.0004 Ry au, 
 
        Potential amp.        0.0435 Ry
        Total length         54.2615 bohr
 

     total cpu time spent up to now is      521.4 secs

     total energy              =   -7398.03709575 Ry
     estimated scf accuracy    <       0.01240645 Ry

     total magnetization       =    80.44 Bohr mag/cell
     absolute magnetization    =    81.81 Bohr mag/cell

     iteration # 36     ecut=    50.00 Ry     beta= 0.10
     Davidson diagonalization with overlap
     ethr =  1.15E-06,  avg # of iterations =  1.5

     negative rho (up, down):  1.215E-04 1.549E-04
 
     Adding external electric field

     Computed dipole along edir(3) : 
        Dipole               -0.6519 Ry au,         -1.6571 Debye
        Dipole field         -0.0004 Ry au, 
 
        Potential amp.        0.0438 Ry
        Total length         54.2615 bohr
 
 
     Adding external electric field

     Computed dipole along edir(3) : 
        Dipole               -0.6519 Ry au,         -1.6571 Debye
        Dipole field         -0.0004 Ry au, 
 
        Potential amp.        0.0438 Ry
        Total length         54.2615 bohr
 

     total cpu time spent up to now is      533.5 secs

     total energy              =   -7398.03697439 Ry
     estimated scf accuracy    <       0.01215321 Ry

     total magnetization       =    80.44 Bohr mag/cell
     absolute magnetization    =    81.80 Bohr mag/cell

     iteration # 37     ecut=    50.00 Ry     beta= 0.10
     Davidson diagonalization with overlap
     ethr =  1.13E-06,  avg # of iterations =  1.0

     negative rho (up, down):  1.115E-04 1.457E-04
 
     Adding external electric field

     Computed dipole along edir(3) : 
        Dipole               -0.6713 Ry au,         -1.7064 Debye
        Dipole field         -0.0004 Ry au, 
 
        Potential amp.        0.0451 Ry
        Total length         54.2615 bohr
 
 
     Adding external electric field

     Computed dipole along edir(3) : 
        Dipole               -0.6713 Ry au,         -1.7064 Debye
        Dipole field         -0.0004 Ry au, 
 
        Potential amp.        0.0451 Ry
        Total length         54.2615 bohr
 

     total cpu time spent up to now is      545.1 secs

     total energy              =   -7398.03709937 Ry
     estimated scf accuracy    <       0.01201115 Ry

     total magnetization       =    80.44 Bohr mag/cell
     absolute magnetization    =    81.79 Bohr mag/cell

     iteration # 38     ecut=    50.00 Ry     beta= 0.10
     Davidson diagonalization with overlap
     ethr =  1.11E-06,  avg # of iterations =  1.5

     negative rho (up, down):  5.576E-04 6.294E-04
 
     Adding external electric field

     Computed dipole along edir(3) : 
        Dipole               -0.6022 Ry au,         -1.5305 Debye
        Dipole field         -0.0004 Ry au, 
 
        Potential amp.        0.0404 Ry
        Total length         54.2615 bohr
 
 
     Adding external electric field

     Computed dipole along edir(3) : 
        Dipole               -0.6022 Ry au,         -1.5305 Debye
        Dipole field         -0.0004 Ry au, 
 
        Potential amp.        0.0404 Ry
        Total length         54.2615 bohr
 

     total cpu time spent up to now is      556.7 secs

     total energy              =   -7398.03598465 Ry
     estimated scf accuracy    <       0.01337315 Ry

     total magnetization       =    80.44 Bohr mag/cell
     absolute magnetization    =    81.80 Bohr mag/cell

     iteration # 39     ecut=    50.00 Ry     beta= 0.10
     Davidson diagonalization with overlap
     ethr =  1.11E-06,  avg # of iterations =  3.0

     negative rho (up, down):  1.307E-03 1.444E-03
 
     Adding external electric field

     Computed dipole along edir(3) : 
        Dipole               -0.6068 Ry au,         -1.5424 Debye
        Dipole field         -0.0004 Ry au, 
 
        Potential amp.        0.0407 Ry
        Total length         54.2615 bohr
 
 
     Adding external electric field

     Computed dipole along edir(3) : 
        Dipole               -0.6068 Ry au,         -1.5424 Debye
        Dipole field         -0.0004 Ry au, 
 
        Potential amp.        0.0407 Ry
        Total length         54.2615 bohr
 

     total cpu time spent up to now is      569.3 secs

     total energy              =   -7398.03585286 Ry
     estimated scf accuracy    <       0.01025664 Ry

     total magnetization       =    80.44 Bohr mag/cell
     absolute magnetization    =    81.79 Bohr mag/cell

     iteration # 40     ecut=    50.00 Ry     beta= 0.10
     Davidson diagonalization with overlap
     ethr =  9.51E-07,  avg # of iterations =  2.5

     negative rho (up, down):  1.253E-03 1.385E-03
 
     Adding external electric field

     Computed dipole along edir(3) : 
        Dipole               -0.6096 Ry au,         -1.5494 Debye
        Dipole field         -0.0004 Ry au, 
 
        Potential amp.        0.0409 Ry
        Total length         54.2615 bohr
 
 
     Adding external electric field

     Computed dipole along edir(3) : 
        Dipole               -0.6096 Ry au,         -1.5494 Debye
        Dipole field         -0.0004 Ry au, 
 
        Potential amp.        0.0409 Ry
        Total length         54.2615 bohr
 

     total cpu time spent up to now is      582.9 secs

     total energy              =   -7398.03612711 Ry
     estimated scf accuracy    <       0.01082968 Ry

     total magnetization       =    80.47 Bohr mag/cell
     absolute magnetization    =    81.84 Bohr mag/cell

     iteration # 41     ecut=    50.00 Ry     beta= 0.10
     Davidson diagonalization with overlap
     ethr =  9.51E-07,  avg # of iterations =  1.0

     negative rho (up, down):  2.131E-03 2.415E-03
 
     Adding external electric field

     Computed dipole along edir(3) : 
        Dipole               -0.5249 Ry au,         -1.3342 Debye
        Dipole field         -0.0003 Ry au, 
 
        Potential amp.        0.0352 Ry
        Total length         54.2615 bohr
 
 
     Adding external electric field

     Computed dipole along edir(3) : 
        Dipole               -0.5249 Ry au,         -1.3342 Debye
        Dipole field         -0.0003 Ry au, 
 
        Potential amp.        0.0352 Ry
        Total length         54.2615 bohr
 

     total cpu time spent up to now is      593.5 secs

     total energy              =   -7398.03476436 Ry
     estimated scf accuracy    <       0.01096264 Ry

     total magnetization       =    80.46 Bohr mag/cell
     absolute magnetization    =    81.84 Bohr mag/cell

     iteration # 42     ecut=    50.00 Ry     beta= 0.10
     Davidson diagonalization with overlap
     ethr =  9.51E-07,  avg # of iterations =  3.5

     negative rho (up, down):  1.479E-03 1.644E-03
 
     Adding external electric field

     Computed dipole along edir(3) : 
        Dipole               -0.6054 Ry au,         -1.5387 Debye
        Dipole field         -0.0004 Ry au, 
 
        Potential amp.        0.0406 Ry
        Total length         54.2615 bohr
 
 
     Adding external electric field

     Computed dipole along edir(3) : 
        Dipole               -0.6054 Ry au,         -1.5387 Debye
        Dipole field         -0.0004 Ry au, 
 
        Potential amp.        0.0406 Ry
        Total length         54.2615 bohr
 

     total cpu time spent up to now is      607.3 secs

     total energy              =   -7398.03559228 Ry
     estimated scf accuracy    <       0.01121786 Ry

     total magnetization       =    80.47 Bohr mag/cell
     absolute magnetization    =    81.79 Bohr mag/cell

     iteration # 43     ecut=    50.00 Ry     beta= 0.10
     Davidson diagonalization with overlap
     ethr =  9.51E-07,  avg # of iterations =  2.0

     negative rho (up, down):  9.361E-04 1.071E-03
 
     Adding external electric field

     Computed dipole along edir(3) : 
        Dipole               -0.6275 Ry au,         -1.5949 Debye
        Dipole field         -0.0004 Ry au, 
 
        Potential amp.        0.0421 Ry
        Total length         54.2615 bohr
 
 
     Adding external electric field

     Computed dipole along edir(3) : 
        Dipole               -0.6275 Ry au,         -1.5949 Debye
        Dipole field         -0.0004 Ry au, 
 
        Potential amp.        0.0421 Ry
        Total length         54.2615 bohr
 

     total cpu time spent up to now is      619.2 secs

     total energy              =   -7398.03543198 Ry
     estimated scf accuracy    <       0.00944555 Ry

     total magnetization       =    80.48 Bohr mag/cell
     absolute magnetization    =    81.84 Bohr mag/cell

     iteration # 44     ecut=    50.00 Ry     beta= 0.10
     Davidson diagonalization with overlap
     ethr =  8.76E-07,  avg # of iterations =  2.0

     negative rho (up, down):  1.245E-03 1.415E-03
 
     Adding external electric field

     Computed dipole along edir(3) : 
        Dipole               -0.6490 Ry au,         -1.6497 Debye
        Dipole field         -0.0004 Ry au, 
 
        Potential amp.        0.0436 Ry
        Total length         54.2615 bohr
 
 
     Adding external electric field

     Computed dipole along edir(3) : 
        Dipole               -0.6490 Ry au,         -1.6497 Debye
        Dipole field         -0.0004 Ry au, 
 
        Potential amp.        0.0436 Ry
        Total length         54.2615 bohr
 

     total cpu time spent up to now is      632.0 secs

     total energy              =   -7398.03551712 Ry
     estimated scf accuracy    <       0.00810614 Ry

     total magnetization       =    80.47 Bohr mag/cell
     absolute magnetization    =    81.86 Bohr mag/cell

     iteration # 45     ecut=    50.00 Ry     beta= 0.10
     Davidson diagonalization with overlap
     ethr =  7.52E-07,  avg # of iterations =  2.0

     negative rho (up, down):  1.220E-03 1.342E-03
 
     Adding external electric field

     Computed dipole along edir(3) : 
        Dipole               -0.6655 Ry au,         -1.6915 Debye
        Dipole field         -0.0004 Ry au, 
 
        Potential amp.        0.0447 Ry
        Total length         54.2615 bohr
 
 
     Adding external electric field

     Computed dipole along edir(3) : 
        Dipole               -0.6655 Ry au,         -1.6915 Debye
        Dipole field         -0.0004 Ry au, 
 
        Potential amp.        0.0447 Ry
        Total length         54.2615 bohr
 

     total cpu time spent up to now is      644.4 secs

     total energy              =   -7398.03586355 Ry
     estimated scf accuracy    <       0.00729867 Ry

     total magnetization       =    80.46 Bohr mag/cell
     absolute magnetization    =    81.87 Bohr mag/cell

     iteration # 46     ecut=    50.00 Ry     beta= 0.10
     Davidson diagonalization with overlap
     ethr =  6.77E-07,  avg # of iterations =  1.0

     negative rho (up, down):  1.015E-03 9.941E-04
 
     Adding external electric field

     Computed dipole along edir(3) : 
        Dipole               -0.6266 Ry au,         -1.5926 Debye
        Dipole field         -0.0004 Ry au, 
 
        Potential amp.        0.0421 Ry
        Total length         54.2615 bohr
 
 
     Adding external electric field

     Computed dipole along edir(3) : 
        Dipole               -0.6266 Ry au,         -1.5926 Debye
        Dipole field         -0.0004 Ry au, 
 
        Potential amp.        0.0421 Ry
        Total length         54.2615 bohr
 

     total cpu time spent up to now is      656.0 secs

     total energy              =   -7398.03590658 Ry
     estimated scf accuracy    <       0.00670703 Ry

     total magnetization       =    80.47 Bohr mag/cell
     absolute magnetization    =    81.87 Bohr mag/cell

     iteration # 47     ecut=    50.00 Ry     beta= 0.10
     Davidson diagonalization with overlap
     ethr =  6.22E-07,  avg # of iterations =  3.0

     negative rho (up, down):  2.962E-03 2.845E-03
 
     Adding external electric field

     Computed dipole along edir(3) : 
        Dipole               -0.5639 Ry au,         -1.4334 Debye
        Dipole field         -0.0003 Ry au, 
 
        Potential amp.        0.0378 Ry
        Total length         54.2615 bohr
 
 
     Adding external electric field

     Computed dipole along edir(3) : 
        Dipole               -0.5639 Ry au,         -1.4334 Debye
        Dipole field         -0.0003 Ry au, 
 
        Potential amp.        0.0378 Ry
        Total length         54.2615 bohr
 

     total cpu time spent up to now is      669.5 secs

     total energy              =   -7398.03591297 Ry
     estimated scf accuracy    <       0.00476227 Ry

     total magnetization       =    80.49 Bohr mag/cell
     absolute magnetization    =    81.92 Bohr mag/cell

     iteration # 48     ecut=    50.00 Ry     beta= 0.10
     Davidson diagonalization with overlap
     c_bands:  1 eigenvalues not converged
     ethr =  4.42E-07,  avg # of iterations = 13.5

     negative rho (up, down):  2.752E-03 2.615E-03
 
     Adding external electric field

     Computed dipole along edir(3) : 
        Dipole               -0.5546 Ry au,         -1.4096 Debye
        Dipole field         -0.0003 Ry au, 
 
        Potential amp.        0.0372 Ry
        Total length         54.2615 bohr
 
 
     Adding external electric field

     Computed dipole along edir(3) : 
        Dipole               -0.5546 Ry au,         -1.4096 Debye
        Dipole field         -0.0003 Ry au, 
 
        Potential amp.        0.0372 Ry
        Total length         54.2615 bohr
 

     total cpu time spent up to now is      687.3 secs

     total energy              =   -7398.03593312 Ry
     estimated scf accuracy    <       0.00413675 Ry

     total magnetization       =    80.50 Bohr mag/cell
     absolute magnetization    =    81.97 Bohr mag/cell

     iteration # 49     ecut=    50.00 Ry     beta= 0.10
     Davidson diagonalization with overlap
     ethr =  3.84E-07,  avg # of iterations =  2.0

     negative rho (up, down):  1.735E-03 1.626E-03
 
     Adding external electric field

     Computed dipole along edir(3) : 
        Dipole               -0.5519 Ry au,         -1.4028 Debye
        Dipole field         -0.0003 Ry au, 
 
        Potential amp.        0.0370 Ry
        Total length         54.2615 bohr
 
 
     Adding external electric field

     Computed dipole along edir(3) : 
        Dipole               -0.5519 Ry au,         -1.4028 Debye
        Dipole field         -0.0003 Ry au, 
 
        Potential amp.        0.0370 Ry
        Total length         54.2615 bohr
 

     total cpu time spent up to now is      699.4 secs

     total energy              =   -7398.03577401 Ry
     estimated scf accuracy    <       0.00398060 Ry

     total magnetization       =    80.50 Bohr mag/cell
     absolute magnetization    =    81.99 Bohr mag/cell

     iteration # 50     ecut=    50.00 Ry     beta= 0.10
     Davidson diagonalization with overlap
     ethr =  3.69E-07,  avg # of iterations =  2.0

     negative rho (up, down):  2.791E-03 2.763E-03
 
     Adding external electric field

     Computed dipole along edir(3) : 
        Dipole               -0.4957 Ry au,         -1.2599 Debye
        Dipole field         -0.0003 Ry au, 
 
        Potential amp.        0.0333 Ry
        Total length         54.2615 bohr
 
 
     Adding external electric field

     Computed dipole along edir(3) : 
        Dipole               -0.4957 Ry au,         -1.2599 Debye
        Dipole field         -0.0003 Ry au, 
 
        Potential amp.        0.0333 Ry
        Total length         54.2615 bohr
 

     total cpu time spent up to now is      712.2 secs

     total energy              =   -7398.03572518 Ry
     estimated scf accuracy    <       0.00359085 Ry

     total magnetization       =    80.50 Bohr mag/cell
     absolute magnetization    =    82.01 Bohr mag/cell

     iteration # 51     ecut=    50.00 Ry     beta= 0.10
     Davidson diagonalization with overlap
     ethr =  3.33E-07,  avg # of iterations =  2.0

     negative rho (up, down):  5.487E-03 5.701E-03
 
     Adding external electric field

     Computed dipole along edir(3) : 
        Dipole               -0.3947 Ry au,         -1.0033 Debye
        Dipole field         -0.0002 Ry au, 
 
        Potential amp.        0.0265 Ry
        Total length         54.2615 bohr
 
 
     Adding external electric field

     Computed dipole along edir(3) : 
        Dipole               -0.3947 Ry au,         -1.0033 Debye
        Dipole field         -0.0002 Ry au, 
 
        Potential amp.        0.0265 Ry
        Total length         54.2615 bohr
 

     total cpu time spent up to now is      723.9 secs

     total energy              =   -7398.03567745 Ry
     estimated scf accuracy    <       0.00285455 Ry

     total magnetization       =    80.47 Bohr mag/cell
     absolute magnetization    =    81.99 Bohr mag/cell

     iteration # 52     ecut=    50.00 Ry     beta= 0.10
     Davidson diagonalization with overlap
     ethr =  2.65E-07,  avg # of iterations = 12.5

     negative rho (up, down):  6.410E-03 6.516E-03
 
     Adding external electric field

     Computed dipole along edir(3) : 
        Dipole               -0.3798 Ry au,         -0.9654 Debye
        Dipole field         -0.0002 Ry au, 
 
        Potential amp.        0.0255 Ry
        Total length         54.2615 bohr
 
 
     Adding external electric field

     Computed dipole along edir(3) : 
        Dipole               -0.3798 Ry au,         -0.9654 Debye
        Dipole field         -0.0002 Ry au, 
 
        Potential amp.        0.0255 Ry
        Total length         54.2615 bohr
 

     total cpu time spent up to now is      741.4 secs

     total energy              =   -7398.03590342 Ry
     estimated scf accuracy    <       0.00240315 Ry

     total magnetization       =    80.44 Bohr mag/cell
     absolute magnetization    =    81.98 Bohr mag/cell

     iteration # 53     ecut=    50.00 Ry     beta= 0.10
     Davidson diagonalization with overlap
     ethr =  2.23E-07,  avg # of iterations =  2.0

     negative rho (up, down):  7.993E-03 7.982E-03
 
     Adding external electric field

     Computed dipole along edir(3) : 
        Dipole               -0.3481 Ry au,         -0.8847 Debye
        Dipole field         -0.0002 Ry au, 
 
        Potential amp.        0.0234 Ry
        Total length         54.2615 bohr
 
 
     Adding external electric field

     Computed dipole along edir(3) : 
        Dipole               -0.3481 Ry au,         -0.8847 Debye
        Dipole field         -0.0002 Ry au, 
 
        Potential amp.        0.0234 Ry
        Total length         54.2615 bohr
 

     total cpu time spent up to now is      752.6 secs

     total energy              =   -7398.03606227 Ry
     estimated scf accuracy    <       0.00220788 Ry

     total magnetization       =    80.44 Bohr mag/cell
     absolute magnetization    =    81.99 Bohr mag/cell

     iteration # 54     ecut=    50.00 Ry     beta= 0.10
     Davidson diagonalization with overlap
     ethr =  2.05E-07,  avg # of iterations =  2.0

     negative rho (up, down):  7.364E-03 7.405E-03
 
     Adding external electric field

     Computed dipole along edir(3) : 
        Dipole               -0.3926 Ry au,         -0.9978 Debye
        Dipole field         -0.0002 Ry au, 
 
        Potential amp.        0.0263 Ry
        Total length         54.2615 bohr
 
 
     Adding external electric field

     Computed dipole along edir(3) : 
        Dipole               -0.3926 Ry au,         -0.9978 Debye
        Dipole field         -0.0002 Ry au, 
 
        Potential amp.        0.0263 Ry
        Total length         54.2615 bohr
 

     total cpu time spent up to now is      764.6 secs

     total energy              =   -7398.03594074 Ry
     estimated scf accuracy    <       0.00264403 Ry

     total magnetization       =    80.45 Bohr mag/cell
     absolute magnetization    =    81.98 Bohr mag/cell

     iteration # 55     ecut=    50.00 Ry     beta= 0.10
     Davidson diagonalization with overlap
     ethr =  2.05E-07,  avg # of iterations =  2.0

     negative rho (up, down):  8.507E-03 8.481E-03
 
     Adding external electric field

     Computed dipole along edir(3) : 
        Dipole               -0.3627 Ry au,         -0.9219 Debye
        Dipole field         -0.0002 Ry au, 
 
        Potential amp.        0.0243 Ry
        Total length         54.2615 bohr
 
 
     Adding external electric field

     Computed dipole along edir(3) : 
        Dipole               -0.3627 Ry au,         -0.9219 Debye
        Dipole field         -0.0002 Ry au, 
 
        Potential amp.        0.0243 Ry
        Total length         54.2615 bohr
 

     total cpu time spent up to now is      776.7 secs

     total energy              =   -7398.03600031 Ry
     estimated scf accuracy    <       0.00212342 Ry

     total magnetization       =    80.44 Bohr mag/cell
     absolute magnetization    =    82.02 Bohr mag/cell

     iteration # 56     ecut=    50.00 Ry     beta= 0.10
     Davidson diagonalization with overlap
     ethr =  1.97E-07,  avg # of iterations =  1.5

     negative rho (up, down):  9.400E-03 9.361E-03
 
     Adding external electric field

     Computed dipole along edir(3) : 
        Dipole               -0.3475 Ry au,         -0.8833 Debye
        Dipole field         -0.0002 Ry au, 
 
        Potential amp.        0.0233 Ry
        Total length         54.2615 bohr
 
 
     Adding external electric field

     Computed dipole along edir(3) : 
        Dipole               -0.3475 Ry au,         -0.8833 Debye
        Dipole field         -0.0002 Ry au, 
 
        Potential amp.        0.0233 Ry
        Total length         54.2615 bohr
 

     total cpu time spent up to now is      788.3 secs

     total energy              =   -7398.03604294 Ry
     estimated scf accuracy    <       0.00185204 Ry

     total magnetization       =    80.45 Bohr mag/cell
     absolute magnetization    =    82.02 Bohr mag/cell

     iteration # 57     ecut=    50.00 Ry     beta= 0.10
     Davidson diagonalization with overlap
     ethr =  1.72E-07,  avg # of iterations =  2.0

     negative rho (up, down):  1.052E-02 1.065E-02
 
     Adding external electric field

     Computed dipole along edir(3) : 
        Dipole               -0.3114 Ry au,         -0.7915 Debye
        Dipole field         -0.0002 Ry au, 
 
        Potential amp.        0.0209 Ry
        Total length         54.2615 bohr
 
 
     Adding external electric field

     Computed dipole along edir(3) : 
        Dipole               -0.3114 Ry au,         -0.7915 Debye
        Dipole field         -0.0002 Ry au, 
 
        Potential amp.        0.0209 Ry
        Total length         54.2615 bohr
 

     total cpu time spent up to now is      800.5 secs

     total energy              =   -7398.03609647 Ry
     estimated scf accuracy    <       0.00166117 Ry

     total magnetization       =    80.46 Bohr mag/cell
     absolute magnetization    =    82.02 Bohr mag/cell

     iteration # 58     ecut=    50.00 Ry     beta= 0.10
     Davidson diagonalization with overlap
     c_bands:  5 eigenvalues not converged
     ethr =  1.54E-07,  avg # of iterations = 11.0

     negative rho (up, down):  1.006E-02 1.022E-02
 
     Adding external electric field

[...]
    -5.9950  -5.9682  -5.9569  -5.9238  -5.9101  -5.8664  -5.8584  -5.8492
    -5.8124  -5.8056  -5.7510  -5.7355  -5.7246  -5.7075  -5.6938  -5.6794
    -5.6706  -5.6658  -5.6337  -5.6176  -5.6104  -5.5779  -5.5311  -5.5054
    -5.4702  -5.4329  -5.4063  -5.3989  -5.3859  -5.3498  -5.3062  -5.2851
    -5.2382  -5.2124  -5.1862  -5.1707  -5.1696  -5.0808  -5.0785  -5.0552
    -4.9831  -4.9749  -4.9353  -4.9112  -4.8869  -4.8746  -4.8573  -4.7951
    -4.7784  -4.7598  -4.7492  -4.7325  -4.6417  -4.6268  -4.5721  -4.5488
    -4.5167  -4.5139  -4.4959  -4.4576  -4.4025  -4.3913  -4.3769  -4.3684
    -4.3556  -4.2922  -4.2890  -4.2275  -4.1718  -4.1413  -4.1045  -4.0928
    -4.0767  -4.0454  -4.0337  -3.9928  -3.9614  -3.9531  -3.9114  -3.8966
    -3.8744  -3.8381  -3.8230  -3.8064  -3.7941  -3.7604  -3.7466  -3.7302
    -3.6984  -3.6823  -3.6635  -3.6424  -3.6405  -3.6341  -3.5915  -3.5802
    -3.5426  -3.5247  -3.5097  -3.4930  -3.4860  -3.4731  -3.4521  -3.4400
    -3.4278  -3.3970  -3.3838  -3.3465  -3.3361  -3.3129  -3.2621  -3.2487
    -3.2316  -3.2144  -3.2126  -3.1821  -3.1758  -3.1648  -3.1482  -3.1411
    -3.1269  -3.0765  -3.0355  -3.0300  -3.0034  -2.9994  -2.9665  -2.9383
    -2.9166  -2.9158  -2.8987  -2.8704  -2.8559  -2.8349  -2.8156  -2.8074
    -2.7959  -2.7847  -2.7781  -2.7658  -2.7438  -2.7358  -2.7229  -2.6978
    -2.6794  -2.6644  -2.6605  -2.6491  -2.6225  -2.6096  -2.5907  -2.5776
    -2.5495  -2.5344  -2.5253  -2.5163  -2.4927  -2.4780  -2.4662  -2.4354
    -2.4110  -2.3964  -2.3914  -2.3685  -2.3551  -2.3117  -2.2921  -2.2833
    -2.2623  -2.2394  -2.2279  -2.2076  -2.1747  -2.1562  -2.1249  -2.1197
    -2.1093  -2.0850  -2.0764  -2.0693  -2.0672  -2.0357  -2.0041  -1.9881
    -1.9738  -1.9617  -1.9548  -1.9391  -1.9253  -1.9181  -1.8889  -1.8552
    -1.8407  -1.8175  -1.7868  -1.7631  -1.7351  -1.7227  -1.6976  -1.6936
    -1.6559  -1.6521  -1.6459  -1.6282  -1.6132  -1.6060  -1.5847  -1.5463
    -1.5341  -1.5126  -1.4711  -1.4645  -1.4413  -1.4325  -1.4183  -1.4113
    -1.3864  -1.3815  -1.3398  -1.3184  -1.2964  -1.2375  -1.2335  -1.2031
    -1.1480  -1.0997  -1.0716  -1.0531  -1.0142  -0.9271  -0.9019  -0.8769
    -0.7666  -0.6684  -0.6145  -0.5952  -0.4640  -0.3675  -0.2988  -0.2597
     0.1040   0.1265   0.1552   0.1928   0.2263   0.2436   0.2605   0.2723
     0.2806   0.2972   0.3010   0.3032   0.3104   0.3315   0.3440   0.3498
     0.3554   0.3577   0.3745   0.3803   0.3847   0.3951   0.3973   0.4085
     0.4125   0.4151   0.4246   0.4380   0.4452   0.4530   0.4578   0.4617
     0.4651   0.4712   0.4742   0.4926   0.4939   0.5001   0.5124   0.5149
     0.5215   0.5439   0.5461   0.5501   0.5593   0.5650   0.5675   0.5726
     0.5775   0.5886   0.5925   0.5948   0.6090   0.6153   0.6235   0.6355
     0.6386   0.6479   0.6547   0.6665   0.6749   0.6757   0.6875   0.6918
     0.6922   0.7016   0.7110   0.7147   0.7201   0.7348   0.7402   0.7456
     0.7489   0.7547   0.7690   0.7800   0.7871   0.7980   0.8073   0.8212
     0.8281   0.8372   0.8442   0.8617   0.8644   0.8718   0.8798   0.8819
     0.8975   0.9143   0.9192   0.9265   0.9350   0.9718   0.9865   1.0418
     1.0716   1.1353   1.6045   1.6579   1.7007   1.7119   1.7139   1.7415
     1.7711   1.8347   1.8704   1.8738   1.8958   1.9317   1.9362   1.9662
     1.9786   1.9911   2.0165   2.0388   2.0522   2.0725   2.0843   2.1110
     2.1436   2.1561   2.1797   2.1904   2.1978   2.2164   2.2251   2.2449
     2.2520   2.2553   2.2685   2.2818   2.2879   2.2972   2.3072   2.3239
     2.3381   2.3439   2.3656   2.3874   2.4035   2.4196   2.4339   2.4474
     2.4560   2.4744   2.4989   2.5053   2.5138   2.5323   2.5546   2.5681
     2.5801   2.5869   2.6112   2.6383   2.6600   2.6737   2.7357   2.7614
     2.7834   2.8336   2.8424   2.9049   2.9173   3.5897   3.5905   3.6649
     3.7607   3.8256   3.8427   3.8574   3.8620   3.9998   4.0649   4.5906
     4.6460   4.7079   4.7750   4.9250   4.9490   5.0200   5.4144   6.2959
     6.3606   6.5422   6.5898   6.7783   6.8154   6.8434   6.8790   6.9242
     7.0147   7.0669   7.0977   7.1206   7.3209   7.3651   7.3778   7.4148
     7.4994   7.5553   7.6547   7.6768   7.6884   7.7549   7.7878   7.8099
     7.8623   7.9209   7.9511   7.9787   8.0215   8.0314   8.0615   8.0701
     8.0933   8.1172   8.1608   8.2016   8.2350   8.2644   8.2991   8.3278
     8.3798   8.4107   8.4176   8.4426   8.4615   8.4788   8.5007   8.5119
     8.5321   8.5577   8.5840   8.5971   8.6206   8.6433   8.6800   8.6906
     8.7216   8.7667   8.7937   8.7964   8.8212   8.8591   8.8650

     the Fermi energy is     1.5651 ev

!    total energy              =   -7398.03612753 Ry
     estimated scf accuracy    <       0.00000069 Ry
     smearing contrib. (-TS)   =      -0.01404768 Ry
     internal energy E=F+TS    =   -7398.02207985 Ry

     The total energy is F=E-TS. E is the sum of the following terms:
     one-electron contribution =  -91684.12520509 Ry
     hartree contribution      =   46489.95788183 Ry
     xc contribution           =   -2260.26455252 Ry
     ewald contribution        =   40058.24330846 Ry
     Dispersion Correction     =      -1.83352457 Ry
     electric field correction =       0.00001204 Ry

     total magnetization       =    80.47 Bohr mag/cell
     absolute magnetization    =    82.00 Bohr mag/cell

     convergence has been achieved in 111 iterations

     negative rho (up, down):  9.308E-04 5.479E-04

     Forces acting on atoms (cartesian axes, Ry/au):

     atom    1 type  2   force =     0.03097546   -0.01963705   -0.01569438
     atom    2 type  1   force =     0.00227158   -0.00392540   -0.01038211
     atom    3 type  1   force =    -0.02153245   -0.02064837    0.01865551
     atom    4 type  1   force =     0.00139769    0.01029945   -0.01230219
     atom    5 type  1   force =    -0.00482654    0.02899187   -0.01792281
     atom    6 type  1   force =     0.00585535    0.00042975    0.00013044
     atom    7 type  1   force =     0.02681389   -0.02087811    0.01792420
     atom    8 type  1   force =    -0.00965852   -0.00303538   -0.01069467
     atom    9 type  1   force =    -0.02969965   -0.01818173    0.01665736
     atom   10 type  1   force =    -0.00119630    0.00806873   -0.01255494
     atom   11 type  1   force =    -0.01306350    0.03035943   -0.02007875
     atom   12 type  1   force =     0.00120426    0.00650063   -0.00348894
     atom   13 type  3   force =     0.05102729   -0.11002749    0.00915991
     atom   14 type  3   force =    -0.02904322    0.03593367   -0.06518465
     atom   15 type  3   force =    -0.00919440    0.17548542   -0.08317958
     atom   16 type  3   force =     0.06069664    0.00054766   -0.00438110
     atom   17 type  4   force =     0.01520732   -0.02180894   -0.00967940
     atom   18 type  4   force =    -0.00536407    0.00477918    0.02965042
     atom   19 type  4   force =     0.00211847    0.00096940    0.03073171
     atom   20 type  4   force =     0.00509385    0.00192172    0.00246954
     atom   21 type  4   force =     0.00064879   -0.01194578   -0.00013773
     atom   22 type  4   force =    -0.00094968    0.00391459    0.03239256
     atom   23 type  4   force =    -0.00605547    0.01471467    0.02731485
     atom   24 type  4   force =     0.00856885    0.00332106   -0.00445072
     atom   25 type  4   force =     0.00642429   -0.00339032    0.00156578
     atom   26 type  4   force =     0.03117724   -0.17834811    0.00726851
     atom   27 type  4   force =     0.00303463    0.00098510    0.00171005
     atom   28 type  4   force =    -0.01704724    0.00168203    0.00478371
     atom   29 type  4   force =     0.09134165    0.00313468    0.00808913
     atom   30 type  4   force =     0.01306566   -0.02516901   -0.00087260
     atom   31 type  4   force =    -0.03839484    0.13319418   -0.00018246
     atom   32 type  4   force =    -0.00566732   -0.01187526    0.00653866
     atom   33 type  3   force =     0.04158160   -0.11921325    0.00962782
     atom   34 type  3   force =    -0.10168595    0.04258703   -0.07574838
     atom   35 type  3   force =    -0.01350765    0.16599033   -0.08811496
     atom   36 type  3   force =    -0.00358913    0.00254848   -0.01042376
     atom   37 type  4   force =     0.00826357   -0.01464195   -0.00225869
     atom   38 type  4   force =    -0.00583650   -0.00174591    0.02741239
     atom   39 type  4   force =    -0.00471665    0.00719859    0.03214691
     atom   40 type  4   force =     0.00126016    0.00009168    0.00258786
     atom   41 type  4   force =    -0.00141118   -0.00953606   -0.00167734
     atom   42 type  4   force =     0.00538621   -0.00047483    0.02922882
     atom   43 type  4   force =    -0.01042822    0.01354346    0.02695864
     atom   44 type  4   force =     0.00435146    0.00359124   -0.00465982
     atom   45 type  4   force =    -0.00038393   -0.00078385    0.00201073
     atom   46 type  4   force =     0.02814687   -0.17057466    0.00543986
     atom   47 type  4   force =    -0.06535194   -0.00074609   -0.00308788
     atom   48 type  4   force =    -0.01985712    0.00391296    0.00534164
     atom   49 type  4   force =     0.01406336    0.00085027    0.00208341
     atom   50 type  4   force =     0.00793571   -0.02439743   -0.00012767
     atom   51 type  4   force =    -0.03966777    0.13315587   -0.00136477
     atom   52 type  4   force =    -0.00795315   -0.01067076    0.00877565
     atom   53 type  2   force =     0.00631591   -0.00724209    0.00554337
     atom   54 type  1   force =     0.00066070   -0.00456399    0.00769509
     atom   55 type  1   force =     0.00491293   -0.00632022    0.00658126
     atom   56 type  1   force =     0.00073538    0.00589727    0.00269234
     atom   57 type  1   force =     0.00078728    0.02212872   -0.01424242
     atom   58 type  1   force =     0.00152502   -0.00348013    0.00223534
     atom   59 type  1   force =     0.00254208   -0.01013790    0.00363919
     atom   60 type  1   force =    -0.00683742   -0.00292437    0.00339285
     atom   61 type  1   force =    -0.00463488   -0.00509141    0.00651566
     atom   62 type  1   force =    -0.00362897    0.00598853   -0.00114133
     atom   63 type  1   force =    -0.01100461    0.02521758   -0.01784174
     atom   64 type  1   force =    -0.00222020    0.00113674   -0.00096914
     atom   65 type  3   force =     0.04516480   -0.11955127    0.01963830
     atom   66 type  3   force =     0.00160042   -0.00445792    0.00057383
     atom   67 type  3   force =    -0.04074554    0.12371192   -0.00684179
     atom   68 type  3   force =     0.06329660   -0.00209381    0.00755314
     atom   69 type  4   force =     0.01276035   -0.01722259   -0.00282481
     atom   70 type  4   force =    -0.00163398    0.00339956   -0.00063832
     atom   71 type  4   force =    -0.00190221    0.00330627    0.00512063
     atom   72 type  4   force =     0.00458263    0.00166757    0.00082786
     atom   73 type  4   force =     0.00874871   -0.01686217    0.01177753
     atom   74 type  4   force =    -0.00427967   -0.00347901    0.00951633
     atom   75 type  4   force =     0.00341695    0.00854097    0.00472476
     atom   76 type  4   force =     0.00587578    0.00083633   -0.00220751
     atom   77 type  4   force =     0.00605453   -0.00193051   -0.00113861
     atom   78 type  4   force =     0.04524852   -0.14071862    0.00577355
     atom   79 type  4   force =     0.00037854    0.00034099   -0.00078628
     atom   80 type  4   force =     0.00176027    0.00190400    0.00216636
     atom   81 type  4   force =     0.06719687    0.00014383    0.00646844
     atom   82 type  4   force =     0.00030789    0.00260966    0.00131809
     atom   83 type  4   force =    -0.03897957    0.13784197   -0.00277315
     atom   84 type  4   force =    -0.00118674   -0.01068024    0.00369280
     atom   85 type  3   force =     0.03948904   -0.12371133    0.02501905
     atom   86 type  3   force =    -0.06328801   -0.00171960   -0.00372477
     atom   87 type  3   force =    -0.04612472    0.12086071   -0.01042795
     atom   88 type  3   force =    -0.00011505   -0.00163337    0.00281983
     atom   89 type  4   force =     0.00867248   -0.01521967   -0.00480144
     atom   90 type  4   force =    -0.00447701    0.00094128   -0.00109658
     atom   91 type  4   force =    -0.00958793    0.00823456    0.00527505
     atom   92 type  4   force =     0.00034637    0.00006990    0.00009690
     atom   93 type  4   force =     0.00126320   -0.01172878    0.00066664
     atom   94 type  4   force =    -0.00897518   -0.00304315    0.00846732
     atom   95 type  4   force =    -0.00044951    0.00765151    0.00317436
     atom   96 type  4   force =    -0.00089885    0.00073340    0.00000828
     atom   97 type  4   force =    -0.00107576    0.00181230   -0.00021078
     atom   98 type  4   force =     0.04043426   -0.13897047    0.00485282
     atom   99 type  4   force =    -0.06722788   -0.00087812   -0.00607395
     atom  100 type  4   force =    -0.00022333    0.00281075    0.00289891
     atom  101 type  4   force =    -0.00145247    0.00011398    0.00143217
     atom  102 type  4   force =    -0.00675495    0.00569157    0.00156483
     atom  103 type  4   force =    -0.04026702    0.13529633   -0.00436171
     atom  104 type  4   force =    -0.00614859   -0.01006062    0.00497272
     atom  105 type  2   force =    -0.00030763    0.00021675   -0.00030029
     atom  106 type  1   force =     0.00038637   -0.00042363   -0.00060224
     atom  107 type  1   force =     0.00037259    0.00009242    0.00025987
     atom  108 type  1   force =     0.00054438   -0.00145563    0.00084100
     atom  109 type  1   force =     0.00033459   -0.00080799   -0.00027227
     atom  110 type  1   force =    -0.00043516    0.00007242   -0.00049311
     atom  111 type  1   force =    -0.00001757   -0.00044188    0.00004404
     atom  112 type  1   force =     0.00020838    0.00033753   -0.00052405
     atom  113 type  1   force =     0.00009700   -0.00025671   -0.00047580
     atom  114 type  1   force =    -0.00012213    0.00002959   -0.00002408
     atom  115 type  1   force =    -0.00001591    0.00024997   -0.00013740
     atom  116 type  1   force =    -0.00042349    0.00020162   -0.00033600
     atom  117 type  3   force =    -0.00072839   -0.00082763    0.00024041
     atom  118 type  3   force =    -0.00016224   -0.00002343    0.00017996
     atom  119 type  3   force =    -0.00000257    0.00005272   -0.00055711
     atom  120 type  3   force =     0.00015101   -0.00020562   -0.00004840
     atom  121 type  4   force =     0.00042800    0.00028365    0.00076238
     atom  122 type  4   force =    -0.00018349    0.00016809    0.00009564
     atom  123 type  4   force =     0.00009089   -0.00008703   -0.00009663
     atom  124 type  4   force =     0.00044164   -0.00035733    0.00008268
     atom  125 type  4   force =     0.00056676    0.00039207   -0.00048155
     atom  126 type  4   force =    -0.00008117   -0.00021037   -0.00016088
     atom  127 type  4   force =     0.00048471   -0.00028871   -0.00003764
     atom  128 type  4   force =     0.00002662    0.00046412    0.00004279
     atom  129 type  4   force =     0.00037171   -0.00019006    0.00023364
     atom  130 type  4   force =    -0.00011422   -0.00008698    0.00021169
     atom  131 type  4   force =    -0.00062306   -0.00059245    0.00019508
     atom  132 type  4   force =     0.00008503   -0.00009016   -0.00031025
     atom  133 type  4   force =    -0.00006035    0.00015279   -0.00024872
     atom  134 type  4   force =     0.00003533    0.00023895   -0.00032093
     atom  135 type  4   force =     0.00022668    0.00081469   -0.00049731
     atom  136 type  4   force =    -0.00029842   -0.00021917   -0.00021833
     atom  137 type  3   force =    -0.00051194    0.00001056    0.00014441
     atom  138 type  3   force =     0.00014446    0.00003205    0.00001153
     atom  139 type  3   force =    -0.00019051   -0.00034067    0.00006839
     atom  140 type  3   force =     0.00021701    0.00002507    0.00020012
     atom  141 type  4   force =     0.00013387   -0.00013724    0.00013500
     atom  142 type  4   force =     0.00012345   -0.00007191    0.00007890
     atom  143 type  4   force =    -0.00010026   -0.00005812   -0.00022783
     atom  144 type  4   force =    -0.00042748   -0.00053734   -0.00053898
     atom  145 type  4   force =    -0.00014446   -0.00024206   -0.00055855
     atom  146 type  4   force =    -0.00019561    0.00006630   -0.00006014
     atom  147 type  4   force =     0.00023222   -0.00016655    0.00001412
     atom  148 type  4   force =    -0.00103524   -0.00076767    0.00016956
     atom  149 type  4   force =    -0.00004763    0.00013903    0.00002968
     atom  150 type  4   force =    -0.00017941   -0.00020085   -0.00021961
     atom  151 type  4   force =    -0.00025075   -0.00000343    0.00035343
     atom  152 type  4   force =    -0.00006351   -0.00034831   -0.00020535
     atom  153 type  4   force =    -0.00015587    0.00022660   -0.00002500
     atom  154 type  4   force =     0.00009364    0.00025863   -0.00000677
     atom  155 type  4   force =    -0.00002878    0.00003926    0.00007859
     atom  156 type  4   force =     0.00009560    0.00019920   -0.00003104
     atom  157 type  4   force =     0.00616734    0.00831034    0.00046852
     atom  158 type  5   force =    -0.00693898   -0.00584974   -0.00152427

     Total force =     0.664709     Total SCF correction =     0.004109
 
     init_run     :      8.02s CPU      8.61s WALL (       1 calls)
     electrons    :   1372.13s CPU   1438.67s WALL (       1 calls)
     forces       :      3.94s CPU      4.36s WALL (       1 calls)
     force_london :      0.10s CPU      0.10s WALL (       1 calls)

     Called by init_run:
     wfcinit      :      4.83s CPU      4.97s WALL (       1 calls)
     potinit      :      0.56s CPU      0.74s WALL (       1 calls)
     hinit0       :      1.46s CPU      1.53s WALL (       1 calls)

     Called by electrons:
     c_bands      :   1082.33s CPU   1117.30s WALL (     111 calls)
     sum_band     :    188.04s CPU    205.07s WALL (     111 calls)
     v_of_rho     :     18.85s CPU     20.13s WALL (     112 calls)
     newd         :     52.12s CPU     65.35s WALL (     112 calls)
     mix_rho      :     29.47s CPU     29.65s WALL (     111 calls)
     energy_londo :      0.09s CPU      0.09s WALL (       1 calls)

     Called by c_bands:
     init_us_2    :      3.15s CPU      3.21s WALL (     448 calls)
     init_us_2:cp :      3.15s CPU      3.21s WALL (     448 calls)
     regterg      :   1058.60s CPU   1092.28s WALL (     224 calls)

     Called by *egterg:
     rdiaghg      :    304.37s CPU    320.40s WALL (     884 calls)
     h_psi        :    417.44s CPU    425.50s WALL (     886 calls)
     s_psi        :     75.68s CPU     75.72s WALL (     886 calls)
     g_psi        :      0.52s CPU      0.53s WALL (     660 calls)

     Called by h_psi:
     h_psi:calbec :    110.15s CPU    116.46s WALL (     886 calls)
     vloc_psi     :    228.62s CPU    229.64s WALL (     886 calls)
     add_vuspsi   :     77.66s CPU     78.37s WALL (     886 calls)

     General routines
     calbec       :    162.78s CPU    172.28s WALL (    1116 calls)
     fft          :     21.97s CPU     23.62s WALL (    2029 calls)
     ffts         :     17.66s CPU     17.70s WALL (   13865 calls)
     fftw         :    263.32s CPU    264.39s WALL (  370472 calls)
     interpolate  :      1.62s CPU      1.74s WALL (     224 calls)
 
     Parallel routines
 
     PWSCF        :  23m 6.15s CPU  24m13.95s WALL

 
   This run was terminated on:  20:16: 7  19Nov2025            

=------------------------------------------------------------------------------=
   JOB DONE.
=------------------------------------------------------------------------------=
