
     Program PWSCF v.7.2 starts on 19Nov2025 at 22:14:50 

     This program is part of the open-source Quantum ESPRESSO suite
     for quantum simulation of materials; please cite
         "P. Giannozzi et al., J. Phys.:Condens. Matter 21 395502 (2009);
         "P. Giannozzi et al., J. Phys.:Condens. Matter 29 465901 (2017);
         "P. Giannozzi et al., J. Chem. Phys. 152 154105 (2020);
          URL http://www.quantum-espresso.org", 
     in publications or presentations arising from this work. More details at
     http://www.quantum-espresso.org/quote

     Parallel version (MPI), running on    64 processors

     MPI processes distributed on     4 nodes
     366350 MiB available memory on the printing compute node when the environment starts
 
     Reading input from PWINPUT_atm158_zm

     Current dimensions of program PWSCF are:
     Max number of different atomic species (ntypx) = 10
     Max number of k-points (npk) =  40000
     Max angular momentum in pseudopotentials (lmaxx) =  4
     Presently no symmetry can be used with electric field

     file Ni.pbe-n-rrkjus_psl.1.0.0.UPF: wavefunction(s)  3D renormalized
     file Mn.pbe-spn-rrkjus_psl.0.3.1.UPF: wavefunction(s)  3D renormalized
     file O.pbe-rrkjus.UPF: wavefunction(s)  2S renormalized
     file H.pbe-rrkjus.UPF: wavefunction(s)  1S renormalized

     gamma-point specific algorithms are used
 
     R & G space division:  proc/nbgrp/npool/nimage =      64
     Subspace diagonalization in iterative solution of the eigenvalue problem:
     one sub-group per band group will be used
     custom distributed-memory algorithm (size of sub-group:  6*  6 procs)

 
     Parallelization info
     --------------------
     sticks:   dense  smooth     PW     G-vecs:    dense   smooth      PW
     Min         208      82     20                59912    15118    1876
     Max         210      84     22                59974    15196    1926
     Sum       13399    5355   1345              3836275   970529  121367
 
     Using Slab Decomposition
 


     bravais-lattice index     =            0
     lattice parameter (alat)  =      17.7004  a.u.
     unit-cell volume          =   20319.7251 (a.u.)^3
     number of atoms/cell      =          158
     number of atomic types    =            5
     number of electrons       =      1078.00
     number of Kohn-Sham states=          647
     kinetic-energy cutoff     =      50.0000  Ry
     charge density cutoff     =     500.0000  Ry
     scf convergence threshold =      1.0E-06
     mixing beta               =       0.1000
     number of iterations used =            8  local-TF  mixing
     Exchange-correlation=  SLA  PW   PBE  PBE
                           (   1   4   3   4   0   0   0)

     celldm(1)=  17.700384  celldm(2)=   0.000000  celldm(3)=   0.000000
     celldm(4)=   0.000000  celldm(5)=   0.000000  celldm(6)=   0.000000

     crystal axes: (cart. coord. in units of alat)
               a(1) = (   1.000000   0.000000   0.000000 )  
               a(2) = (   0.000000   1.075730   0.000000 )  
               a(3) = (   0.000000   0.000000   3.406172 )  

     reciprocal axes: (cart. coord. in units 2 pi/alat)
               b(1) = (  1.000000  0.000000  0.000000 )  
               b(2) = (  0.000000  0.929602  0.000000 )  
               b(3) = (  0.000000  0.000000  0.293585 )  


     PseudoPot. # 1 for Ni read from file:
     ~/PSEUDO/Ni.pbe-n-rrkjus_psl.1.0.0.UPF
     MD5 check sum: Not computed, couldn't open file
     Pseudo is Ultrasoft + core correction, Zval = 10.0
     Generated using "atomic" code by A. Dal Corso  v.5.1.2
     Using radial grid of 1195 points,  6 beta functions with: 
                l(1) =   0
                l(2) =   0
                l(3) =   1
                l(4) =   1
                l(5) =   2
                l(6) =   2
     Q(r) pseudized with 0 coefficients 


     PseudoPot. # 2 for Mn read from file:
     ~/PSEUDO/Mn.pbe-spn-rrkjus_psl.0.3.1.UPF
     MD5 check sum: Not computed, couldn't open file
     Pseudo is Ultrasoft + core correction, Zval = 15.0
     Generated using &quot;atomic&quot; code by A. Dal Corso  v.6.2.2
     Using radial grid of 1187 points,  6 beta functions with: 
                l(1) =   0
                l(2) =   0
                l(3) =   1
                l(4) =   1
                l(5) =   2
                l(6) =   2
     Q(r) pseudized with 0 coefficients 


     PseudoPot. # 3 for P  read from file:
     ~/PSEUDO/P.pbe-n-rrkjus_psl.1.0.0.UPF
     MD5 check sum: Not computed, couldn't open file
     Pseudo is Ultrasoft + core correction, Zval =  5.0
     Generated using "atomic" code by A. Dal Corso  v.5.1
     Using radial grid of 1147 points,  6 beta functions with: 
                l(1) =   0
                l(2) =   0
                l(3) =   1
                l(4) =   1
                l(5) =   2
                l(6) =   2
     Q(r) pseudized with 0 coefficients 


     PseudoPot. # 4 for O  read from file:
     ~/PSEUDO/O.pbe-rrkjus.UPF
     MD5 check sum: Not computed, couldn't open file
     Pseudo is Ultrasoft, Zval =  6.0
     Generated by new atomic code, or converted to UPF format
     Using radial grid of 1269 points,  4 beta functions with: 
                l(1) =   0
                l(2) =   0
                l(3) =   1
                l(4) =   1
     Q(r) pseudized with 0 coefficients 


     PseudoPot. # 5 for H  read from file:
     ~/PSEUDO/H.pbe-rrkjus.UPF
     MD5 check sum: Not computed, couldn't open file
     Pseudo is Ultrasoft, Zval =  1.0
     Generated by new atomic code, or converted to UPF format
     Using radial grid of 1061 points,  2 beta functions with: 
                l(1) =   0
                l(2) =   0
     Q(r) pseudized with 0 coefficients 


     atomic species   valence    mass     pseudopotential
     Ni               10.00    58.69300     Ni( 1.00)
     Mn               15.00    54.93800     Mn( 1.00)
     P                 5.00    30.97300     P ( 1.00)
     O                 6.00    15.99900     O ( 1.00)
     H                 1.00     1.00790     H ( 1.00)

     Starting magnetic structure 
     atomic species   magnetization
     Ni              1.000
     Mn              1.000
     P               1.000
     O               1.000
     H               0.000

     No symmetry found



   Cartesian axes

     site n.     atom                  positions (alat units)
         1        Mn     tau(   1) = (   0.2404744   0.8371250   0.1168501  )
         2        Ni     tau(   2) = (   0.4968126   0.7726670   0.4415546  )
         3        Ni     tau(   3) = (   0.0066150   0.2936743   0.1241053  )
         4        Ni     tau(   4) = (   0.2585722   0.2355858   0.4448848  )
         5        Ni     tau(   5) = (   0.9987350   1.0696411   0.2854926  )
         6        Ni     tau(   6) = (   0.2517397   0.5330511   0.2829322  )
         7        Ni     tau(   7) = (   0.7451645   0.8337543   0.1221751  )
         8        Ni     tau(   8) = (   0.9939181   0.7738804   0.4407595  )
         9        Ni     tau(   9) = (   0.5111533   0.2924088   0.1251865  )
        10        Ni     tau(  10) = (   0.7606326   0.2319267   0.4451372  )
        11        Ni     tau(  11) = (   0.5024065   1.0688133   0.2870502  )
        12        Ni     tau(  12) = (   0.7529977   0.5317900   0.2845227  )
        13        P      tau(  13) = (   0.2092944   0.9731097   0.4345035  )
        14        P      tau(  14) = (   0.4655727   0.6359535   0.1274635  )
        15        P      tau(  15) = (   0.2910699   0.1027363   0.1296098  )
        16        P      tau(  16) = (   0.0396216   0.4288395   0.4398838  )
        17        O      tau(  17) = (   0.1294378   0.9013260   0.3010618  )
        18        O      tau(  18) = (   0.3874505   0.7054774   0.2637003  )
        19        O      tau(  19) = (   0.3702540   0.1714799   0.2660028  )
        20        O      tau(  20) = (   0.1184398   0.3582958   0.3038353  )
        21        O      tau(  21) = (   0.1451572   0.8850881   0.5587578  )
        22        O      tau(  22) = (   0.4048762   0.7245585   0.0017492  )
        23        O      tau(  23) = (   0.3523506   0.1900579   0.0035744  )
        24        O      tau(  24) = (   0.1017610   0.3410484   0.5656572  )
        25        O      tau(  25) = (   0.0975396   0.5849288   0.4357922  )
        26        O      tau(  26) = (   0.3483552   1.0314945   0.1270322  )
        27        O      tau(  27) = (   0.3784305   0.4225118   0.4308928  )
        28        O      tau(  28) = (   0.1268237   0.1067944   0.1392744  )
        29        O      tau(  29) = (   0.1212267   0.6424170   0.1362896  )
        30        O      tau(  30) = (   0.4053315   0.4809387   0.1300622  )
        31        O      tau(  31) = (   0.1536621   0.0446918   0.4373386  )
        32        O      tau(  32) = (   0.3732349   0.9631717   0.4256642  )
        33        P      tau(  33) = (   0.7119823   0.9695974   0.4373010  )
        34        P      tau(  34) = (   0.9615208   0.6363392   0.1262932  )
        35        P      tau(  35) = (   0.7927710   0.0970060   0.1292164  )
        36        P      tau(  36) = (   0.5426404   0.4269675   0.4410738  )
        37        O      tau(  37) = (   0.6326879   0.8991182   0.3013240  )
        38        O      tau(  38) = (   0.8842163   0.7083206   0.2625155  )
        39        O      tau(  39) = (   0.8716178   0.1677751   0.2653504  )
        40        O      tau(  40) = (   0.6212010   0.3558666   0.3051085  )
        41        O      tau(  41) = (   0.6507714   0.8812342   0.5631722  )
        42        O      tau(  42) = (   0.9014054   0.7264458   0.0010676  )
        43        O      tau(  43) = (   0.8548963   0.1847909   0.0035471  )
        44        O      tau(  44) = (   0.6044469   0.3378706   0.5660366  )
        45        O      tau(  45) = (   0.6024424   0.5823140   0.4379016  )
        46        O      tau(  46) = (   0.8498940   1.0254482   0.1275156  )
        47        O      tau(  47) = (   0.8798395   0.4205825   0.4305771  )
        48        O      tau(  48) = (   0.6286921   0.1034636   0.1397346  )
        49        O      tau(  49) = (   0.6294973   0.6427753   0.1372553  )
        50        O      tau(  50) = (   0.9024339   0.4810312   0.1296418  )
        51        O      tau(  51) = (   0.6547812   0.0410987   0.4396636  )
        52        O      tau(  52) = (   0.8760507   0.9632605   0.4264507  )
        53        Mn     tau(  53) = (   0.2404744   0.8246335   0.7367378  )
        54        Ni     tau(  54) = (   0.4968126   0.7601755   1.0614423  )
        55        Ni     tau(  55) = (   0.0066150   0.2811828   0.7439929  )
        56        Ni     tau(  56) = (   0.2585722   0.2230943   1.0647725  )
        57        Ni     tau(  57) = (   0.9987350   1.0571496   0.9053803  )
        58        Ni     tau(  58) = (   0.2517397   0.5205596   0.9028199  )
        59        Ni     tau(  59) = (   0.7451645   0.8212628   0.7420628  )
        60        Ni     tau(  60) = (   0.9939181   0.7613889   1.0606471  )
        61        Ni     tau(  61) = (   0.5111533   0.2799173   0.7450742  )
        62        Ni     tau(  62) = (   0.7606326   0.2194352   1.0650249  )
        63        Ni     tau(  63) = (   0.5024065   1.0563218   0.9069379  )
        64        Ni     tau(  64) = (   0.7529977   0.5192985   0.9044104  )
        65        P      tau(  65) = (   0.2092944   0.9606182   1.0543912  )
        66        P      tau(  66) = (   0.4655727   0.6234620   0.7473512  )
        67        P      tau(  67) = (   0.2910699   0.0902448   0.7494974  )
        68        P      tau(  68) = (   0.0396216   0.4163480   1.0597715  )
        69        O      tau(  69) = (   0.1294378   0.8888345   0.9209495  )
        70        O      tau(  70) = (   0.3874505   0.6929859   0.8835880  )
        71        O      tau(  71) = (   0.3702540   0.1589885   0.8858904  )
        72        O      tau(  72) = (   0.1184398   0.3458043   0.9237230  )
        73        O      tau(  73) = (   0.1451572   0.8725966   1.1786454  )
        74        O      tau(  74) = (   0.4048762   0.7120670   0.6216369  )
        75        O      tau(  75) = (   0.3523506   0.1775664   0.6234620  )
        76        O      tau(  76) = (   0.1017610   0.3285569   1.1855448  )
        77        O      tau(  77) = (   0.0975396   0.5724373   1.0556799  )
        78        O      tau(  78) = (   0.3483552   1.0190030   0.7469198  )
        79        O      tau(  79) = (   0.3784305   0.4100203   1.0507804  )
        80        O      tau(  80) = (   0.1268237   0.0943029   0.7591620  )
        81        O      tau(  81) = (   0.1212267   0.6299255   0.7561772  )
        82        O      tau(  82) = (   0.4053315   0.4684472   0.7499499  )
        83        O      tau(  83) = (   0.1536621   0.0322003   1.0572263  )
        84        O      tau(  84) = (   0.3732349   0.9506802   1.0455518  )
        85        P      tau(  85) = (   0.7119823   0.9571059   1.0571887  )
        86        P      tau(  86) = (   0.9615208   0.6238477   0.7461808  )
        87        P      tau(  87) = (   0.7927710   0.0845145   0.7491041  )
        88        P      tau(  88) = (   0.5426404   0.4144760   1.0609615  )
        89        O      tau(  89) = (   0.6326879   0.8866267   0.9212117  )
        90        O      tau(  90) = (   0.8842163   0.6958291   0.8824032  )
        91        O      tau(  91) = (   0.8716178   0.1552836   0.8852381  )
        92        O      tau(  92) = (   0.6212010   0.3433751   0.9249961  )
        93        O      tau(  93) = (   0.6507714   0.8687427   1.1830599  )
        94        O      tau(  94) = (   0.9014054   0.7139543   0.6209553  )
        95        O      tau(  95) = (   0.8548963   0.1722994   0.6234348  )
        96        O      tau(  96) = (   0.6044469   0.3253792   1.1859242  )
        97        O      tau(  97) = (   0.6024424   0.5698225   1.0577892  )
        98        O      tau(  98) = (   0.8498940   1.0129567   0.7474033  )
        99        O      tau(  99) = (   0.8798395   0.4080910   1.0504647  )
       100        O      tau( 100) = (   0.6286921   0.0909721   0.7596222  )
       101        O      tau( 101) = (   0.6294973   0.6302838   0.7571429  )
       102        O      tau( 102) = (   0.9024339   0.4685397   0.7495295  )
       103        O      tau( 103) = (   0.6547812   0.0286072   1.0595512  )
       104        O      tau( 104) = (   0.8760507   0.9507690   1.0463383  )
       105        Mn     tau( 105) = (   0.2366231   0.8099108   1.3652025  )
       106        Ni     tau( 106) = (   0.5054159   0.7462824   1.6760027  )
       107        Ni     tau( 107) = (   0.0089171   0.2673656   1.3686123  )
       108        Ni     tau( 108) = (   0.2644416   0.1993195   1.7084151  )
       109        Ni     tau( 109) = (   1.0061379   1.0432337   1.5350349  )
       110        Ni     tau( 110) = (   0.2518568   0.5022264   1.5321875  )
       111        Ni     tau( 111) = (   0.7428918   0.8054563   1.3680737  )
       112        Ni     tau( 112) = (   1.0041850   0.7431092   1.6780598  )
       113        Ni     tau( 113) = (   0.5112288   0.2659826   1.3709479  )
       114        Ni     tau( 114) = (   0.7532805   0.2088052   1.6753652  )
       115        Ni     tau( 115) = (   0.5047699   1.0448721   1.5373338  )
       116        Ni     tau( 116) = (   0.7503649   0.5053471   1.5308247  )
       117        P      tau( 117) = (   0.2161577   0.9302828   1.6982302  )
       118        P      tau( 118) = (   0.4629997   0.6076656   1.3708803  )
       119        P      tau( 119) = (   0.2923548   0.0759931   1.3761085  )
       120        P      tau( 120) = (   0.0403728   0.3936694   1.6855939  )
       121        O      tau( 121) = (   0.1364693   0.8668413   1.5531897  )
       122        O      tau( 122) = (   0.3862188   0.6762237   1.5077855  )
       123        O      tau( 123) = (   0.3702313   0.1459453   1.5113118  )
       124        O      tau( 124) = (   0.1164972   0.3354481   1.5416341  )
       125        O      tau( 125) = (   0.1561077   0.8312184   1.8121815  )
       126        O      tau( 126) = (   0.4024345   0.6977036   1.2456547  )
       127        O      tau( 127) = (   0.3529885   0.1608260   1.2478482  )
       128        O      tau( 128) = (   0.0988259   0.2967762   1.8028337  )
       129        O      tau( 129) = (   0.0955223   0.5521437   1.6882589  )
       130        O      tau( 130) = (   0.3501042   0.9948817   1.3794940  )
       131        O      tau( 131) = (   0.3769862   0.3955830   1.6820705  )
       132        O      tau( 132) = (   0.1282711   0.0787148   1.3850164  )
       133        O      tau( 133) = (   0.1228222   0.6171400   1.3807433  )
       134        O      tau( 134) = (   0.4031340   0.4526637   1.3730383  )
       135        O      tau( 135) = (   0.1564153   0.0102487   1.6911737  )
       136        O      tau( 136) = (   0.3803451   0.9249762   1.6777280  )
       137        P      tau( 137) = (   0.7174345   0.9334429   1.6935398  )
       138        P      tau( 138) = (   0.9584537   0.6093492   1.3691178  )
       139        P      tau( 139) = (   0.7939811   0.0700328   1.3725244  )
       140        P      tau( 140) = (   0.5416921   0.3997600   1.6930504  )
       141        O      tau( 141) = (   0.6378837   0.8729788   1.5477586  )
       142        O      tau( 142) = (   0.8828523   0.6807110   1.5061576  )
       143        O      tau( 143) = (   0.8725292   0.1417236   1.5079952  )
       144        O      tau( 144) = (   0.6175250   0.3342570   1.5484665  )
       145        O      tau( 145) = (   0.6556870   0.8369021   1.8084207  )
       146        O      tau( 146) = (   0.8987137   0.6988347   1.2434250  )
       147        O      tau( 147) = (   0.8547435   0.1573124   1.2458538  )
       148        O      tau( 148) = (   0.6058869   0.3057682   1.8100154  )
       149        O      tau( 149) = (   0.5996895   0.5564472   1.6887454  )
       150        O      tau( 150) = (   0.8537678   0.9909218   1.3764211  )
       151        O      tau( 151) = (   0.8747176   0.3908074   1.6749590  )
       152        O      tau( 152) = (   0.6300578   0.0775778   1.3854873  )
       153        O      tau( 153) = (   0.6270029   0.6154737   1.3814513  )
       154        O      tau( 154) = (   0.8992703   0.4545543   1.3717766  )
       155        O      tau( 155) = (   0.6630869   0.0162628   1.6912339  )
       156        O      tau( 156) = (   0.8822397   0.9273982   1.6791779  )
       157        O      tau( 157) = (   0.3793940   0.1173447   1.8413832  )
       158        H      tau( 158) = (   0.4636452   0.1772953   1.8632540  )

     -------------------------------------------------
     Parameters for Dispersion (Grimme-D2) Correction:
     -------------------------------------------------
       atom      VdW radius       C_6     

        Ni         2.952        374.666
        Mn         2.952        374.666
        P          3.222        271.980
        O          2.536         24.284
        H          1.892          4.857

     number of k points=     1  Gaussian smearing, width (Ry)=  0.0100
                       cart. coord. in units 2pi/alat
        k(    1) = (   0.0000000   0.0000000   0.0000000), wk =   1.0000000

     Dense  grid:  1918138 G-vectors     FFT dimensions: ( 125, 135, 432)

     Smooth grid:   485265 G-vectors     FFT dimensions: (  80,  90, 288)

     Estimated max dynamical RAM per process >     320.12 MB

     Estimated total dynamical RAM >      20.01 GB
     Generating pointlists ...
     new r_m :   0.0800 (alat units)  1.4161 (a.u.) for type    1
     new r_m :   0.0869 (alat units)  1.5388 (a.u.) for type    2
     new r_m :   0.0650 (alat units)  1.1499 (a.u.) for type    3
     new r_m :   0.0436 (alat units)  0.7717 (a.u.) for type    4
     new r_m :   0.0436 (alat units)  0.7717 (a.u.) for type    5

     Initial potential from superposition of free atoms

     starting charge    1077.8900, renormalised to    1078.0000

     negative rho (up, down):  1.238E-03 4.538E-04
 
     Adding external electric field

     Computed dipole along edir(3) : 
        Dipole                1.6218 Ry au,          4.1222 Debye
        Dipole field          0.0010 Ry au, 
 
        Potential amp.       -0.1088 Ry
        Total length         54.2615 bohr
 
 
     Adding external electric field

     Computed dipole along edir(3) : 
        Dipole                1.6218 Ry au,          4.1222 Debye
        Dipole field          0.0010 Ry au, 
 
        Potential amp.       -0.1088 Ry
        Total length         54.2615 bohr
 
     Starting wfcs are  812 randomized atomic wfcs

     total cpu time spent up to now is       10.1 secs

     Self-consistent Calculation

     iteration #  1     ecut=    50.00 Ry     beta= 0.10
     Davidson diagonalization with overlap
     ethr =  1.00E-02,  avg # of iterations =  6.0

     negative rho (up, down):  3.280E-01 1.103E-06
 
     Adding external electric field

     Computed dipole along edir(3) : 
        Dipole               -3.5896 Ry au,         -9.1238 Debye
        Dipole field         -0.0022 Ry au, 
 
        Potential amp.        0.2409 Ry
        Total length         54.2615 bohr
 
 
     Adding external electric field

     Computed dipole along edir(3) : 
        Dipole               -3.5896 Ry au,         -9.1238 Debye
        Dipole field         -0.0022 Ry au, 
 
        Potential amp.        0.2409 Ry
        Total length         54.2615 bohr
 

     total cpu time spent up to now is       37.6 secs

     total energy              =   -7178.29808703 Ry
     estimated scf accuracy    <     755.74853658 Ry

     total magnetization       =   216.00 Bohr mag/cell
     absolute magnetization    =   296.70 Bohr mag/cell

     iteration #  2     ecut=    50.00 Ry     beta= 0.10
     Davidson diagonalization with overlap
     ethr =  1.00E-02,  avg # of iterations =  2.0

     negative rho (up, down):  3.128E-01 8.421E-07
 
     Adding external electric field

     Computed dipole along edir(3) : 
        Dipole               -2.3653 Ry au,         -6.0120 Debye
        Dipole field         -0.0015 Ry au, 
 
        Potential amp.        0.1587 Ry
        Total length         54.2615 bohr
 
 
     Adding external electric field

     Computed dipole along edir(3) : 
        Dipole               -2.3653 Ry au,         -6.0120 Debye
        Dipole field         -0.0015 Ry au, 
 
        Potential amp.        0.1587 Ry
        Total length         54.2615 bohr
 

     total cpu time spent up to now is       53.7 secs

     total energy              =   -7261.89707040 Ry
     estimated scf accuracy    <     214.90831815 Ry

     total magnetization       =   151.13 Bohr mag/cell
     absolute magnetization    =   200.61 Bohr mag/cell

     iteration #  3     ecut=    50.00 Ry     beta= 0.10
     Davidson diagonalization with overlap
     ethr =  1.00E-02,  avg # of iterations =  1.5

     negative rho (up, down):  2.764E-01 7.531E-07
 
     Adding external electric field

     Computed dipole along edir(3) : 
        Dipole               -2.0434 Ry au,         -5.1939 Debye
        Dipole field         -0.0013 Ry au, 
 
        Potential amp.        0.1371 Ry
        Total length         54.2615 bohr
 
 
     Adding external electric field

     Computed dipole along edir(3) : 
        Dipole               -2.0434 Ry au,         -5.1939 Debye
        Dipole field         -0.0013 Ry au, 
 
        Potential amp.        0.1371 Ry
        Total length         54.2615 bohr
 

     total cpu time spent up to now is       66.6 secs

     total energy              =   -7291.92913440 Ry
     estimated scf accuracy    <      97.85288571 Ry

     total magnetization       =   126.02 Bohr mag/cell
     absolute magnetization    =   179.66 Bohr mag/cell

     iteration #  4     ecut=    50.00 Ry     beta= 0.10
     Davidson diagonalization with overlap
     ethr =  9.08E-03,  avg # of iterations =  1.5

     negative rho (up, down):  2.063E-01 1.745E-07
 
     Adding external electric field

     Computed dipole along edir(3) : 
        Dipole               -1.9446 Ry au,         -4.9426 Debye
        Dipole field         -0.0012 Ry au, 
 
        Potential amp.        0.1305 Ry
        Total length         54.2615 bohr
 
 
     Adding external electric field

     Computed dipole along edir(3) : 
        Dipole               -1.9446 Ry au,         -4.9426 Debye
        Dipole field         -0.0012 Ry au, 
 
        Potential amp.        0.1305 Ry
        Total length         54.2615 bohr
 

     total cpu time spent up to now is       79.7 secs

     total energy              =   -7326.67540815 Ry
     estimated scf accuracy    <      78.86881507 Ry

     total magnetization       =   111.15 Bohr mag/cell
     absolute magnetization    =   165.47 Bohr mag/cell

     iteration #  5     ecut=    50.00 Ry     beta= 0.10
     Davidson diagonalization with overlap
     ethr =  7.32E-03,  avg # of iterations =  1.5

     negative rho (up, down):  8.768E-03 6.663E-07
 
     Adding external electric field

     Computed dipole along edir(3) : 
        Dipole               -1.5121 Ry au,         -3.8435 Debye
        Dipole field         -0.0009 Ry au, 
 
        Potential amp.        0.1015 Ry
        Total length         54.2615 bohr
 
 
     Adding external electric field

     Computed dipole along edir(3) : 
        Dipole               -1.5121 Ry au,         -3.8435 Debye
        Dipole field         -0.0009 Ry au, 
 
        Potential amp.        0.1015 Ry
        Total length         54.2615 bohr
 

     total cpu time spent up to now is       91.9 secs

     total energy              =   -7385.40287016 Ry
     estimated scf accuracy    <      61.32162165 Ry

     total magnetization       =    88.02 Bohr mag/cell
     absolute magnetization    =   146.07 Bohr mag/cell

     iteration #  6     ecut=    50.00 Ry     beta= 0.10
     Davidson diagonalization with overlap
     ethr =  5.69E-03,  avg # of iterations =  1.5

     negative rho (up, down):  3.913E-04 4.723E-04
 
     Adding external electric field

     Computed dipole along edir(3) : 
        Dipole               -1.1853 Ry au,         -3.0127 Debye
        Dipole field         -0.0007 Ry au, 
 
        Potential amp.        0.0795 Ry
        Total length         54.2615 bohr
 
 
     Adding external electric field

     Computed dipole along edir(3) : 
        Dipole               -1.1853 Ry au,         -3.0127 Debye
        Dipole field         -0.0007 Ry au, 
 
        Potential amp.        0.0795 Ry
        Total length         54.2615 bohr
 

     total cpu time spent up to now is      105.1 secs

     total energy              =   -7395.41193321 Ry
     estimated scf accuracy    <      10.68768316 Ry

     total magnetization       =    82.00 Bohr mag/cell
     absolute magnetization    =   116.27 Bohr mag/cell

     iteration #  7     ecut=    50.00 Ry     beta= 0.10
     Davidson diagonalization with overlap
     ethr =  9.91E-04,  avg # of iterations =  5.0

     negative rho (up, down):  3.705E-04 4.593E-04
 
     Adding external electric field

     Computed dipole along edir(3) : 
        Dipole               -1.1764 Ry au,         -2.9900 Debye
        Dipole field         -0.0007 Ry au, 
 
        Potential amp.        0.0790 Ry
        Total length         54.2615 bohr
 
 
     Adding external electric field

     Computed dipole along edir(3) : 
        Dipole               -1.1764 Ry au,         -2.9900 Debye
        Dipole field         -0.0007 Ry au, 
 
        Potential amp.        0.0790 Ry
        Total length         54.2615 bohr
 

     total cpu time spent up to now is      125.2 secs

     total energy              =   -7397.64819007 Ry
     estimated scf accuracy    <      11.57327060 Ry

     total magnetization       =    71.09 Bohr mag/cell
     absolute magnetization    =    88.40 Bohr mag/cell

     iteration #  8     ecut=    50.00 Ry     beta= 0.10
     Davidson diagonalization with overlap
     ethr =  9.91E-04,  avg # of iterations =  1.0

     negative rho (up, down):  3.188E-04 3.950E-04
 
     Adding external electric field

     Computed dipole along edir(3) : 
        Dipole               -1.1466 Ry au,         -2.9144 Debye
        Dipole field         -0.0007 Ry au, 
 
        Potential amp.        0.0770 Ry
        Total length         54.2615 bohr
 
 
     Adding external electric field

     Computed dipole along edir(3) : 
        Dipole               -1.1466 Ry au,         -2.9144 Debye
        Dipole field         -0.0007 Ry au, 
 
        Potential amp.        0.0770 Ry
        Total length         54.2615 bohr
 

     total cpu time spent up to now is      136.8 secs

     total energy              =   -7397.63867107 Ry
     estimated scf accuracy    <      10.98968364 Ry

     total magnetization       =    71.37 Bohr mag/cell
     absolute magnetization    =    88.32 Bohr mag/cell

     iteration #  9     ecut=    50.00 Ry     beta= 0.10
     Davidson diagonalization with overlap
     ethr =  9.91E-04,  avg # of iterations =  1.0

     negative rho (up, down):  4.488E-05 1.246E-04
 
     Adding external electric field

     Computed dipole along edir(3) : 
        Dipole               -0.8857 Ry au,         -2.2513 Debye
        Dipole field         -0.0005 Ry au, 
 
        Potential amp.        0.0594 Ry
        Total length         54.2615 bohr
 
 
     Adding external electric field

     Computed dipole along edir(3) : 
        Dipole               -0.8857 Ry au,         -2.2513 Debye
        Dipole field         -0.0005 Ry au, 
 
        Potential amp.        0.0594 Ry
        Total length         54.2615 bohr
 

     total cpu time spent up to now is      148.7 secs

     total energy              =   -7397.47218449 Ry
     estimated scf accuracy    <       9.71925810 Ry

     total magnetization       =    71.90 Bohr mag/cell
     absolute magnetization    =    88.27 Bohr mag/cell

     iteration # 10     ecut=    50.00 Ry     beta= 0.10
     Davidson diagonalization with overlap
     ethr =  9.02E-04,  avg # of iterations =  1.5

     negative rho (up, down):  3.699E-05 1.476E-04
 
     Adding external electric field

     Computed dipole along edir(3) : 
        Dipole               -0.8965 Ry au,         -2.2787 Debye
        Dipole field         -0.0006 Ry au, 
 
        Potential amp.        0.0602 Ry
        Total length         54.2615 bohr
 
 
     Adding external electric field

     Computed dipole along edir(3) : 
        Dipole               -0.8965 Ry au,         -2.2787 Debye
        Dipole field         -0.0006 Ry au, 
 
        Potential amp.        0.0602 Ry
        Total length         54.2615 bohr
 

     total cpu time spent up to now is      160.8 secs

     total energy              =   -7397.65946283 Ry
     estimated scf accuracy    <       4.20321998 Ry

     total magnetization       =    76.14 Bohr mag/cell
     absolute magnetization    =    88.28 Bohr mag/cell

     iteration # 11     ecut=    50.00 Ry     beta= 0.10
     Davidson diagonalization with overlap
     ethr =  3.90E-04,  avg # of iterations =  2.0

     negative rho (up, down):  2.106E-05 1.440E-04
 
     Adding external electric field

     Computed dipole along edir(3) : 
        Dipole               -0.8904 Ry au,         -2.2630 Debye
        Dipole field         -0.0006 Ry au, 
 
        Potential amp.        0.0598 Ry
        Total length         54.2615 bohr
 
 
     Adding external electric field

     Computed dipole along edir(3) : 
        Dipole               -0.8904 Ry au,         -2.2630 Debye
        Dipole field         -0.0006 Ry au, 
 
        Potential amp.        0.0598 Ry
        Total length         54.2615 bohr
 

     total cpu time spent up to now is      173.6 secs

     total energy              =   -7397.68546895 Ry
     estimated scf accuracy    <       3.03271676 Ry

     total magnetization       =    76.83 Bohr mag/cell
     absolute magnetization    =    87.95 Bohr mag/cell

     iteration # 12     ecut=    50.00 Ry     beta= 0.10
     Davidson diagonalization with overlap
     ethr =  2.81E-04,  avg # of iterations =  4.0

     negative rho (up, down):  1.168E-05 1.123E-04
 
     Adding external electric field

     Computed dipole along edir(3) : 
        Dipole               -0.8777 Ry au,         -2.2309 Debye
        Dipole field         -0.0005 Ry au, 
 
        Potential amp.        0.0589 Ry
        Total length         54.2615 bohr
 
 
     Adding external electric field

     Computed dipole along edir(3) : 
        Dipole               -0.8777 Ry au,         -2.2309 Debye
        Dipole field         -0.0005 Ry au, 
 
        Potential amp.        0.0589 Ry
        Total length         54.2615 bohr
 

     total cpu time spent up to now is      188.1 secs

     total energy              =   -7397.79224481 Ry
     estimated scf accuracy    <       0.88352400 Ry

     total magnetization       =    79.54 Bohr mag/cell
     absolute magnetization    =    88.39 Bohr mag/cell

     iteration # 13     ecut=    50.00 Ry     beta= 0.10
     Davidson diagonalization with overlap
     ethr =  8.20E-05,  avg # of iterations = 17.0

     negative rho (up, down):  1.509E-05 1.182E-04
 
     Adding external electric field

     Computed dipole along edir(3) : 
        Dipole               -0.9245 Ry au,         -2.3499 Debye
        Dipole field         -0.0006 Ry au, 
 
        Potential amp.        0.0620 Ry
        Total length         54.2615 bohr
 
 
     Adding external electric field

     Computed dipole along edir(3) : 
        Dipole               -0.9245 Ry au,         -2.3499 Debye
        Dipole field         -0.0006 Ry au, 
 
        Potential amp.        0.0620 Ry
        Total length         54.2615 bohr
 

     total cpu time spent up to now is      217.7 secs

     total energy              =   -7397.90353620 Ry
     estimated scf accuracy    <       0.61315567 Ry

     total magnetization       =    80.64 Bohr mag/cell
     absolute magnetization    =    87.47 Bohr mag/cell

     iteration # 14     ecut=    50.00 Ry     beta= 0.10
     Davidson diagonalization with overlap
     ethr =  5.69E-05,  avg # of iterations =  1.5

     negative rho (up, down):  2.224E-05 1.396E-04
 
     Adding external electric field

     Computed dipole along edir(3) : 
        Dipole               -0.9867 Ry au,         -2.5079 Debye
        Dipole field         -0.0006 Ry au, 
 
        Potential amp.        0.0662 Ry
        Total length         54.2615 bohr
 
 
     Adding external electric field

     Computed dipole along edir(3) : 
        Dipole               -0.9867 Ry au,         -2.5079 Debye
        Dipole field         -0.0006 Ry au, 
 
        Potential amp.        0.0662 Ry
        Total length         54.2615 bohr
 

     total cpu time spent up to now is      229.3 secs

     total energy              =   -7398.00368921 Ry
     estimated scf accuracy    <       0.54783541 Ry

     total magnetization       =    81.55 Bohr mag/cell
     absolute magnetization    =    87.02 Bohr mag/cell

     iteration # 15     ecut=    50.00 Ry     beta= 0.10
     Davidson diagonalization with overlap
     ethr =  5.08E-05,  avg # of iterations =  1.5

     negative rho (up, down):  3.053E-05 7.726E-05
 
     Adding external electric field

     Computed dipole along edir(3) : 
        Dipole               -1.0339 Ry au,         -2.6278 Debye
        Dipole field         -0.0006 Ry au, 
 
        Potential amp.        0.0694 Ry
        Total length         54.2615 bohr
 
 
     Adding external electric field

     Computed dipole along edir(3) : 
        Dipole               -1.0339 Ry au,         -2.6278 Debye
        Dipole field         -0.0006 Ry au, 
 
        Potential amp.        0.0694 Ry
        Total length         54.2615 bohr
 

     total cpu time spent up to now is      241.4 secs

     total energy              =   -7398.02272320 Ry
     estimated scf accuracy    <       0.34955387 Ry

     total magnetization       =    81.33 Bohr mag/cell
     absolute magnetization    =    84.72 Bohr mag/cell

     iteration # 16     ecut=    50.00 Ry     beta= 0.10
     Davidson diagonalization with overlap
     ethr =  3.24E-05,  avg # of iterations =  1.0

     negative rho (up, down):  3.127E-05 7.765E-05
 
     Adding external electric field

     Computed dipole along edir(3) : 
        Dipole               -1.0390 Ry au,         -2.6409 Debye
        Dipole field         -0.0006 Ry au, 
 
        Potential amp.        0.0697 Ry
        Total length         54.2615 bohr
 
 
     Adding external electric field

     Computed dipole along edir(3) : 
        Dipole               -1.0390 Ry au,         -2.6409 Debye
        Dipole field         -0.0006 Ry au, 
 
        Potential amp.        0.0697 Ry
        Total length         54.2615 bohr
 

     total cpu time spent up to now is      252.3 secs

     total energy              =   -7398.02680000 Ry
     estimated scf accuracy    <       0.26861002 Ry

     total magnetization       =    80.76 Bohr mag/cell
     absolute magnetization    =    84.13 Bohr mag/cell

     iteration # 17     ecut=    50.00 Ry     beta= 0.10
     Davidson diagonalization with overlap
     ethr =  2.49E-05,  avg # of iterations =  1.0

     negative rho (up, down):  2.885E-05 3.390E-05
 
     Adding external electric field

     Computed dipole along edir(3) : 
        Dipole               -1.0360 Ry au,         -2.6332 Debye
        Dipole field         -0.0006 Ry au, 
 
        Potential amp.        0.0695 Ry
        Total length         54.2615 bohr
 
 
     Adding external electric field

     Computed dipole along edir(3) : 
        Dipole               -1.0360 Ry au,         -2.6332 Debye
        Dipole field         -0.0006 Ry au, 
 
        Potential amp.        0.0695 Ry
        Total length         54.2615 bohr
 

     total cpu time spent up to now is      263.8 secs

     total energy              =   -7398.01937362 Ry
     estimated scf accuracy    <       0.27755244 Ry

     total magnetization       =    80.61 Bohr mag/cell
     absolute magnetization    =    83.92 Bohr mag/cell

     iteration # 18     ecut=    50.00 Ry     beta= 0.10
     Davidson diagonalization with overlap
     ethr =  2.49E-05,  avg # of iterations =  1.0

     negative rho (up, down):  3.566E-05 7.272E-05
 
     Adding external electric field

     Computed dipole along edir(3) : 
        Dipole               -1.0547 Ry au,         -2.6808 Debye
        Dipole field         -0.0007 Ry au, 
 
        Potential amp.        0.0708 Ry
        Total length         54.2615 bohr
 
 
     Adding external electric field

     Computed dipole along edir(3) : 
        Dipole               -1.0547 Ry au,         -2.6808 Debye
        Dipole field         -0.0007 Ry au, 
 
        Potential amp.        0.0708 Ry
        Total length         54.2615 bohr
 

     total cpu time spent up to now is      276.3 secs

     total energy              =   -7398.03447357 Ry
     estimated scf accuracy    <       0.28356020 Ry

     total magnetization       =    80.53 Bohr mag/cell
     absolute magnetization    =    83.99 Bohr mag/cell

     iteration # 19     ecut=    50.00 Ry     beta= 0.10
     Davidson diagonalization with overlap
     ethr =  2.49E-05,  avg # of iterations =  1.0

     negative rho (up, down):  3.303E-05 6.586E-05
 
     Adding external electric field

     Computed dipole along edir(3) : 
        Dipole               -1.0780 Ry au,         -2.7400 Debye
        Dipole field         -0.0007 Ry au, 
 
        Potential amp.        0.0723 Ry
        Total length         54.2615 bohr
 
 
     Adding external electric field

     Computed dipole along edir(3) : 
        Dipole               -1.0780 Ry au,         -2.7400 Debye
        Dipole field         -0.0007 Ry au, 
 
        Potential amp.        0.0723 Ry
        Total length         54.2615 bohr
 

     total cpu time spent up to now is      287.8 secs

     total energy              =   -7398.03008627 Ry
     estimated scf accuracy    <       0.26188945 Ry

     total magnetization       =    80.60 Bohr mag/cell
     absolute magnetization    =    83.68 Bohr mag/cell

     iteration # 20     ecut=    50.00 Ry     beta= 0.10
     Davidson diagonalization with overlap
     ethr =  2.43E-05,  avg # of iterations =  1.0

     negative rho (up, down):  1.380E-05 3.837E-05
 
     Adding external electric field

     Computed dipole along edir(3) : 
        Dipole               -1.0467 Ry au,         -2.6605 Debye
        Dipole field         -0.0006 Ry au, 
 
        Potential amp.        0.0703 Ry
        Total length         54.2615 bohr
 
 
     Adding external electric field

     Computed dipole along edir(3) : 
        Dipole               -1.0467 Ry au,         -2.6605 Debye
        Dipole field         -0.0006 Ry au, 
 
        Potential amp.        0.0703 Ry
        Total length         54.2615 bohr
 

     total cpu time spent up to now is      300.1 secs

     total energy              =   -7398.02576478 Ry
     estimated scf accuracy    <       0.31101565 Ry

     total magnetization       =    80.07 Bohr mag/cell
     absolute magnetization    =    83.19 Bohr mag/cell

     iteration # 21     ecut=    50.00 Ry     beta= 0.10
     Davidson diagonalization with overlap
     ethr =  2.43E-05,  avg # of iterations =  1.0

     negative rho (up, down):  9.387E-06 2.175E-05
 
     Adding external electric field

     Computed dipole along edir(3) : 
        Dipole               -1.0633 Ry au,         -2.7027 Debye
        Dipole field         -0.0007 Ry au, 
 
        Potential amp.        0.0714 Ry
        Total length         54.2615 bohr
 
 
     Adding external electric field

     Computed dipole along edir(3) : 
        Dipole               -1.0633 Ry au,         -2.7027 Debye
        Dipole field         -0.0007 Ry au, 
 
        Potential amp.        0.0714 Ry
        Total length         54.2615 bohr
 

     total cpu time spent up to now is      312.2 secs

     total energy              =   -7398.03114048 Ry
     estimated scf accuracy    <       0.17649133 Ry

     total magnetization       =    80.15 Bohr mag/cell
     absolute magnetization    =    82.82 Bohr mag/cell

     iteration # 22     ecut=    50.00 Ry     beta= 0.10
     Davidson diagonalization with overlap
     ethr =  1.64E-05,  avg # of iterations =  2.0

     negative rho (up, down):  7.640E-06 1.023E-05
 
     Adding external electric field

     Computed dipole along edir(3) : 
        Dipole               -1.0403 Ry au,         -2.6442 Debye
        Dipole field         -0.0006 Ry au, 
 
        Potential amp.        0.0698 Ry
        Total length         54.2615 bohr
 
 
     Adding external electric field

     Computed dipole along edir(3) : 
        Dipole               -1.0403 Ry au,         -2.6442 Debye
        Dipole field         -0.0006 Ry au, 
 
        Potential amp.        0.0698 Ry
        Total length         54.2615 bohr
 

     total cpu time spent up to now is      326.4 secs

     total energy              =   -7398.03511775 Ry
     estimated scf accuracy    <       0.10105779 Ry

     total magnetization       =    79.93 Bohr mag/cell
     absolute magnetization    =    82.30 Bohr mag/cell

     iteration # 23     ecut=    50.00 Ry     beta= 0.10
     Davidson diagonalization with overlap
     ethr =  9.37E-06,  avg # of iterations =  1.5

     negative rho (up, down):  6.802E-06 3.912E-06
 
     Adding external electric field

     Computed dipole along edir(3) : 
        Dipole               -0.9916 Ry au,         -2.5204 Debye
        Dipole field         -0.0006 Ry au, 
 
        Potential amp.        0.0665 Ry
        Total length         54.2615 bohr
 
 
     Adding external electric field

     Computed dipole along edir(3) : 
        Dipole               -0.9916 Ry au,         -2.5204 Debye
        Dipole field         -0.0006 Ry au, 
 
        Potential amp.        0.0665 Ry
        Total length         54.2615 bohr
 

     total cpu time spent up to now is      337.7 secs

     total energy              =   -7398.03708280 Ry
     estimated scf accuracy    <       0.06429270 Ry

     total magnetization       =    80.40 Bohr mag/cell
     absolute magnetization    =    82.73 Bohr mag/cell

     iteration # 24     ecut=    50.00 Ry     beta= 0.10
     Davidson diagonalization with overlap
     c_bands:  4 eigenvalues not converged
     ethr =  5.96E-06,  avg # of iterations = 11.0

     negative rho (up, down):  3.728E-06 3.296E-06
 
     Adding external electric field

     Computed dipole along edir(3) : 
        Dipole               -0.9649 Ry au,         -2.4525 Debye
        Dipole field         -0.0006 Ry au, 
 
        Potential amp.        0.0648 Ry
        Total length         54.2615 bohr
 
 
     Adding external electric field

     Computed dipole along edir(3) : 
        Dipole               -0.9649 Ry au,         -2.4525 Debye
        Dipole field         -0.0006 Ry au, 
 
        Potential amp.        0.0648 Ry
        Total length         54.2615 bohr
 

     total cpu time spent up to now is      355.4 secs

     total energy              =   -7398.04039158 Ry
     estimated scf accuracy    <       0.04977511 Ry

     total magnetization       =    80.25 Bohr mag/cell
     absolute magnetization    =    81.94 Bohr mag/cell

     iteration # 25     ecut=    50.00 Ry     beta= 0.10
     Davidson diagonalization with overlap
     ethr =  4.62E-06,  avg # of iterations =  1.5

     negative rho (up, down):  1.805E-06 3.777E-06
 
     Adding external electric field

     Computed dipole along edir(3) : 
        Dipole               -0.9420 Ry au,         -2.3943 Debye
        Dipole field         -0.0006 Ry au, 
 
        Potential amp.        0.0632 Ry
        Total length         54.2615 bohr
 
 
     Adding external electric field

     Computed dipole along edir(3) : 
        Dipole               -0.9420 Ry au,         -2.3943 Debye
        Dipole field         -0.0006 Ry au, 
 
        Potential amp.        0.0632 Ry
        Total length         54.2615 bohr
 

     total cpu time spent up to now is      367.0 secs

     total energy              =   -7398.04031295 Ry
     estimated scf accuracy    <       0.02936899 Ry

     total magnetization       =    80.50 Bohr mag/cell
     absolute magnetization    =    82.08 Bohr mag/cell

     iteration # 26     ecut=    50.00 Ry     beta= 0.10
     Davidson diagonalization with overlap
     ethr =  2.72E-06,  avg # of iterations =  2.0

     negative rho (up, down):  3.772E-06 3.935E-06
 
     Adding external electric field

     Computed dipole along edir(3) : 
        Dipole               -0.9587 Ry au,         -2.4369 Debye
        Dipole field         -0.0006 Ry au, 
 
        Potential amp.        0.0643 Ry
        Total length         54.2615 bohr
 
 
     Adding external electric field

     Computed dipole along edir(3) : 
        Dipole               -0.9587 Ry au,         -2.4369 Debye
        Dipole field         -0.0006 Ry au, 
 
        Potential amp.        0.0643 Ry
        Total length         54.2615 bohr
 

     total cpu time spent up to now is      379.9 secs

     total energy              =   -7398.04092867 Ry
     estimated scf accuracy    <       0.03021574 Ry

     total magnetization       =    80.43 Bohr mag/cell
     absolute magnetization    =    81.98 Bohr mag/cell

     iteration # 27     ecut=    50.00 Ry     beta= 0.10
     Davidson diagonalization with overlap
     ethr =  2.72E-06,  avg # of iterations =  2.0

     negative rho (up, down):  4.451E-06 2.114E-06
 
     Adding external electric field

     Computed dipole along edir(3) : 
        Dipole               -0.9605 Ry au,         -2.4413 Debye
        Dipole field         -0.0006 Ry au, 
 
        Potential amp.        0.0645 Ry
        Total length         54.2615 bohr
 
 
     Adding external electric field

     Computed dipole along edir(3) : 
        Dipole               -0.9605 Ry au,         -2.4413 Debye
        Dipole field         -0.0006 Ry au, 
 
        Potential amp.        0.0645 Ry
        Total length         54.2615 bohr
 

     total cpu time spent up to now is      392.3 secs

     total energy              =   -7398.04091427 Ry
     estimated scf accuracy    <       0.02501877 Ry

     total magnetization       =    80.46 Bohr mag/cell
     absolute magnetization    =    81.95 Bohr mag/cell

     iteration # 28     ecut=    50.00 Ry     beta= 0.10
     Davidson diagonalization with overlap
     ethr =  2.32E-06,  avg # of iterations =  2.0

     negative rho (up, down):  2.632E-06 5.360E-07
 
     Adding external electric field

     Computed dipole along edir(3) : 
        Dipole               -0.9169 Ry au,         -2.3305 Debye
        Dipole field         -0.0006 Ry au, 
 
        Potential amp.        0.0615 Ry
        Total length         54.2615 bohr
 
 
     Adding external electric field

     Computed dipole along edir(3) : 
        Dipole               -0.9169 Ry au,         -2.3305 Debye
        Dipole field         -0.0006 Ry au, 
 
        Potential amp.        0.0615 Ry
        Total length         54.2615 bohr
 

     total cpu time spent up to now is      404.5 secs

     total energy              =   -7398.03916896 Ry
     estimated scf accuracy    <       0.02427456 Ry

     total magnetization       =    80.56 Bohr mag/cell
     absolute magnetization    =    82.06 Bohr mag/cell

     iteration # 29     ecut=    50.00 Ry     beta= 0.10
     Davidson diagonalization with overlap
     ethr =  2.25E-06,  avg # of iterations =  2.0

     negative rho (up, down):  7.729E-07 4.193E-07
 
     Adding external electric field

     Computed dipole along edir(3) : 
        Dipole               -0.8726 Ry au,         -2.2179 Debye
        Dipole field         -0.0005 Ry au, 
 
        Potential amp.        0.0586 Ry
        Total length         54.2615 bohr
 
 
     Adding external electric field

     Computed dipole along edir(3) : 
        Dipole               -0.8726 Ry au,         -2.2179 Debye
        Dipole field         -0.0005 Ry au, 
 
        Potential amp.        0.0586 Ry
        Total length         54.2615 bohr
 

     total cpu time spent up to now is      417.4 secs

     total energy              =   -7398.04020624 Ry
     estimated scf accuracy    <       0.02892013 Ry

     total magnetization       =    80.42 Bohr mag/cell
     absolute magnetization    =    81.96 Bohr mag/cell

     iteration # 30     ecut=    50.00 Ry     beta= 0.10
     Davidson diagonalization with overlap
     ethr =  2.25E-06,  avg # of iterations =  2.0

     negative rho (up, down):  1.542E-06 1.068E-06
 
     Adding external electric field

     Computed dipole along edir(3) : 
        Dipole               -0.8489 Ry au,         -2.1577 Debye
        Dipole field         -0.0005 Ry au, 
 
        Potential amp.        0.0570 Ry
        Total length         54.2615 bohr
 
 
     Adding external electric field

     Computed dipole along edir(3) : 
        Dipole               -0.8489 Ry au,         -2.1577 Debye
        Dipole field         -0.0005 Ry au, 
 
        Potential amp.        0.0570 Ry
        Total length         54.2615 bohr
 

     total cpu time spent up to now is      430.7 secs

     total energy              =   -7398.03973580 Ry
     estimated scf accuracy    <       0.03055873 Ry

     total magnetization       =    80.52 Bohr mag/cell
     absolute magnetization    =    82.00 Bohr mag/cell

     iteration # 31     ecut=    50.00 Ry     beta= 0.10
     Davidson diagonalization with overlap
     ethr =  2.25E-06,  avg # of iterations =  2.0

     negative rho (up, down):  2.916E-06 2.337E-06
 
     Adding external electric field

     Computed dipole along edir(3) : 
        Dipole               -0.8243 Ry au,         -2.0952 Debye
        Dipole field         -0.0005 Ry au, 
 
        Potential amp.        0.0553 Ry
        Total length         54.2615 bohr
 
 
     Adding external electric field

     Computed dipole along edir(3) : 
        Dipole               -0.8243 Ry au,         -2.0952 Debye
        Dipole field         -0.0005 Ry au, 
 
        Potential amp.        0.0553 Ry
        Total length         54.2615 bohr
 

     total cpu time spent up to now is      444.2 secs

     total energy              =   -7398.03973635 Ry
     estimated scf accuracy    <       0.02553267 Ry

     total magnetization       =    80.53 Bohr mag/cell
     absolute magnetization    =    81.94 Bohr mag/cell

     iteration # 32     ecut=    50.00 Ry     beta= 0.10
     Davidson diagonalization with overlap
     ethr =  2.25E-06,  avg # of iterations =  2.0

     negative rho (up, down):  1.125E-05 9.847E-06
 
     Adding external electric field

     Computed dipole along edir(3) : 
        Dipole               -0.7726 Ry au,         -1.9637 Debye
        Dipole field         -0.0005 Ry au, 
 
        Potential amp.        0.0518 Ry
        Total length         54.2615 bohr
 
 
     Adding external electric field

     Computed dipole along edir(3) : 
        Dipole               -0.7726 Ry au,         -1.9637 Debye
        Dipole field         -0.0005 Ry au, 
 
        Potential amp.        0.0518 Ry
        Total length         54.2615 bohr
 

     total cpu time spent up to now is      457.3 secs

     total energy              =   -7398.03912392 Ry
     estimated scf accuracy    <       0.02215402 Ry

     total magnetization       =    80.51 Bohr mag/cell
     absolute magnetization    =    81.93 Bohr mag/cell

     iteration # 33     ecut=    50.00 Ry     beta= 0.10
     Davidson diagonalization with overlap
     ethr =  2.06E-06,  avg # of iterations =  9.0

     negative rho (up, down):  1.745E-05 1.395E-05
 
     Adding external electric field

     Computed dipole along edir(3) : 
        Dipole               -0.7621 Ry au,         -1.9370 Debye
        Dipole field         -0.0005 Ry au, 
 
        Potential amp.        0.0511 Ry
        Total length         54.2615 bohr
 
 
     Adding external electric field

     Computed dipole along edir(3) : 
        Dipole               -0.7621 Ry au,         -1.9370 Debye
        Dipole field         -0.0005 Ry au, 
 
        Potential amp.        0.0511 Ry
        Total length         54.2615 bohr
 

     total cpu time spent up to now is      473.8 secs

     total energy              =   -7398.03866871 Ry
     estimated scf accuracy    <       0.02017182 Ry

     total magnetization       =    80.51 Bohr mag/cell
     absolute magnetization    =    81.93 Bohr mag/cell

     iteration # 34     ecut=    50.00 Ry     beta= 0.10
     Davidson diagonalization with overlap
     ethr =  1.87E-06,  avg # of iterations =  2.0

     negative rho (up, down):  1.753E-05 1.448E-05
 
     Adding external electric field

     Computed dipole along edir(3) : 
        Dipole               -0.7637 Ry au,         -1.9411 Debye
        Dipole field         -0.0005 Ry au, 
 
        Potential amp.        0.0513 Ry
        Total length         54.2615 bohr
 
 
     Adding external electric field

     Computed dipole along edir(3) : 
        Dipole               -0.7637 Ry au,         -1.9411 Debye
        Dipole field         -0.0005 Ry au, 
 
        Potential amp.        0.0513 Ry
        Total length         54.2615 bohr
 

     total cpu time spent up to now is      486.1 secs

     total energy              =   -7398.03895649 Ry
     estimated scf accuracy    <       0.01885525 Ry

     total magnetization       =    80.51 Bohr mag/cell
     absolute magnetization    =    81.90 Bohr mag/cell

     iteration # 35     ecut=    50.00 Ry     beta= 0.10
     Davidson diagonalization with overlap
     ethr =  1.75E-06,  avg # of iterations =  1.5

     negative rho (up, down):  8.967E-06 7.458E-06
 
     Adding external electric field

     Computed dipole along edir(3) : 
        Dipole               -0.7490 Ry au,         -1.9037 Debye
        Dipole field         -0.0005 Ry au, 
 
        Potential amp.        0.0503 Ry
        Total length         54.2615 bohr
 
 
     Adding external electric field

     Computed dipole along edir(3) : 
        Dipole               -0.7490 Ry au,         -1.9037 Debye
        Dipole field         -0.0005 Ry au, 
 
        Potential amp.        0.0503 Ry
        Total length         54.2615 bohr
 

     total cpu time spent up to now is      497.5 secs

     total energy              =   -7398.03936598 Ry
     estimated scf accuracy    <       0.01896953 Ry

     total magnetization       =    80.51 Bohr mag/cell
     absolute magnetization    =    81.92 Bohr mag/cell

     iteration # 36     ecut=    50.00 Ry     beta= 0.10
     Davidson diagonalization with overlap
     ethr =  1.75E-06,  avg # of iterations = 11.0

     negative rho (up, down):  2.591E-05 2.315E-05
 
     Adding external electric field

     Computed dipole along edir(3) : 
        Dipole               -0.7639 Ry au,         -1.9416 Debye
        Dipole field         -0.0005 Ry au, 
 
        Potential amp.        0.0513 Ry
        Total length         54.2615 bohr
 
 
     Adding external electric field

     Computed dipole along edir(3) : 
        Dipole               -0.7639 Ry au,         -1.9416 Debye
        Dipole field         -0.0005 Ry au, 
 
        Potential amp.        0.0513 Ry
        Total length         54.2615 bohr
 

     total cpu time spent up to now is      514.8 secs

     total energy              =   -7398.03877717 Ry
     estimated scf accuracy    <       0.02098381 Ry

     total magnetization       =    80.46 Bohr mag/cell
     absolute magnetization    =    81.93 Bohr mag/cell

     iteration # 37     ecut=    50.00 Ry     beta= 0.10
     Davidson diagonalization with overlap
     ethr =  1.75E-06,  avg # of iterations =  1.5

     negative rho (up, down):  7.893E-05 8.368E-05
 
     Adding external electric field

     Computed dipole along edir(3) : 
        Dipole               -0.7924 Ry au,         -2.0141 Debye
        Dipole field         -0.0005 Ry au, 
 
        Potential amp.        0.0532 Ry
        Total length         54.2615 bohr
 
 
     Adding external electric field

     Computed dipole along edir(3) : 
        Dipole               -0.7924 Ry au,         -2.0141 Debye
        Dipole field         -0.0005 Ry au, 
 
        Potential amp.        0.0532 Ry
        Total length         54.2615 bohr
 

     total cpu time spent up to now is      527.6 secs

     total energy              =   -7398.03776927 Ry
     estimated scf accuracy    <       0.01706282 Ry

     total magnetization       =    80.48 Bohr mag/cell
     absolute magnetization    =    81.90 Bohr mag/cell

     iteration # 38     ecut=    50.00 Ry     beta= 0.10
     Davidson diagonalization with overlap
     ethr =  1.58E-06,  avg # of iterations =  2.0

     negative rho (up, down):  3.982E-05 4.273E-05
 
     Adding external electric field

     Computed dipole along edir(3) : 
        Dipole               -0.7834 Ry au,         -1.9912 Debye
        Dipole field         -0.0005 Ry au, 
 
        Potential amp.        0.0526 Ry
        Total length         54.2615 bohr
 
 
     Adding external electric field

     Computed dipole along edir(3) : 
        Dipole               -0.7834 Ry au,         -1.9912 Debye
        Dipole field         -0.0005 Ry au, 
 
        Potential amp.        0.0526 Ry
        Total length         54.2615 bohr
 

     total cpu time spent up to now is      541.3 secs

     total energy              =   -7398.03852762 Ry
     estimated scf accuracy    <       0.01674820 Ry

     total magnetization       =    80.48 Bohr mag/cell
     absolute magnetization    =    81.81 Bohr mag/cell

     iteration # 39     ecut=    50.00 Ry     beta= 0.10
     Davidson diagonalization with overlap
     ethr =  1.55E-06,  avg # of iterations =  1.5

     negative rho (up, down):  8.678E-05 7.442E-05
 
     Adding external electric field

     Computed dipole along edir(3) : 
        Dipole               -0.7694 Ry au,         -1.9555 Debye
        Dipole field         -0.0005 Ry au, 
 
        Potential amp.        0.0516 Ry
        Total length         54.2615 bohr
 
 
     Adding external electric field

     Computed dipole along edir(3) : 
        Dipole               -0.7694 Ry au,         -1.9555 Debye
        Dipole field         -0.0005 Ry au, 
 
        Potential amp.        0.0516 Ry
        Total length         54.2615 bohr
 

     total cpu time spent up to now is      553.9 secs

     total energy              =   -7398.03792715 Ry
     estimated scf accuracy    <       0.01872711 Ry

     total magnetization       =    80.50 Bohr mag/cell
     absolute magnetization    =    81.85 Bohr mag/cell

     iteration # 40     ecut=    50.00 Ry     beta= 0.10
     Davidson diagonalization with overlap
     ethr =  1.55E-06,  avg # of iterations =  2.0

     negative rho (up, down):  9.675E-05 7.619E-05
 
     Adding external electric field

     Computed dipole along edir(3) : 
        Dipole               -0.7698 Ry au,         -1.9566 Debye
        Dipole field         -0.0005 Ry au, 
 
        Potential amp.        0.0517 Ry
        Total length         54.2615 bohr
 
 
     Adding external electric field

     Computed dipole along edir(3) : 
        Dipole               -0.7698 Ry au,         -1.9566 Debye
        Dipole field         -0.0005 Ry au, 
 
        Potential amp.        0.0517 Ry
        Total length         54.2615 bohr
 

     total cpu time spent up to now is      566.4 secs

     total energy              =   -7398.03778942 Ry
     estimated scf accuracy    <       0.01714068 Ry

     total magnetization       =    80.53 Bohr mag/cell
     absolute magnetization    =    81.90 Bohr mag/cell

     iteration # 41     ecut=    50.00 Ry     beta= 0.10
     Davidson diagonalization with overlap
     ethr =  1.55E-06,  avg # of iterations =  1.5

     negative rho (up, down):  9.211E-05 7.081E-05
 
     Adding external electric field

     Computed dipole along edir(3) : 
        Dipole               -0.7586 Ry au,         -1.9283 Debye
        Dipole field         -0.0005 Ry au, 
 
        Potential amp.        0.0509 Ry
        Total length         54.2615 bohr
 
 
     Adding external electric field

     Computed dipole along edir(3) : 
        Dipole               -0.7586 Ry au,         -1.9283 Debye
        Dipole field         -0.0005 Ry au, 
 
        Potential amp.        0.0509 Ry
        Total length         54.2615 bohr
 

     total cpu time spent up to now is      578.2 secs

     total energy              =   -7398.03773325 Ry
     estimated scf accuracy    <       0.01463714 Ry

     total magnetization       =    80.54 Bohr mag/cell
     absolute magnetization    =    81.94 Bohr mag/cell

     iteration # 42     ecut=    50.00 Ry     beta= 0.10
     Davidson diagonalization with overlap
     ethr =  1.36E-06,  avg # of iterations =  2.0

     negative rho (up, down):  7.392E-04 6.228E-04
 
     Adding external electric field

     Computed dipole along edir(3) : 
        Dipole               -0.6538 Ry au,         -1.6618 Debye
        Dipole field         -0.0004 Ry au, 
 
        Potential amp.        0.0439 Ry
        Total length         54.2615 bohr
 
 
     Adding external electric field

     Computed dipole along edir(3) : 
        Dipole               -0.6538 Ry au,         -1.6618 Debye
        Dipole field         -0.0004 Ry au, 
 
        Potential amp.        0.0439 Ry
        Total length         54.2615 bohr
 

     total cpu time spent up to now is      592.1 secs

     total energy              =   -7398.03655193 Ry
     estimated scf accuracy    <       0.01375160 Ry

     total magnetization       =    80.55 Bohr mag/cell
     absolute magnetization    =    81.97 Bohr mag/cell

     iteration # 43     ecut=    50.00 Ry     beta= 0.10
     Davidson diagonalization with overlap
     c_bands:  4 eigenvalues not converged
     ethr =  1.28E-06,  avg # of iterations = 12.0

     negative rho (up, down):  1.559E-03 1.376E-03
 
     Adding external electric field

     Computed dipole along edir(3) : 
        Dipole               -0.6008 Ry au,         -1.5270 Debye
        Dipole field         -0.0004 Ry au, 
 
        Potential amp.        0.0403 Ry
        Total length         54.2615 bohr
 
 
     Adding external electric field

     Computed dipole along edir(3) : 
        Dipole               -0.6008 Ry au,         -1.5270 Debye
        Dipole field         -0.0004 Ry au, 
 
        Potential amp.        0.0403 Ry
        Total length         54.2615 bohr
 

     total cpu time spent up to now is      611.5 secs

     total energy              =   -7398.03601827 Ry
     estimated scf accuracy    <       0.01151894 Ry

     total magnetization       =    80.56 Bohr mag/cell
     absolute magnetization    =    81.99 Bohr mag/cell

     iteration # 44     ecut=    50.00 Ry     beta= 0.10
     Davidson diagonalization with overlap
     ethr =  1.07E-06,  avg # of iterations =  2.0

     negative rho (up, down):  1.123E-03 8.870E-04
 
     Adding external electric field

     Computed dipole along edir(3) : 
        Dipole               -0.5489 Ry au,         -1.3951 Debye
        Dipole field         -0.0003 Ry au, 
 
        Potential amp.        0.0368 Ry
        Total length         54.2615 bohr
 
 
     Adding external electric field

     Computed dipole along edir(3) : 
        Dipole               -0.5489 Ry au,         -1.3951 Debye
        Dipole field         -0.0003 Ry au, 
 
        Potential amp.        0.0368 Ry
        Total length         54.2615 bohr
 

     total cpu time spent up to now is      624.5 secs

     total energy              =   -7398.03540208 Ry
     estimated scf accuracy    <       0.00988169 Ry

     total magnetization       =    80.57 Bohr mag/cell
     absolute magnetization    =    81.97 Bohr mag/cell

     iteration # 45     ecut=    50.00 Ry     beta= 0.10
     Davidson diagonalization with overlap
     c_bands:  5 eigenvalues not converged
     ethr =  9.17E-07,  avg # of iterations = 10.5

     negative rho (up, down):  7.124E-04 4.953E-04
 
     Adding external electric field

     Computed dipole along edir(3) : 
        Dipole               -0.5261 Ry au,         -1.3372 Debye
        Dipole field         -0.0003 Ry au, 
 
        Potential amp.        0.0353 Ry
        Total length         54.2615 bohr
 
 
     Adding external electric field

     Computed dipole along edir(3) : 
        Dipole               -0.5261 Ry au,         -1.3372 Debye
        Dipole field         -0.0003 Ry au, 
 
        Potential amp.        0.0353 Ry
        Total length         54.2615 bohr
 

     total cpu time spent up to now is      643.7 secs

     total energy              =   -7398.03527786 Ry
     estimated scf accuracy    <       0.00949066 Ry

     total magnetization       =    80.57 Bohr mag/cell
     absolute magnetization    =    81.94 Bohr mag/cell

     iteration # 46     ecut=    50.00 Ry     beta= 0.10
     Davidson diagonalization with overlap
     ethr =  8.80E-07,  avg # of iterations =  6.0

     negative rho (up, down):  3.829E-04 2.499E-04
 
     Adding external electric field

     Computed dipole along edir(3) : 
        Dipole               -0.4365 Ry au,         -1.1095 Debye
        Dipole field         -0.0003 Ry au, 
 
        Potential amp.        0.0293 Ry
        Total length         54.2615 bohr
 
 
     Adding external electric field

     Computed dipole along edir(3) : 
        Dipole               -0.4365 Ry au,         -1.1095 Debye
        Dipole field         -0.0003 Ry au, 
 
        Potential amp.        0.0293 Ry
        Total length         54.2615 bohr
 

     total cpu time spent up to now is      658.0 secs

     total energy              =   -7398.03554478 Ry
     estimated scf accuracy    <       0.00876522 Ry

     total magnetization       =    80.56 Bohr mag/cell
     absolute magnetization    =    81.91 Bohr mag/cell

     iteration # 47     ecut=    50.00 Ry     beta= 0.10
     Davidson diagonalization with overlap
     ethr =  8.13E-07,  avg # of iterations =  2.0

     negative rho (up, down):  3.291E-04 1.982E-04
 
     Adding external electric field

     Computed dipole along edir(3) : 
        Dipole               -0.4045 Ry au,         -1.0282 Debye
        Dipole field         -0.0003 Ry au, 
 
        Potential amp.        0.0271 Ry
        Total length         54.2615 bohr
 
 
     Adding external electric field

     Computed dipole along edir(3) : 
        Dipole               -0.4045 Ry au,         -1.0282 Debye
        Dipole field         -0.0003 Ry au, 
 
        Potential amp.        0.0271 Ry
        Total length         54.2615 bohr
 

     total cpu time spent up to now is      670.2 secs

     total energy              =   -7398.03559173 Ry
     estimated scf accuracy    <       0.00837951 Ry

     total magnetization       =    80.54 Bohr mag/cell
     absolute magnetization    =    81.90 Bohr mag/cell

     iteration # 48     ecut=    50.00 Ry     beta= 0.10
     Davidson diagonalization with overlap
     ethr =  7.77E-07,  avg # of iterations =  1.0

     negative rho (up, down):  3.444E-04 2.229E-04
 
     Adding external electric field

     Computed dipole along edir(3) : 
        Dipole               -0.3429 Ry au,         -0.8716 Debye
        Dipole field         -0.0002 Ry au, 
 
        Potential amp.        0.0230 Ry
        Total length         54.2615 bohr
 
 
     Adding external electric field

     Computed dipole along edir(3) : 
        Dipole               -0.3429 Ry au,         -0.8716 Debye
        Dipole field         -0.0002 Ry au, 
 
        Potential amp.        0.0230 Ry
        Total length         54.2615 bohr
 

     total cpu time spent up to now is      681.5 secs

     total energy              =   -7398.03569310 Ry
     estimated scf accuracy    <       0.00774276 Ry

     total magnetization       =    80.53 Bohr mag/cell
     absolute magnetization    =    81.90 Bohr mag/cell

     iteration # 49     ecut=    50.00 Ry     beta= 0.10
     Davidson diagonalization with overlap
     ethr =  7.18E-07,  avg # of iterations =  2.0

     negative rho (up, down):  4.495E-04 4.575E-04
 
     Adding external electric field

     Computed dipole along edir(3) : 
        Dipole               -0.2509 Ry au,         -0.6377 Debye
        Dipole field         -0.0002 Ry au, 
 
        Potential amp.        0.0168 Ry
        Total length         54.2615 bohr
 
 
     Adding external electric field

     Computed dipole along edir(3) : 
        Dipole               -0.2509 Ry au,         -0.6377 Debye
        Dipole field         -0.0002 Ry au, 
 
        Potential amp.        0.0168 Ry
        Total length         54.2615 bohr
 

     total cpu time spent up to now is      694.5 secs

     total energy              =   -7398.03576119 Ry
     estimated scf accuracy    <       0.00632653 Ry

     total magnetization       =    80.51 Bohr mag/cell
     absolute magnetization    =    81.90 Bohr mag/cell

     iteration # 50     ecut=    50.00 Ry     beta= 0.10
     Davidson diagonalization with overlap
     ethr =  5.87E-07,  avg # of iterations = 12.0

     negative rho (up, down):  3.838E-04 4.178E-04
 
     Adding external electric field

     Computed dipole along edir(3) : 
        Dipole               -0.2256 Ry au,         -0.5735 Debye
        Dipole field         -0.0001 Ry au, 
 
        Potential amp.        0.0151 Ry
        Total length         54.2615 bohr
 
 
     Adding external electric field

     Computed dipole along edir(3) : 
        Dipole               -0.2256 Ry au,         -0.5735 Debye
        Dipole field         -0.0001 Ry au, 
 
        Potential amp.        0.0151 Ry
        Total length         54.2615 bohr
 

     total cpu time spent up to now is      713.8 secs

     total energy              =   -7398.03590720 Ry
     estimated scf accuracy    <       0.00323494 Ry

     total magnetization       =    80.50 Bohr mag/cell
     absolute magnetization    =    81.98 Bohr mag/cell

     iteration # 51     ecut=    50.00 Ry     beta= 0.10
     Davidson diagonalization with overlap
     ethr =  3.00E-07,  avg # of iterations =  2.0

     negative rho (up, down):  5.591E-04 5.799E-04
 
     Adding external electric field

     Computed dipole along edir(3) : 
        Dipole               -0.1772 Ry au,         -0.4505 Debye
        Dipole field         -0.0001 Ry au, 
 
        Potential amp.        0.0119 Ry
        Total length         54.2615 bohr
 
 
     Adding external electric field

     Computed dipole along edir(3) : 
        Dipole               -0.1772 Ry au,         -0.4505 Debye
        Dipole field         -0.0001 Ry au, 
 
        Potential amp.        0.0119 Ry
        Total length         54.2615 bohr
 

     total cpu time spent up to now is      726.9 secs

     total energy              =   -7398.03585612 Ry
     estimated scf accuracy    <       0.00251750 Ry

     total magnetization       =    80.50 Bohr mag/cell
     absolute magnetization    =    82.01 Bohr mag/cell

     iteration # 52     ecut=    50.00 Ry     beta= 0.10
     Davidson diagonalization with overlap
     ethr =  2.34E-07,  avg # of iterations =  5.0

     negative rho (up, down):  2.120E-04 1.497E-04
 
     Adding external electric field

     Computed dipole along edir(3) : 
        Dipole               -0.1836 Ry au,         -0.4666 Debye
        Dipole field         -0.0001 Ry au, 
 
        Potential amp.        0.0123 Ry
        Total length         54.2615 bohr
 
 
     Adding external electric field

     Computed dipole along edir(3) : 
        Dipole               -0.1836 Ry au,         -0.4666 Debye
        Dipole field         -0.0001 Ry au, 
 
        Potential amp.        0.0123 Ry
        Total length         54.2615 bohr
 

     total cpu time spent up to now is      741.9 secs

     total energy              =   -7398.03596390 Ry
     estimated scf accuracy    <       0.00135869 Ry

     total magnetization       =    80.49 Bohr mag/cell
     absolute magnetization    =    82.04 Bohr mag/cell

     iteration # 53     ecut=    50.00 Ry     beta= 0.10
     Davidson diagonalization with overlap
     ethr =  1.26E-07,  avg # of iterations =  2.0

     negative rho (up, down):  3.552E-04 2.372E-04
 
     Adding external electric field

     Computed dipole along edir(3) : 
        Dipole               -0.1780 Ry au,         -0.4525 Debye
        Dipole field         -0.0001 Ry au, 
 
        Potential amp.        0.0119 Ry
        Total length         54.2615 bohr
 
 
     Adding external electric field

     Computed dipole along edir(3) : 
        Dipole               -0.1780 Ry au,         -0.4525 Debye
        Dipole field         -0.0001 Ry au, 
 
        Potential amp.        0.0119 Ry
        Total length         54.2615 bohr
 

     total cpu time spent up to now is      754.8 secs

     total energy              =   -7398.03598209 Ry
     estimated scf accuracy    <       0.00089262 Ry

     total magnetization       =    80.49 Bohr mag/cell
     absolute magnetization    =    82.08 Bohr mag/cell

     iteration # 54     ecut=    50.00 Ry     beta= 0.10
     Davidson diagonalization with overlap
     ethr =  8.28E-08,  avg # of iterations =  2.0

     negative rho (up, down):  2.383E-04 1.130E-04
 
     Adding external electric field

     Computed dipole along edir(3) : 
        Dipole               -0.1814 Ry au,         -0.4612 Debye
        Dipole field         -0.0001 Ry au, 
 
        Potential amp.        0.0122 Ry
        Total length         54.2615 bohr
 
 
     Adding external electric field

     Computed dipole along edir(3) : 
        Dipole               -0.1814 Ry au,         -0.4612 Debye
        Dipole field         -0.0001 Ry au, 
 
        Potential amp.        0.0122 Ry
        Total length         54.2615 bohr
 

     total cpu time spent up to now is      768.9 secs

     total energy              =   -7398.03596651 Ry
     estimated scf accuracy    <       0.00076722 Ry

     total magnetization       =    80.49 Bohr mag/cell
     absolute magnetization    =    82.08 Bohr mag/cell

     iteration # 55     ecut=    50.00 Ry     beta= 0.10
     Davidson diagonalization with overlap
     ethr =  7.12E-08,  avg # of iterations =  2.0

     negative rho (up, down):  3.858E-04 2.523E-04
 
     Adding external electric field

     Computed dipole along edir(3) : 
        Dipole               -0.1767 Ry au,         -0.4491 Debye
        Dipole field         -0.0001 Ry au, 
 
        Potential amp.        0.0119 Ry
        Total length         54.2615 bohr
 
 
     Adding external electric field

     Computed dipole along edir(3) : 
        Dipole               -0.1767 Ry au,         -0.4491 Debye
        Dipole field         -0.0001 Ry au, 
 
        Potential amp.        0.0119 Ry
        Total length         54.2615 bohr
 

     total cpu time spent up to now is      782.2 secs

     total energy              =   -7398.03600558 Ry
     estimated scf accuracy    <       0.00046869 Ry

     total magnetization       =    80.48 Bohr mag/cell
     absolute magnetization    =    82.07 Bohr mag/cell

     iteration # 56     ecut=    50.00 Ry     beta= 0.10
     Davidson diagonalization with overlap
     ethr =  4.35E-08,  avg # of iterations =  2.0

     negative rho (up, down):  2.095E-04 1.104E-04
 
     Adding external electric field

     Computed dipole along edir(3) : 
        Dipole               -0.1749 Ry au,         -0.4446 Debye
        Dipole field         -0.0001 Ry au, 
 
        Potential amp.        0.0117 Ry
        Total length         54.2615 bohr
 
 
     Adding external electric field

     Computed dipole along edir(3) : 
        Dipole               -0.1749 Ry au,         -0.4446 Debye
        Dipole field         -0.0001 Ry au, 
 
        Potential amp.        0.0117 Ry
        Total length         54.2615 bohr
 

     total cpu time spent up to now is      794.7 secs

     total energy              =   -7398.03608383 Ry
     estimated scf accuracy    <       0.00033018 Ry

     total magnetization       =    80.47 Bohr mag/cell
     absolute magnetization    =    82.06 Bohr mag/cell

     iteration # 57     ecut=    50.00 Ry     beta= 0.10
     Davidson diagonalization with overlap
     ethr =  3.06E-08,  avg # of iterations =  2.0

     negative rho (up, down):  2.165E-04 1.072E-04
 
     Adding external electric field

     Computed dipole along edir(3) : 
        Dipole               -0.1729 Ry au,         -0.4394 Debye
        Dipole field         -0.0001 Ry au, 
 
        Potential amp.        0.0116 Ry
        Total length         54.2615 bohr
 
 
     Adding external electric field

     Computed dipole along edir(3) : 
        Dipole               -0.1729 Ry au,         -0.4394 Debye
        Dipole field         -0.0001 Ry au, 
 
        Potential amp.        0.0116 Ry
        Total length         54.2615 bohr
 

     total cpu time spent up to now is      807.0 secs

     total energy              =   -7398.03612790 Ry
     estimated scf accuracy    <       0.00015941 Ry

     total magnetization       =    80.46 Bohr mag/cell
     absolute magnetization    =    82.04 Bohr mag/cell

     iteration # 58     ecut=    50.00 Ry     beta= 0.10
     Davidson diagonalization with overlap
     ethr =  1.48E-08,  avg # of iterations =  3.5

     negative rho (up, down):  7.879E-04 5.478E-04
 
     Adding external electric field

     Computed dipole along edir(3) : 
        Dipole               -0.1574 Ry au,         -0.4000 Debye
        Dipole field         -0.0001 Ry au, 
 
        Potential amp.        0.0106 Ry
[...]
    -5.9968  -5.9699  -5.9587  -5.9256  -5.9119  -5.8683  -5.8601  -5.8510
    -5.8141  -5.8072  -5.7526  -5.7372  -5.7260  -5.7093  -5.6957  -5.6811
    -5.6723  -5.6674  -5.6355  -5.6192  -5.6121  -5.5795  -5.5328  -5.5070
    -5.4720  -5.4345  -5.4081  -5.4006  -5.3875  -5.3511  -5.3079  -5.2868
    -5.2397  -5.2138  -5.1878  -5.1721  -5.1712  -5.0826  -5.0800  -5.0568
    -4.9848  -4.9767  -4.9375  -4.9132  -4.8886  -4.8766  -4.8589  -4.7968
    -4.7799  -4.7617  -4.7517  -4.7340  -4.6435  -4.6286  -4.5735  -4.5504
    -4.5192  -4.5183  -4.5006  -4.4599  -4.4085  -4.3930  -4.3797  -4.3703
    -4.3586  -4.2965  -4.2941  -4.2291  -4.1734  -4.1430  -4.1065  -4.0947
    -4.0782  -4.0467  -4.0354  -3.9954  -3.9633  -3.9546  -3.9131  -3.8981
    -3.8770  -3.8398  -3.8248  -3.8080  -3.7960  -3.7621  -3.7483  -3.7317
    -3.7000  -3.6854  -3.6652  -3.6441  -3.6421  -3.6358  -3.5932  -3.5822
    -3.5443  -3.5263  -3.5113  -3.4949  -3.4880  -3.4759  -3.4541  -3.4417
    -3.4294  -3.3988  -3.3854  -3.3481  -3.3377  -3.3147  -3.2638  -3.2516
    -3.2333  -3.2159  -3.2143  -3.1837  -3.1776  -3.1665  -3.1498  -3.1427
    -3.1288  -3.0780  -3.0373  -3.0316  -3.0050  -3.0010  -2.9681  -2.9399
    -2.9183  -2.9174  -2.9004  -2.8720  -2.8576  -2.8366  -2.8172  -2.8092
    -2.7981  -2.7863  -2.7797  -2.7676  -2.7452  -2.7376  -2.7249  -2.6995
    -2.6813  -2.6664  -2.6622  -2.6507  -2.6242  -2.6112  -2.5923  -2.5798
    -2.5512  -2.5362  -2.5273  -2.5181  -2.4943  -2.4796  -2.4680  -2.4371
    -2.4129  -2.3980  -2.3932  -2.3702  -2.3568  -2.3131  -2.2938  -2.2848
    -2.2639  -2.2411  -2.2297  -2.2092  -2.1763  -2.1578  -2.1268  -2.1215
    -2.1111  -2.0865  -2.0781  -2.0708  -2.0688  -2.0375  -2.0058  -1.9895
    -1.9755  -1.9634  -1.9563  -1.9408  -1.9270  -1.9196  -1.8913  -1.8573
    -1.8423  -1.8192  -1.7883  -1.7648  -1.7367  -1.7242  -1.6990  -1.6953
    -1.6573  -1.6534  -1.6476  -1.6296  -1.6146  -1.6075  -1.5861  -1.5480
    -1.5357  -1.5141  -1.4728  -1.4664  -1.4431  -1.4341  -1.4201  -1.4127
    -1.3881  -1.3831  -1.3412  -1.3202  -1.2982  -1.2400  -1.2348  -1.2046
    -1.1496  -1.1024  -1.0749  -1.0539  -1.0150  -0.9279  -0.9062  -0.8777
    -0.7688  -0.6721  -0.6151  -0.5964  -0.4647  -0.3682  -0.3149  -0.2604
     0.1026   0.1251   0.1537   0.1914   0.2250   0.2422   0.2588   0.2708
     0.2791   0.2956   0.2993   0.3017   0.3089   0.3299   0.3425   0.3481
     0.3539   0.3560   0.3730   0.3787   0.3830   0.3934   0.3956   0.4068
     0.4109   0.4135   0.4230   0.4364   0.4436   0.4514   0.4562   0.4601
     0.4635   0.4695   0.4726   0.4909   0.4923   0.4984   0.5108   0.5131
     0.5199   0.5423   0.5445   0.5486   0.5578   0.5633   0.5661   0.5707
     0.5761   0.5870   0.5907   0.5933   0.6074   0.6140   0.6220   0.6342
     0.6375   0.6464   0.6534   0.6651   0.6734   0.6742   0.6860   0.6904
     0.6910   0.7000   0.7095   0.7132   0.7185   0.7341   0.7387   0.7441
     0.7472   0.7535   0.7676   0.7787   0.7855   0.7965   0.8060   0.8198
     0.8265   0.8356   0.8428   0.8602   0.8629   0.8702   0.8784   0.8804
     0.8959   0.9126   0.9176   0.9250   0.9339   0.9705   0.9850   1.0408
     1.0703   1.1340   1.6034   1.6567   1.6994   1.7106   1.7126   1.7400
     1.7698   1.8332   1.8688   1.8722   1.8943   1.9300   1.9347   1.9647
     1.9768   1.9896   2.0150   2.0373   2.0501   2.0708   2.0827   2.1093
     2.1417   2.1545   2.1782   2.1885   2.1961   2.2148   2.2235   2.2430
     2.2504   2.2537   2.2668   2.2801   2.2864   2.2956   2.3056   2.3222
     2.3365   2.3421   2.3641   2.3857   2.4018   2.4180   2.4320   2.4456
     2.4544   2.4727   2.4972   2.5038   2.5122   2.5307   2.5531   2.5667
     2.5787   2.5854   2.6096   2.6368   2.6592   2.6721   2.7341   2.7600
     2.7818   2.8322   2.8413   2.9034   2.9160   3.5882   3.5890   3.6634
     3.7594   3.8241   3.8412   3.8561   3.8604   3.9981   4.0638   4.5891
     4.6445   4.7061   4.7731   4.9239   4.9474   5.0179   5.4134   6.2948
     6.3597   6.5414   6.5881   6.7772   6.8141   6.8419   6.8785   6.9235
     7.0133   7.0657   7.0963   7.1190   7.3192   7.3633   7.3766   7.4135
     7.4981   7.5538   7.6559   7.6750   7.6889   7.7533   7.7867   7.8083
     7.8615   7.9195   7.9497   7.9787   8.0201   8.0304   8.0599   8.0688
     8.0919   8.1157   8.1594   8.2001   8.2335   8.2635   8.2989   8.3266
     8.3786   8.4091   8.4166   8.4413   8.4603   8.4774   8.4993   8.5104
     8.5323   8.5566   8.5829   8.5960   8.6197   8.6421   8.6787   8.6891
     8.7204   8.7651   8.7922   8.7958   8.8211   8.8576   8.8628

     the Fermi energy is     1.5638 ev

!    total energy              =   -7398.03619311 Ry
     estimated scf accuracy    <       0.00000053 Ry
     smearing contrib. (-TS)   =      -0.01405373 Ry
     internal energy E=F+TS    =   -7398.02213939 Ry

     The total energy is F=E-TS. E is the sum of the following terms:
     one-electron contribution =  -91685.04806151 Ry
     hartree contribution      =   46490.46494519 Ry
     xc contribution           =   -2260.27281493 Ry
     ewald contribution        =   40058.66731216 Ry
     Dispersion Correction     =      -1.83353285 Ry
     electric field correction =       0.00001255 Ry

     total magnetization       =    80.47 Bohr mag/cell
     absolute magnetization    =    82.00 Bohr mag/cell

     convergence has been achieved in  66 iterations

     negative rho (up, down):  9.310E-04 5.480E-04

     Forces acting on atoms (cartesian axes, Ry/au):

     atom    1 type  2   force =     0.03106182   -0.01970918   -0.01628811
     atom    2 type  1   force =     0.00208950   -0.00393941   -0.01042771
     atom    3 type  1   force =    -0.02157825   -0.02075636    0.01814213
     atom    4 type  1   force =     0.00139644    0.01016345   -0.01238453
     atom    5 type  1   force =    -0.00468420    0.02905148   -0.01833414
     atom    6 type  1   force =     0.00588726    0.00050274   -0.00037436
     atom    7 type  1   force =     0.02691797   -0.02108600    0.01735657
     atom    8 type  1   force =    -0.00958971   -0.00307273   -0.01071046
     atom    9 type  1   force =    -0.03003756   -0.01825117    0.01605981
     atom   10 type  1   force =    -0.00110671    0.00804317   -0.01268641
     atom   11 type  1   force =    -0.01331929    0.03039794   -0.02055660
     atom   12 type  1   force =     0.00128407    0.00664955   -0.00402258
     atom   13 type  3   force =     0.05101774   -0.11001411    0.00916387
     atom   14 type  3   force =    -0.02903029    0.03592564   -0.06518751
     atom   15 type  3   force =    -0.00920725    0.17549171   -0.08317836
     atom   16 type  3   force =     0.06069693    0.00054322   -0.00438382
     atom   17 type  4   force =     0.01518303   -0.02185589   -0.00979884
     atom   18 type  4   force =    -0.00540421    0.00482017    0.02965953
     atom   19 type  4   force =     0.00214043    0.00099694    0.03073358
     atom   20 type  4   force =     0.00513337    0.00187666    0.00236359
     atom   21 type  4   force =     0.00059102   -0.01199421   -0.00003643
     atom   22 type  4   force =    -0.00093986    0.00387385    0.03249151
     atom   23 type  4   force =    -0.00607418    0.01467039    0.02742817
     atom   24 type  4   force =     0.00864372    0.00325063   -0.00431911
     atom   25 type  4   force =     0.00648447   -0.00325690    0.00157379
     atom   26 type  4   force =     0.03116923   -0.17835164    0.00722953
     atom   27 type  4   force =     0.00287772    0.00099843    0.00170589
     atom   28 type  4   force =    -0.01704023    0.00168293    0.00474428
     atom   29 type  4   force =     0.09136705    0.00313873    0.00804466
     atom   30 type  4   force =     0.01306836   -0.02515779   -0.00091436
     atom   31 type  4   force =    -0.03845292    0.13334061   -0.00017324
     atom   32 type  4   force =    -0.00552888   -0.01187187    0.00653101
     atom   33 type  3   force =     0.04157394   -0.11919942    0.00962238
     atom   34 type  3   force =    -0.10168134    0.04258476   -0.07575055
     atom   35 type  3   force =    -0.01351081    0.16598933   -0.08811263
     atom   36 type  3   force =    -0.00358322    0.00254456   -0.01042836
     atom   37 type  4   force =     0.00822934   -0.01469653   -0.00238741
     atom   38 type  4   force =    -0.00586706   -0.00170569    0.02741910
     atom   39 type  4   force =    -0.00467221    0.00724505    0.03216638
     atom   40 type  4   force =     0.00129641    0.00003628    0.00245642
     atom   41 type  4   force =    -0.00149199   -0.00961510   -0.00152661
     atom   42 type  4   force =     0.00540227   -0.00051691    0.02931815
     atom   43 type  4   force =    -0.01043818    0.01351379    0.02702122
     atom   44 type  4   force =     0.00443521    0.00350624   -0.00450111
     atom   45 type  4   force =    -0.00031060   -0.00062151    0.00203065
     atom   46 type  4   force =     0.02816007   -0.17059999    0.00538959
     atom   47 type  4   force =    -0.06553005   -0.00073325   -0.00309220
     atom   48 type  4   force =    -0.01989114    0.00391404    0.00528912
     atom   49 type  4   force =     0.01407080    0.00085443    0.00203508
     atom   50 type  4   force =     0.00793675   -0.02439848   -0.00017252
     atom   51 type  4   force =    -0.03976366    0.13335505   -0.00133909
     atom   52 type  4   force =    -0.00778630   -0.01066688    0.00877465
     atom   53 type  2   force =     0.00630304   -0.00729687    0.00586204
     atom   54 type  1   force =     0.00052505   -0.00455645    0.00781412
     atom   55 type  1   force =     0.00507345   -0.00629082    0.00675660
     atom   56 type  1   force =     0.00061847    0.00586333    0.00276175
     atom   57 type  1   force =     0.00099672    0.02201472   -0.01406074
     atom   58 type  1   force =     0.00147300   -0.00339602    0.00237111
     atom   59 type  1   force =     0.00261296   -0.01025336    0.00382393
     atom   60 type  1   force =    -0.00666075   -0.00286125    0.00349355
     atom   61 type  1   force =    -0.00484409   -0.00506699    0.00667505
     atom   62 type  1   force =    -0.00356787    0.00601651   -0.00102766
     atom   63 type  1   force =    -0.01117918    0.02509189   -0.01767699
     atom   64 type  1   force =    -0.00216419    0.00125112   -0.00084422
     atom   65 type  3   force =     0.04516785   -0.11955127    0.01962733
     atom   66 type  3   force =     0.00160316   -0.00445841    0.00058447
     atom   67 type  3   force =    -0.04074370    0.12370566   -0.00683704
     atom   68 type  3   force =     0.06329430   -0.00208840    0.00754552
     atom   69 type  4   force =     0.01274705   -0.01724349   -0.00283737
     atom   70 type  4   force =    -0.00166572    0.00343239   -0.00057628
     atom   71 type  4   force =    -0.00187388    0.00334678    0.00519904
     atom   72 type  4   force =     0.00461888    0.00163515    0.00078951
     atom   73 type  4   force =     0.00875350   -0.01687091    0.01177944
     atom   74 type  4   force =    -0.00435013   -0.00341340    0.00942367
     atom   75 type  4   force =     0.00347911    0.00860857    0.00461857
     atom   76 type  4   force =     0.00590814    0.00081307   -0.00215960
     atom   77 type  4   force =     0.00607928   -0.00188671   -0.00112283
     atom   78 type  4   force =     0.04529389   -0.14081872    0.00577924
     atom   79 type  4   force =     0.00030243    0.00035566   -0.00076949
     atom   80 type  4   force =     0.00166092    0.00189487    0.00217936
     atom   81 type  4   force =     0.06730337    0.00014009    0.00648588
     atom   82 type  4   force =     0.00024769    0.00250867    0.00131707
     atom   83 type  4   force =    -0.03900158    0.13788555   -0.00275806
     atom   84 type  4   force =    -0.00114337   -0.01069056    0.00370421
     atom   85 type  3   force =     0.03949617   -0.12370707    0.02500759
     atom   86 type  3   force =    -0.06327811   -0.00171799   -0.00371841
     atom   87 type  3   force =    -0.04611705    0.12085076   -0.01042150
     atom   88 type  3   force =    -0.00011780   -0.00162719    0.00280966
     atom   89 type  4   force =     0.00863693   -0.01526983   -0.00484666
     atom   90 type  4   force =    -0.00449918    0.00097895   -0.00102698
     atom   91 type  4   force =    -0.00953476    0.00828678    0.00536540
     atom   92 type  4   force =     0.00038620    0.00002527    0.00003361
     atom   93 type  4   force =     0.00122060   -0.01177083    0.00072409
     atom   94 type  4   force =    -0.00903292   -0.00297376    0.00836785
     atom   95 type  4   force =    -0.00034544    0.00772908    0.00303999
     atom   96 type  4   force =    -0.00085473    0.00069015    0.00008738
     atom   97 type  4   force =    -0.00104940    0.00188276   -0.00019148
     atom   98 type  4   force =     0.04051323   -0.13910994    0.00484177
     atom   99 type  4   force =    -0.06731063   -0.00086988   -0.00605786
     atom  100 type  4   force =    -0.00038403    0.00280119    0.00289980
     atom  101 type  4   force =    -0.00132941    0.00011560    0.00144474
     atom  102 type  4   force =    -0.00680445    0.00558434    0.00156116
     atom  103 type  4   force =    -0.04032175    0.13539813   -0.00433156
     atom  104 type  4   force =    -0.00607104   -0.01006437    0.00498754
     atom  105 type  2   force =    -0.00031787    0.00006287   -0.00037250
     atom  106 type  1   force =     0.00027354   -0.00046425   -0.00022731
     atom  107 type  1   force =     0.00054644    0.00019150    0.00030846
     atom  108 type  1   force =    -0.00086296   -0.00007992   -0.00003016
     atom  109 type  1   force =     0.00050739   -0.00081755   -0.00003088
     atom  110 type  1   force =    -0.00050331    0.00002748   -0.00021957
     atom  111 type  1   force =     0.00002960   -0.00050545   -0.00009623
     atom  112 type  1   force =     0.00046621    0.00027658   -0.00008490
     atom  113 type  1   force =    -0.00001917   -0.00009474   -0.00048280
     atom  114 type  1   force =    -0.00010425    0.00028534    0.00053175
     atom  115 type  1   force =    -0.00013944    0.00018243    0.00010211
     atom  116 type  1   force =    -0.00036300    0.00012365   -0.00007928
     atom  117 type  3   force =    -0.00084872   -0.00089306    0.00021833
     atom  118 type  3   force =    -0.00016277   -0.00002478    0.00017383
     atom  119 type  3   force =     0.00000016    0.00003754   -0.00063281
     atom  120 type  3   force =     0.00011080   -0.00015963   -0.00006276
     atom  121 type  4   force =     0.00044925    0.00029148    0.00078377
     atom  122 type  4   force =    -0.00021222    0.00019146    0.00013758
     atom  123 type  4   force =     0.00007008   -0.00005213    0.00001561
     atom  124 type  4   force =     0.00042947   -0.00041059    0.00006931
     atom  125 type  4   force =     0.00063122    0.00049773   -0.00061303
     atom  126 type  4   force =    -0.00010621   -0.00019391   -0.00018985
     atom  127 type  4   force =     0.00050389   -0.00025915   -0.00009308
     atom  128 type  4   force =    -0.00003227    0.00054101   -0.00016895
     atom  129 type  4   force =     0.00036338   -0.00021886    0.00023554
     atom  130 type  4   force =    -0.00009759   -0.00013339    0.00021461
     atom  131 type  4   force =    -0.00057254   -0.00041100    0.00005577
     atom  132 type  4   force =     0.00003869   -0.00009925   -0.00029419
     atom  133 type  4   force =    -0.00002662    0.00015844   -0.00024648
     atom  134 type  4   force =    -0.00000301    0.00019289   -0.00033009
     atom  135 type  4   force =     0.00040897    0.00078942   -0.00033042
     atom  136 type  4   force =    -0.00028262   -0.00000788   -0.00005081
     atom  137 type  3   force =    -0.00048874   -0.00006555    0.00014818
     atom  138 type  3   force =     0.00014364    0.00003188    0.00000270
     atom  139 type  3   force =    -0.00016992   -0.00032045    0.00005291
     atom  140 type  3   force =     0.00029066    0.00012275    0.00026467
     atom  141 type  4   force =     0.00010301   -0.00015695    0.00008883
     atom  142 type  4   force =     0.00011873   -0.00003896    0.00014597
     atom  143 type  4   force =    -0.00007129   -0.00003773   -0.00014094
     atom  144 type  4   force =    -0.00039652   -0.00059315   -0.00059583
     atom  145 type  4   force =    -0.00014109   -0.00018298   -0.00060734
     atom  146 type  4   force =    -0.00020708    0.00009949   -0.00011972
     atom  147 type  4   force =     0.00027770   -0.00013310   -0.00006675
     atom  148 type  4   force =    -0.00080283   -0.00051661   -0.00024469
     atom  149 type  4   force =    -0.00005010    0.00018025    0.00004407
     atom  150 type  4   force =    -0.00010955   -0.00029340   -0.00023359
     atom  151 type  4   force =    -0.00023763   -0.00001798    0.00037523
     atom  152 type  4   force =    -0.00019860   -0.00035958   -0.00020384
     atom  153 type  4   force =    -0.00007762    0.00022489   -0.00003775
     atom  154 type  4   force =     0.00007392    0.00019207   -0.00002057
     atom  155 type  4   force =    -0.00010851    0.00010567    0.00015474
     atom  156 type  4   force =     0.00011459    0.00022604   -0.00000017
     atom  157 type  4   force =    -0.00305695   -0.00119992   -0.00112153
     atom  158 type  5   force =     0.00315462    0.00176579    0.00174399

     Total force =     0.664854     Total SCF correction =     0.002901
 
     init_run     :      7.32s CPU      8.05s WALL (       1 calls)
     electrons    :    862.58s CPU    909.18s WALL (       1 calls)
     forces       :      3.99s CPU      4.42s WALL (       1 calls)
     force_london :      0.11s CPU      0.11s WALL (       1 calls)

     Called by init_run:
     wfcinit      :      4.39s CPU      4.59s WALL (       1 calls)
     potinit      :      0.62s CPU      0.81s WALL (       1 calls)
     hinit0       :      1.10s CPU      1.22s WALL (       1 calls)

     Called by electrons:
     c_bands      :    683.21s CPU    707.82s WALL (      66 calls)
     sum_band     :    115.91s CPU    128.04s WALL (      66 calls)
     v_of_rho     :     12.28s CPU     13.23s WALL (      67 calls)
     newd         :     33.23s CPU     42.28s WALL (      67 calls)
     mix_rho      :     17.57s CPU     17.69s WALL (      66 calls)
     energy_londo :      0.08s CPU      0.08s WALL (       1 calls)

     Called by c_bands:
     init_us_2    :      2.35s CPU      2.39s WALL (     268 calls)
     init_us_2:cp :      2.35s CPU      2.39s WALL (     268 calls)
     regterg      :    668.38s CPU    692.74s WALL (     132 calls)

     Called by *egterg:
     rdiaghg      :    200.63s CPU    211.63s WALL (     549 calls)
     h_psi        :    258.20s CPU    264.66s WALL (     551 calls)
     s_psi        :     55.41s CPU     55.44s WALL (     551 calls)
     g_psi        :      0.37s CPU      0.37s WALL (     417 calls)

     Called by h_psi:
     h_psi:calbec :     67.35s CPU     72.61s WALL (     551 calls)
     vloc_psi     :    134.08s CPU    134.69s WALL (     551 calls)
     add_vuspsi   :     56.01s CPU     56.59s WALL (     551 calls)

     General routines
     calbec       :    100.87s CPU    108.88s WALL (     691 calls)
     fft          :     10.83s CPU     12.00s WALL (    1219 calls)
     ffts         :     10.42s CPU     10.47s WALL (    8195 calls)
     fftw         :    150.73s CPU    151.40s WALL (  221636 calls)
     interpolate  :      1.02s CPU      1.11s WALL (     134 calls)
 
     Parallel routines
 
     PWSCF        :  14m35.89s CPU  15m23.91s WALL

 
   This run was terminated on:  22:30:14  19Nov2025            

=------------------------------------------------------------------------------=
   JOB DONE.
=------------------------------------------------------------------------------=
