
     Program PWSCF v.7.2 starts on 19Nov2025 at 20:33:40 

     This program is part of the open-source Quantum ESPRESSO suite
     for quantum simulation of materials; please cite
         "P. Giannozzi et al., J. Phys.:Condens. Matter 21 395502 (2009);
         "P. Giannozzi et al., J. Phys.:Condens. Matter 29 465901 (2017);
         "P. Giannozzi et al., J. Chem. Phys. 152 154105 (2020);
          URL http://www.quantum-espresso.org", 
     in publications or presentations arising from this work. More details at
     http://www.quantum-espresso.org/quote

     Parallel version (MPI), running on    64 processors

     MPI processes distributed on     4 nodes
     460160 MiB available memory on the printing compute node when the environment starts
 
     Reading input from PWINPUT_atm157_zm

     Current dimensions of program PWSCF are:
     Max number of different atomic species (ntypx) = 10
     Max number of k-points (npk) =  40000
     Max angular momentum in pseudopotentials (lmaxx) =  4
     Presently no symmetry can be used with electric field

     file Ni.pbe-n-rrkjus_psl.1.0.0.UPF: wavefunction(s)  3D renormalized
     file Mn.pbe-spn-rrkjus_psl.0.3.1.UPF: wavefunction(s)  3D renormalized
     file O.pbe-rrkjus.UPF: wavefunction(s)  2S renormalized
     file H.pbe-rrkjus.UPF: wavefunction(s)  1S renormalized

     gamma-point specific algorithms are used
 
     R & G space division:  proc/nbgrp/npool/nimage =      64
     Subspace diagonalization in iterative solution of the eigenvalue problem:
     one sub-group per band group will be used
     custom distributed-memory algorithm (size of sub-group:  6*  6 procs)

 
     Parallelization info
     --------------------
     sticks:   dense  smooth     PW     G-vecs:    dense   smooth      PW
     Min         208      82     20                59912    15118    1876
     Max         210      84     22                59974    15196    1926
     Sum       13399    5355   1345              3836275   970529  121367
 
     Using Slab Decomposition
 


     bravais-lattice index     =            0
     lattice parameter (alat)  =      17.7004  a.u.
     unit-cell volume          =   20319.7251 (a.u.)^3
     number of atoms/cell      =          158
     number of atomic types    =            5
     number of electrons       =      1078.00
     number of Kohn-Sham states=          647
     kinetic-energy cutoff     =      50.0000  Ry
     charge density cutoff     =     500.0000  Ry
     scf convergence threshold =      1.0E-06
     mixing beta               =       0.1000
     number of iterations used =            8  local-TF  mixing
     Exchange-correlation=  SLA  PW   PBE  PBE
                           (   1   4   3   4   0   0   0)

     celldm(1)=  17.700384  celldm(2)=   0.000000  celldm(3)=   0.000000
     celldm(4)=   0.000000  celldm(5)=   0.000000  celldm(6)=   0.000000

     crystal axes: (cart. coord. in units of alat)
               a(1) = (   1.000000   0.000000   0.000000 )  
               a(2) = (   0.000000   1.075730   0.000000 )  
               a(3) = (   0.000000   0.000000   3.406172 )  

     reciprocal axes: (cart. coord. in units 2 pi/alat)
               b(1) = (  1.000000  0.000000  0.000000 )  
               b(2) = (  0.000000  0.929602  0.000000 )  
               b(3) = (  0.000000  0.000000  0.293585 )  


     PseudoPot. # 1 for Ni read from file:
     ~/PSEUDO/Ni.pbe-n-rrkjus_psl.1.0.0.UPF
     MD5 check sum: Not computed, couldn't open file
     Pseudo is Ultrasoft + core correction, Zval = 10.0
     Generated using "atomic" code by A. Dal Corso  v.5.1.2
     Using radial grid of 1195 points,  6 beta functions with: 
                l(1) =   0
                l(2) =   0
                l(3) =   1
                l(4) =   1
                l(5) =   2
                l(6) =   2
     Q(r) pseudized with 0 coefficients 


     PseudoPot. # 2 for Mn read from file:
     ~/PSEUDO/Mn.pbe-spn-rrkjus_psl.0.3.1.UPF
     MD5 check sum: Not computed, couldn't open file
     Pseudo is Ultrasoft + core correction, Zval = 15.0
     Generated using &quot;atomic&quot; code by A. Dal Corso  v.6.2.2
     Using radial grid of 1187 points,  6 beta functions with: 
                l(1) =   0
                l(2) =   0
                l(3) =   1
                l(4) =   1
                l(5) =   2
                l(6) =   2
     Q(r) pseudized with 0 coefficients 


     PseudoPot. # 3 for P  read from file:
     ~/PSEUDO/P.pbe-n-rrkjus_psl.1.0.0.UPF
     MD5 check sum: Not computed, couldn't open file
     Pseudo is Ultrasoft + core correction, Zval =  5.0
     Generated using "atomic" code by A. Dal Corso  v.5.1
     Using radial grid of 1147 points,  6 beta functions with: 
                l(1) =   0
                l(2) =   0
                l(3) =   1
                l(4) =   1
                l(5) =   2
                l(6) =   2
     Q(r) pseudized with 0 coefficients 


     PseudoPot. # 4 for O  read from file:
     ~/PSEUDO/O.pbe-rrkjus.UPF
     MD5 check sum: Not computed, couldn't open file
     Pseudo is Ultrasoft, Zval =  6.0
     Generated by new atomic code, or converted to UPF format
     Using radial grid of 1269 points,  4 beta functions with: 
                l(1) =   0
                l(2) =   0
                l(3) =   1
                l(4) =   1
     Q(r) pseudized with 0 coefficients 


     PseudoPot. # 5 for H  read from file:
     ~/PSEUDO/H.pbe-rrkjus.UPF
     MD5 check sum: Not computed, couldn't open file
     Pseudo is Ultrasoft, Zval =  1.0
     Generated by new atomic code, or converted to UPF format
     Using radial grid of 1061 points,  2 beta functions with: 
                l(1) =   0
                l(2) =   0
     Q(r) pseudized with 0 coefficients 


     atomic species   valence    mass     pseudopotential
     Ni               10.00    58.69300     Ni( 1.00)
     Mn               15.00    54.93800     Mn( 1.00)
     P                 5.00    30.97300     P ( 1.00)
     O                 6.00    15.99900     O ( 1.00)
     H                 1.00     1.00790     H ( 1.00)

     Starting magnetic structure 
     atomic species   magnetization
     Ni              1.000
     Mn              1.000
     P               1.000
     O               1.000
     H               0.000

     No symmetry found



   Cartesian axes

     site n.     atom                  positions (alat units)
         1        Mn     tau(   1) = (   0.2404744   0.8371250   0.1168501  )
         2        Ni     tau(   2) = (   0.4968126   0.7726670   0.4415546  )
         3        Ni     tau(   3) = (   0.0066150   0.2936743   0.1241053  )
         4        Ni     tau(   4) = (   0.2585722   0.2355858   0.4448848  )
         5        Ni     tau(   5) = (   0.9987350   1.0696411   0.2854926  )
         6        Ni     tau(   6) = (   0.2517397   0.5330511   0.2829322  )
         7        Ni     tau(   7) = (   0.7451645   0.8337543   0.1221751  )
         8        Ni     tau(   8) = (   0.9939181   0.7738804   0.4407595  )
         9        Ni     tau(   9) = (   0.5111533   0.2924088   0.1251865  )
        10        Ni     tau(  10) = (   0.7606326   0.2319267   0.4451372  )
        11        Ni     tau(  11) = (   0.5024065   1.0688133   0.2870502  )
        12        Ni     tau(  12) = (   0.7529977   0.5317900   0.2845227  )
        13        P      tau(  13) = (   0.2092944   0.9731097   0.4345035  )
        14        P      tau(  14) = (   0.4655727   0.6359535   0.1274635  )
        15        P      tau(  15) = (   0.2910699   0.1027363   0.1296098  )
        16        P      tau(  16) = (   0.0396216   0.4288395   0.4398838  )
        17        O      tau(  17) = (   0.1294378   0.9013260   0.3010618  )
        18        O      tau(  18) = (   0.3874505   0.7054774   0.2637003  )
        19        O      tau(  19) = (   0.3702540   0.1714799   0.2660028  )
        20        O      tau(  20) = (   0.1184398   0.3582958   0.3038353  )
        21        O      tau(  21) = (   0.1451572   0.8850881   0.5587578  )
        22        O      tau(  22) = (   0.4048762   0.7245585   0.0017492  )
        23        O      tau(  23) = (   0.3523506   0.1900579   0.0035744  )
        24        O      tau(  24) = (   0.1017610   0.3410484   0.5656572  )
        25        O      tau(  25) = (   0.0975396   0.5849288   0.4357922  )
        26        O      tau(  26) = (   0.3483552   1.0314945   0.1270322  )
        27        O      tau(  27) = (   0.3784305   0.4225118   0.4308928  )
        28        O      tau(  28) = (   0.1268237   0.1067944   0.1392744  )
        29        O      tau(  29) = (   0.1212267   0.6424170   0.1362896  )
        30        O      tau(  30) = (   0.4053315   0.4809387   0.1300622  )
        31        O      tau(  31) = (   0.1536621   0.0446918   0.4373386  )
        32        O      tau(  32) = (   0.3732349   0.9631717   0.4256642  )
        33        P      tau(  33) = (   0.7119823   0.9695974   0.4373010  )
        34        P      tau(  34) = (   0.9615208   0.6363392   0.1262932  )
        35        P      tau(  35) = (   0.7927710   0.0970060   0.1292164  )
        36        P      tau(  36) = (   0.5426404   0.4269675   0.4410738  )
        37        O      tau(  37) = (   0.6326879   0.8991182   0.3013240  )
        38        O      tau(  38) = (   0.8842163   0.7083206   0.2625155  )
        39        O      tau(  39) = (   0.8716178   0.1677751   0.2653504  )
        40        O      tau(  40) = (   0.6212010   0.3558666   0.3051085  )
        41        O      tau(  41) = (   0.6507714   0.8812342   0.5631722  )
        42        O      tau(  42) = (   0.9014054   0.7264458   0.0010676  )
        43        O      tau(  43) = (   0.8548963   0.1847909   0.0035471  )
        44        O      tau(  44) = (   0.6044469   0.3378706   0.5660366  )
        45        O      tau(  45) = (   0.6024424   0.5823140   0.4379016  )
        46        O      tau(  46) = (   0.8498940   1.0254482   0.1275156  )
        47        O      tau(  47) = (   0.8798395   0.4205825   0.4305771  )
        48        O      tau(  48) = (   0.6286921   0.1034636   0.1397346  )
        49        O      tau(  49) = (   0.6294973   0.6427753   0.1372553  )
        50        O      tau(  50) = (   0.9024339   0.4810312   0.1296418  )
        51        O      tau(  51) = (   0.6547812   0.0410987   0.4396636  )
        52        O      tau(  52) = (   0.8760507   0.9632605   0.4264507  )
        53        Mn     tau(  53) = (   0.2404744   0.8246335   0.7367378  )
        54        Ni     tau(  54) = (   0.4968126   0.7601755   1.0614423  )
        55        Ni     tau(  55) = (   0.0066150   0.2811828   0.7439929  )
        56        Ni     tau(  56) = (   0.2585722   0.2230943   1.0647725  )
        57        Ni     tau(  57) = (   0.9987350   1.0571496   0.9053803  )
        58        Ni     tau(  58) = (   0.2517397   0.5205596   0.9028199  )
        59        Ni     tau(  59) = (   0.7451645   0.8212628   0.7420628  )
        60        Ni     tau(  60) = (   0.9939181   0.7613889   1.0606471  )
        61        Ni     tau(  61) = (   0.5111533   0.2799173   0.7450742  )
        62        Ni     tau(  62) = (   0.7606326   0.2194352   1.0650249  )
        63        Ni     tau(  63) = (   0.5024065   1.0563218   0.9069379  )
        64        Ni     tau(  64) = (   0.7529977   0.5192985   0.9044104  )
        65        P      tau(  65) = (   0.2092944   0.9606182   1.0543912  )
        66        P      tau(  66) = (   0.4655727   0.6234620   0.7473512  )
        67        P      tau(  67) = (   0.2910699   0.0902448   0.7494974  )
        68        P      tau(  68) = (   0.0396216   0.4163480   1.0597715  )
        69        O      tau(  69) = (   0.1294378   0.8888345   0.9209495  )
        70        O      tau(  70) = (   0.3874505   0.6929859   0.8835880  )
        71        O      tau(  71) = (   0.3702540   0.1589885   0.8858904  )
        72        O      tau(  72) = (   0.1184398   0.3458043   0.9237230  )
        73        O      tau(  73) = (   0.1451572   0.8725966   1.1786454  )
        74        O      tau(  74) = (   0.4048762   0.7120670   0.6216369  )
        75        O      tau(  75) = (   0.3523506   0.1775664   0.6234620  )
        76        O      tau(  76) = (   0.1017610   0.3285569   1.1855448  )
        77        O      tau(  77) = (   0.0975396   0.5724373   1.0556799  )
        78        O      tau(  78) = (   0.3483552   1.0190030   0.7469198  )
        79        O      tau(  79) = (   0.3784305   0.4100203   1.0507804  )
        80        O      tau(  80) = (   0.1268237   0.0943029   0.7591620  )
        81        O      tau(  81) = (   0.1212267   0.6299255   0.7561772  )
        82        O      tau(  82) = (   0.4053315   0.4684472   0.7499499  )
        83        O      tau(  83) = (   0.1536621   0.0322003   1.0572263  )
        84        O      tau(  84) = (   0.3732349   0.9506802   1.0455518  )
        85        P      tau(  85) = (   0.7119823   0.9571059   1.0571887  )
        86        P      tau(  86) = (   0.9615208   0.6238477   0.7461808  )
        87        P      tau(  87) = (   0.7927710   0.0845145   0.7491041  )
        88        P      tau(  88) = (   0.5426404   0.4144760   1.0609615  )
        89        O      tau(  89) = (   0.6326879   0.8866267   0.9212117  )
        90        O      tau(  90) = (   0.8842163   0.6958291   0.8824032  )
        91        O      tau(  91) = (   0.8716178   0.1552836   0.8852381  )
        92        O      tau(  92) = (   0.6212010   0.3433751   0.9249961  )
        93        O      tau(  93) = (   0.6507714   0.8687427   1.1830599  )
        94        O      tau(  94) = (   0.9014054   0.7139543   0.6209553  )
        95        O      tau(  95) = (   0.8548963   0.1722994   0.6234348  )
        96        O      tau(  96) = (   0.6044469   0.3253792   1.1859242  )
        97        O      tau(  97) = (   0.6024424   0.5698225   1.0577892  )
        98        O      tau(  98) = (   0.8498940   1.0129567   0.7474033  )
        99        O      tau(  99) = (   0.8798395   0.4080910   1.0504647  )
       100        O      tau( 100) = (   0.6286921   0.0909721   0.7596222  )
       101        O      tau( 101) = (   0.6294973   0.6302838   0.7571429  )
       102        O      tau( 102) = (   0.9024339   0.4685397   0.7495295  )
       103        O      tau( 103) = (   0.6547812   0.0286072   1.0595512  )
       104        O      tau( 104) = (   0.8760507   0.9507690   1.0463383  )
       105        Mn     tau( 105) = (   0.2366231   0.8099108   1.3652025  )
       106        Ni     tau( 106) = (   0.5054159   0.7462824   1.6760027  )
       107        Ni     tau( 107) = (   0.0089171   0.2673656   1.3686123  )
       108        Ni     tau( 108) = (   0.2644416   0.1993195   1.7084151  )
       109        Ni     tau( 109) = (   1.0061379   1.0432337   1.5350349  )
       110        Ni     tau( 110) = (   0.2518568   0.5022264   1.5321875  )
       111        Ni     tau( 111) = (   0.7428918   0.8054563   1.3680737  )
       112        Ni     tau( 112) = (   1.0041850   0.7431092   1.6780598  )
       113        Ni     tau( 113) = (   0.5112288   0.2659826   1.3709479  )
       114        Ni     tau( 114) = (   0.7532805   0.2088052   1.6753652  )
       115        Ni     tau( 115) = (   0.5047699   1.0448721   1.5373338  )
       116        Ni     tau( 116) = (   0.7503649   0.5053471   1.5308247  )
       117        P      tau( 117) = (   0.2161577   0.9302828   1.6982302  )
       118        P      tau( 118) = (   0.4629997   0.6076656   1.3708803  )
       119        P      tau( 119) = (   0.2923548   0.0759931   1.3761085  )
       120        P      tau( 120) = (   0.0403728   0.3936694   1.6855939  )
       121        O      tau( 121) = (   0.1364693   0.8668413   1.5531897  )
       122        O      tau( 122) = (   0.3862188   0.6762237   1.5077855  )
       123        O      tau( 123) = (   0.3702313   0.1459453   1.5113118  )
       124        O      tau( 124) = (   0.1164972   0.3354481   1.5416341  )
       125        O      tau( 125) = (   0.1561077   0.8312184   1.8121815  )
       126        O      tau( 126) = (   0.4024345   0.6977036   1.2456547  )
       127        O      tau( 127) = (   0.3529885   0.1608260   1.2478482  )
       128        O      tau( 128) = (   0.0988259   0.2967762   1.8028337  )
       129        O      tau( 129) = (   0.0955223   0.5521437   1.6882589  )
       130        O      tau( 130) = (   0.3501042   0.9948817   1.3794940  )
       131        O      tau( 131) = (   0.3769862   0.3955830   1.6820705  )
       132        O      tau( 132) = (   0.1282711   0.0787148   1.3850164  )
       133        O      tau( 133) = (   0.1228222   0.6171400   1.3807433  )
       134        O      tau( 134) = (   0.4031340   0.4526637   1.3730383  )
       135        O      tau( 135) = (   0.1564153   0.0102487   1.6911737  )
       136        O      tau( 136) = (   0.3803451   0.9249762   1.6777280  )
       137        P      tau( 137) = (   0.7174345   0.9334429   1.6935398  )
       138        P      tau( 138) = (   0.9584537   0.6093492   1.3691178  )
       139        P      tau( 139) = (   0.7939811   0.0700328   1.3725244  )
       140        P      tau( 140) = (   0.5416921   0.3997600   1.6930504  )
       141        O      tau( 141) = (   0.6378837   0.8729788   1.5477586  )
       142        O      tau( 142) = (   0.8828523   0.6807110   1.5061576  )
       143        O      tau( 143) = (   0.8725292   0.1417236   1.5079952  )
       144        O      tau( 144) = (   0.6175250   0.3342570   1.5484665  )
       145        O      tau( 145) = (   0.6556870   0.8369021   1.8084207  )
       146        O      tau( 146) = (   0.8987137   0.6988347   1.2434250  )
       147        O      tau( 147) = (   0.8547435   0.1573124   1.2458538  )
       148        O      tau( 148) = (   0.6058869   0.3057682   1.8100154  )
       149        O      tau( 149) = (   0.5996895   0.5564472   1.6887454  )
       150        O      tau( 150) = (   0.8537678   0.9909218   1.3764211  )
       151        O      tau( 151) = (   0.8747176   0.3908074   1.6749590  )
       152        O      tau( 152) = (   0.6300578   0.0775778   1.3854873  )
       153        O      tau( 153) = (   0.6270029   0.6154737   1.3814513  )
       154        O      tau( 154) = (   0.8992703   0.4545543   1.3717766  )
       155        O      tau( 155) = (   0.6630869   0.0162628   1.6912339  )
       156        O      tau( 156) = (   0.8822397   0.9273982   1.6791779  )
       157        O      tau( 157) = (   0.3793940   0.1173447   1.8403156  )
       158        H      tau( 158) = (   0.4636452   0.1772953   1.8643216  )

     -------------------------------------------------
     Parameters for Dispersion (Grimme-D2) Correction:
     -------------------------------------------------
       atom      VdW radius       C_6     

        Ni         2.952        374.666
        Mn         2.952        374.666
        P          3.222        271.980
        O          2.536         24.284
        H          1.892          4.857

     number of k points=     1  Gaussian smearing, width (Ry)=  0.0100
                       cart. coord. in units 2pi/alat
        k(    1) = (   0.0000000   0.0000000   0.0000000), wk =   1.0000000

     Dense  grid:  1918138 G-vectors     FFT dimensions: ( 125, 135, 432)

     Smooth grid:   485265 G-vectors     FFT dimensions: (  80,  90, 288)

     Estimated max dynamical RAM per process >     320.12 MB

     Estimated total dynamical RAM >      20.01 GB
     Generating pointlists ...
     new r_m :   0.0797 (alat units)  1.4107 (a.u.) for type    1
     new r_m :   0.0869 (alat units)  1.5388 (a.u.) for type    2
     new r_m :   0.0650 (alat units)  1.1499 (a.u.) for type    3
     new r_m :   0.0438 (alat units)  0.7751 (a.u.) for type    4
     new r_m :   0.0438 (alat units)  0.7751 (a.u.) for type    5

     Initial potential from superposition of free atoms

     starting charge    1077.8900, renormalised to    1078.0000

     negative rho (up, down):  1.237E-03 4.538E-04
 
     Adding external electric field

     Computed dipole along edir(3) : 
        Dipole                1.6236 Ry au,          4.1268 Debye
        Dipole field          0.0010 Ry au, 
 
        Potential amp.       -0.1090 Ry
        Total length         54.2615 bohr
 
 
     Adding external electric field

     Computed dipole along edir(3) : 
        Dipole                1.6236 Ry au,          4.1268 Debye
        Dipole field          0.0010 Ry au, 
 
        Potential amp.       -0.1090 Ry
        Total length         54.2615 bohr
 
     Starting wfcs are  812 randomized atomic wfcs

     total cpu time spent up to now is       10.0 secs

     Self-consistent Calculation

     iteration #  1     ecut=    50.00 Ry     beta= 0.10
     Davidson diagonalization with overlap
     ethr =  1.00E-02,  avg # of iterations =  6.0

     negative rho (up, down):  3.278E-01 7.849E-07
 
     Adding external electric field

     Computed dipole along edir(3) : 
        Dipole               -3.5930 Ry au,         -9.1326 Debye
        Dipole field         -0.0022 Ry au, 
 
        Potential amp.        0.2411 Ry
        Total length         54.2615 bohr
 
 
     Adding external electric field

     Computed dipole along edir(3) : 
        Dipole               -3.5930 Ry au,         -9.1326 Debye
        Dipole field         -0.0022 Ry au, 
 
        Potential amp.        0.2411 Ry
        Total length         54.2615 bohr
 

     total cpu time spent up to now is       35.6 secs

     total energy              =   -7177.92522185 Ry
     estimated scf accuracy    <     756.06583699 Ry

     total magnetization       =   216.00 Bohr mag/cell
     absolute magnetization    =   296.78 Bohr mag/cell

     iteration #  2     ecut=    50.00 Ry     beta= 0.10
     Davidson diagonalization with overlap
     ethr =  1.00E-02,  avg # of iterations =  2.0

     negative rho (up, down):  3.135E-01 5.825E-07
 
     Adding external electric field

     Computed dipole along edir(3) : 
        Dipole               -2.3407 Ry au,         -5.9494 Debye
        Dipole field         -0.0014 Ry au, 
 
        Potential amp.        0.1571 Ry
        Total length         54.2615 bohr
 
 
     Adding external electric field

     Computed dipole along edir(3) : 
        Dipole               -2.3407 Ry au,         -5.9494 Debye
        Dipole field         -0.0014 Ry au, 
 
        Potential amp.        0.1571 Ry
        Total length         54.2615 bohr
 

     total cpu time spent up to now is       50.4 secs

     total energy              =   -7261.66877981 Ry
     estimated scf accuracy    <     219.12361169 Ry

     total magnetization       =   151.90 Bohr mag/cell
     absolute magnetization    =   201.19 Bohr mag/cell

     iteration #  3     ecut=    50.00 Ry     beta= 0.10
     Davidson diagonalization with overlap
     ethr =  1.00E-02,  avg # of iterations =  1.5

     negative rho (up, down):  2.777E-01 5.548E-07
 
     Adding external electric field

     Computed dipole along edir(3) : 
        Dipole               -2.0412 Ry au,         -5.1883 Debye
        Dipole field         -0.0013 Ry au, 
 
        Potential amp.        0.1370 Ry
        Total length         54.2615 bohr
 
 
     Adding external electric field

     Computed dipole along edir(3) : 
        Dipole               -2.0412 Ry au,         -5.1883 Debye
        Dipole field         -0.0013 Ry au, 
 
        Potential amp.        0.1370 Ry
        Total length         54.2615 bohr
 

     total cpu time spent up to now is       62.0 secs

     total energy              =   -7291.31182514 Ry
     estimated scf accuracy    <      97.49979841 Ry

     total magnetization       =   126.56 Bohr mag/cell
     absolute magnetization    =   180.03 Bohr mag/cell

     iteration #  4     ecut=    50.00 Ry     beta= 0.10
     Davidson diagonalization with overlap
     ethr =  9.04E-03,  avg # of iterations =  1.5

     negative rho (up, down):  2.076E-01 9.414E-08
 
     Adding external electric field

     Computed dipole along edir(3) : 
        Dipole               -1.9191 Ry au,         -4.8779 Debye
        Dipole field         -0.0012 Ry au, 
 
        Potential amp.        0.1288 Ry
        Total length         54.2615 bohr
 
 
     Adding external electric field

     Computed dipole along edir(3) : 
        Dipole               -1.9191 Ry au,         -4.8779 Debye
        Dipole field         -0.0012 Ry au, 
 
        Potential amp.        0.1288 Ry
        Total length         54.2615 bohr
 

     total cpu time spent up to now is       74.0 secs

     total energy              =   -7326.20582417 Ry
     estimated scf accuracy    <      79.13074671 Ry

     total magnetization       =   111.62 Bohr mag/cell
     absolute magnetization    =   165.85 Bohr mag/cell

     iteration #  5     ecut=    50.00 Ry     beta= 0.10
     Davidson diagonalization with overlap
     ethr =  7.34E-03,  avg # of iterations =  1.5

     negative rho (up, down):  1.333E-02 7.954E-07
 
     Adding external electric field

     Computed dipole along edir(3) : 
        Dipole               -1.4682 Ry au,         -3.7317 Debye
        Dipole field         -0.0009 Ry au, 
 
        Potential amp.        0.0985 Ry
        Total length         54.2615 bohr
 
 
     Adding external electric field

     Computed dipole along edir(3) : 
        Dipole               -1.4682 Ry au,         -3.7317 Debye
        Dipole field         -0.0009 Ry au, 
 
        Potential amp.        0.0985 Ry
        Total length         54.2615 bohr
 

     total cpu time spent up to now is       86.3 secs

     total energy              =   -7385.08939414 Ry
     estimated scf accuracy    <      61.54088436 Ry

     total magnetization       =    88.04 Bohr mag/cell
     absolute magnetization    =   146.27 Bohr mag/cell

     iteration #  6     ecut=    50.00 Ry     beta= 0.10
     Davidson diagonalization with overlap
     ethr =  5.71E-03,  avg # of iterations =  1.5

     negative rho (up, down):  5.720E-04 7.622E-04
 
     Adding external electric field

     Computed dipole along edir(3) : 
        Dipole               -1.1413 Ry au,         -2.9008 Debye
        Dipole field         -0.0007 Ry au, 
 
        Potential amp.        0.0766 Ry
        Total length         54.2615 bohr
 
 
     Adding external electric field

     Computed dipole along edir(3) : 
        Dipole               -1.1413 Ry au,         -2.9008 Debye
        Dipole field         -0.0007 Ry au, 
 
        Potential amp.        0.0766 Ry
        Total length         54.2615 bohr
 

     total cpu time spent up to now is       98.2 secs

     total energy              =   -7395.38544033 Ry
     estimated scf accuracy    <      10.71426436 Ry

     total magnetization       =    82.00 Bohr mag/cell
     absolute magnetization    =   116.50 Bohr mag/cell

     iteration #  7     ecut=    50.00 Ry     beta= 0.10
     Davidson diagonalization with overlap
     ethr =  9.94E-04,  avg # of iterations =  4.5

     negative rho (up, down):  5.518E-04 7.522E-04
 
     Adding external electric field

     Computed dipole along edir(3) : 
        Dipole               -1.1388 Ry au,         -2.8946 Debye
        Dipole field         -0.0007 Ry au, 
 
        Potential amp.        0.0764 Ry
        Total length         54.2615 bohr
 
 
     Adding external electric field

     Computed dipole along edir(3) : 
        Dipole               -1.1388 Ry au,         -2.8946 Debye
        Dipole field         -0.0007 Ry au, 
 
        Potential amp.        0.0764 Ry
        Total length         54.2615 bohr
 

     total cpu time spent up to now is      116.1 secs

     total energy              =   -7397.64571900 Ry
     estimated scf accuracy    <      11.60958711 Ry

     total magnetization       =    71.02 Bohr mag/cell
     absolute magnetization    =    88.32 Bohr mag/cell

     iteration #  8     ecut=    50.00 Ry     beta= 0.10
     Davidson diagonalization with overlap
     ethr =  9.94E-04,  avg # of iterations =  1.0

     negative rho (up, down):  5.125E-04 6.961E-04
 
     Adding external electric field

     Computed dipole along edir(3) : 
        Dipole               -1.1246 Ry au,         -2.8584 Debye
        Dipole field         -0.0007 Ry au, 
 
        Potential amp.        0.0755 Ry
        Total length         54.2615 bohr
 
 
     Adding external electric field

     Computed dipole along edir(3) : 
        Dipole               -1.1246 Ry au,         -2.8584 Debye
        Dipole field         -0.0007 Ry au, 
 
        Potential amp.        0.0755 Ry
        Total length         54.2615 bohr
 

     total cpu time spent up to now is      127.4 secs

     total energy              =   -7397.64982789 Ry
     estimated scf accuracy    <      11.05212133 Ry

     total magnetization       =    71.29 Bohr mag/cell
     absolute magnetization    =    88.23 Bohr mag/cell

     iteration #  9     ecut=    50.00 Ry     beta= 0.10
     Davidson diagonalization with overlap
     ethr =  9.94E-04,  avg # of iterations =  1.0

     negative rho (up, down):  1.250E-04 3.353E-04
 
     Adding external electric field

     Computed dipole along edir(3) : 
        Dipole               -0.8851 Ry au,         -2.2497 Debye
        Dipole field         -0.0005 Ry au, 
 
        Potential amp.        0.0594 Ry
        Total length         54.2615 bohr
 
 
     Adding external electric field

     Computed dipole along edir(3) : 
        Dipole               -0.8851 Ry au,         -2.2497 Debye
        Dipole field         -0.0005 Ry au, 
 
        Potential amp.        0.0594 Ry
        Total length         54.2615 bohr
 

     total cpu time spent up to now is      138.1 secs

     total energy              =   -7397.55212428 Ry
     estimated scf accuracy    <      10.12771736 Ry

     total magnetization       =    71.72 Bohr mag/cell
     absolute magnetization    =    88.20 Bohr mag/cell

     iteration # 10     ecut=    50.00 Ry     beta= 0.10
     Davidson diagonalization with overlap
     ethr =  9.39E-04,  avg # of iterations =  1.5

     negative rho (up, down):  9.258E-05 3.550E-04
 
     Adding external electric field

     Computed dipole along edir(3) : 
        Dipole               -0.9167 Ry au,         -2.3301 Debye
        Dipole field         -0.0006 Ry au, 
 
        Potential amp.        0.0615 Ry
        Total length         54.2615 bohr
 
 
     Adding external electric field

     Computed dipole along edir(3) : 
        Dipole               -0.9167 Ry au,         -2.3301 Debye
        Dipole field         -0.0006 Ry au, 
 
        Potential amp.        0.0615 Ry
        Total length         54.2615 bohr
 

     total cpu time spent up to now is      148.5 secs

     total energy              =   -7397.66020722 Ry
     estimated scf accuracy    <       7.89197727 Ry

     total magnetization       =    73.49 Bohr mag/cell
     absolute magnetization    =    86.55 Bohr mag/cell

     iteration # 11     ecut=    50.00 Ry     beta= 0.10
     Davidson diagonalization with overlap
     ethr =  7.32E-04,  avg # of iterations =  1.5

     negative rho (up, down):  6.078E-05 3.496E-04
 
     Adding external electric field

     Computed dipole along edir(3) : 
        Dipole               -0.9002 Ry au,         -2.2881 Debye
        Dipole field         -0.0006 Ry au, 
 
        Potential amp.        0.0604 Ry
        Total length         54.2615 bohr
 
 
     Adding external electric field

     Computed dipole along edir(3) : 
        Dipole               -0.9002 Ry au,         -2.2881 Debye
        Dipole field         -0.0006 Ry au, 
 
        Potential amp.        0.0604 Ry
        Total length         54.2615 bohr
 

     total cpu time spent up to now is      159.2 secs

     total energy              =   -7397.67376748 Ry
     estimated scf accuracy    <       4.82908428 Ry

     total magnetization       =    75.21 Bohr mag/cell
     absolute magnetization    =    86.86 Bohr mag/cell

     iteration # 12     ecut=    50.00 Ry     beta= 0.10
     Davidson diagonalization with overlap
     ethr =  4.48E-04,  avg # of iterations =  2.0

     negative rho (up, down):  3.531E-05 3.672E-04
 
     Adding external electric field

     Computed dipole along edir(3) : 
        Dipole               -0.8739 Ry au,         -2.2212 Debye
        Dipole field         -0.0005 Ry au, 
 
        Potential amp.        0.0586 Ry
        Total length         54.2615 bohr
 
 
     Adding external electric field

     Computed dipole along edir(3) : 
        Dipole               -0.8739 Ry au,         -2.2212 Debye
        Dipole field         -0.0005 Ry au, 
 
        Potential amp.        0.0586 Ry
        Total length         54.2615 bohr
 

     total cpu time spent up to now is      171.0 secs

     total energy              =   -7397.69587482 Ry
     estimated scf accuracy    <       3.27973799 Ry

     total magnetization       =    76.31 Bohr mag/cell
     absolute magnetization    =    86.91 Bohr mag/cell

     iteration # 13     ecut=    50.00 Ry     beta= 0.10
     Davidson diagonalization with overlap
     ethr =  3.04E-04,  avg # of iterations =  2.0

     negative rho (up, down):  5.540E-05 4.725E-04
 
     Adding external electric field

     Computed dipole along edir(3) : 
        Dipole               -0.9236 Ry au,         -2.3476 Debye
        Dipole field         -0.0006 Ry au, 
 
        Potential amp.        0.0620 Ry
        Total length         54.2615 bohr
 
 
     Adding external electric field

     Computed dipole along edir(3) : 
        Dipole               -0.9236 Ry au,         -2.3476 Debye
        Dipole field         -0.0006 Ry au, 
 
        Potential amp.        0.0620 Ry
        Total length         54.2615 bohr
 

     total cpu time spent up to now is      182.1 secs

     total energy              =   -7397.78246531 Ry
     estimated scf accuracy    <       2.23224754 Ry

     total magnetization       =    77.36 Bohr mag/cell
     absolute magnetization    =    86.24 Bohr mag/cell

     iteration # 14     ecut=    50.00 Ry     beta= 0.10
     Davidson diagonalization with overlap
     ethr =  2.07E-04,  avg # of iterations =  3.5

     negative rho (up, down):  4.637E-05 5.431E-04
 
     Adding external electric field

     Computed dipole along edir(3) : 
        Dipole               -0.9290 Ry au,         -2.3614 Debye
        Dipole field         -0.0006 Ry au, 
 
        Potential amp.        0.0624 Ry
        Total length         54.2615 bohr
 
 
     Adding external electric field

     Computed dipole along edir(3) : 
        Dipole               -0.9290 Ry au,         -2.3614 Debye
        Dipole field         -0.0006 Ry au, 
 
        Potential amp.        0.0624 Ry
        Total length         54.2615 bohr
 

     total cpu time spent up to now is      193.6 secs

     total energy              =   -7397.81461641 Ry
     estimated scf accuracy    <       0.59217976 Ry

     total magnetization       =    80.78 Bohr mag/cell
     absolute magnetization    =    87.61 Bohr mag/cell

     iteration # 15     ecut=    50.00 Ry     beta= 0.10
     Davidson diagonalization with overlap
     ethr =  5.49E-05,  avg # of iterations = 17.5

     negative rho (up, down):  9.804E-05 6.684E-04
 
     Adding external electric field

     Computed dipole along edir(3) : 
        Dipole               -0.9862 Ry au,         -2.5067 Debye
        Dipole field         -0.0006 Ry au, 
 
        Potential amp.        0.0662 Ry
        Total length         54.2615 bohr
 
 
     Adding external electric field

     Computed dipole along edir(3) : 
        Dipole               -0.9862 Ry au,         -2.5067 Debye
        Dipole field         -0.0006 Ry au, 
 
        Potential amp.        0.0662 Ry
        Total length         54.2615 bohr
 

     total cpu time spent up to now is      220.2 secs

     total energy              =   -7397.90197459 Ry
     estimated scf accuracy    <       0.62307926 Ry

     total magnetization       =    79.83 Bohr mag/cell
     absolute magnetization    =    86.10 Bohr mag/cell

     iteration # 16     ecut=    50.00 Ry     beta= 0.10
     Davidson diagonalization with overlap
     ethr =  5.49E-05,  avg # of iterations =  1.0

     negative rho (up, down):  2.123E-04 8.485E-04
 
     Adding external electric field

     Computed dipole along edir(3) : 
        Dipole               -0.9506 Ry au,         -2.4163 Debye
        Dipole field         -0.0006 Ry au, 
 
        Potential amp.        0.0638 Ry
        Total length         54.2615 bohr
 
 
     Adding external electric field

     Computed dipole along edir(3) : 
        Dipole               -0.9506 Ry au,         -2.4163 Debye
        Dipole field         -0.0006 Ry au, 
 
        Potential amp.        0.0638 Ry
        Total length         54.2615 bohr
 

     total cpu time spent up to now is      230.7 secs

     total energy              =   -7397.98288556 Ry
     estimated scf accuracy    <       0.27052393 Ry

     total magnetization       =    79.40 Bohr mag/cell
     absolute magnetization    =    84.60 Bohr mag/cell

     iteration # 17     ecut=    50.00 Ry     beta= 0.10
     Davidson diagonalization with overlap
     ethr =  2.51E-05,  avg # of iterations =  1.5

     negative rho (up, down):  5.963E-04 9.568E-04
 
     Adding external electric field

     Computed dipole along edir(3) : 
        Dipole               -0.9342 Ry au,         -2.3745 Debye
        Dipole field         -0.0006 Ry au, 
 
        Potential amp.        0.0627 Ry
        Total length         54.2615 bohr
 
 
     Adding external electric field

     Computed dipole along edir(3) : 
        Dipole               -0.9342 Ry au,         -2.3745 Debye
        Dipole field         -0.0006 Ry au, 
 
        Potential amp.        0.0627 Ry
        Total length         54.2615 bohr
 

     total cpu time spent up to now is      242.4 secs

     total energy              =   -7398.03178364 Ry
     estimated scf accuracy    <       0.12654033 Ry

     total magnetization       =    80.60 Bohr mag/cell
     absolute magnetization    =    83.95 Bohr mag/cell

     iteration # 18     ecut=    50.00 Ry     beta= 0.10
     Davidson diagonalization with overlap
     ethr =  1.17E-05,  avg # of iterations =  2.0

     negative rho (up, down):  3.956E-04 4.698E-04
 
     Adding external electric field

     Computed dipole along edir(3) : 
        Dipole               -0.8426 Ry au,         -2.1417 Debye
        Dipole field         -0.0005 Ry au, 
 
        Potential amp.        0.0566 Ry
        Total length         54.2615 bohr
 
 
     Adding external electric field

     Computed dipole along edir(3) : 
        Dipole               -0.8426 Ry au,         -2.1417 Debye
        Dipole field         -0.0005 Ry au, 
 
        Potential amp.        0.0566 Ry
        Total length         54.2615 bohr
 

     total cpu time spent up to now is      253.7 secs

     total energy              =   -7398.03661942 Ry
     estimated scf accuracy    <       0.09612931 Ry

     total magnetization       =    80.57 Bohr mag/cell
     absolute magnetization    =    82.89 Bohr mag/cell

     iteration # 19     ecut=    50.00 Ry     beta= 0.10
     Davidson diagonalization with overlap
     ethr =  8.92E-06,  avg # of iterations =  1.5

     negative rho (up, down):  3.822E-04 3.131E-04
 
     Adding external electric field

     Computed dipole along edir(3) : 
        Dipole               -0.8165 Ry au,         -2.0754 Debye
        Dipole field         -0.0005 Ry au, 
 
        Potential amp.        0.0548 Ry
        Total length         54.2615 bohr
 
 
     Adding external electric field

     Computed dipole along edir(3) : 
        Dipole               -0.8165 Ry au,         -2.0754 Debye
        Dipole field         -0.0005 Ry au, 
 
        Potential amp.        0.0548 Ry
        Total length         54.2615 bohr
 

     total cpu time spent up to now is      264.9 secs

     total energy              =   -7398.04008860 Ry
     estimated scf accuracy    <       0.07192963 Ry

     total magnetization       =    80.77 Bohr mag/cell
     absolute magnetization    =    82.64 Bohr mag/cell

     iteration # 20     ecut=    50.00 Ry     beta= 0.10
     Davidson diagonalization with overlap
     ethr =  6.67E-06,  avg # of iterations =  2.0

     negative rho (up, down):  1.766E-04 1.147E-05
 
     Adding external electric field

     Computed dipole along edir(3) : 
        Dipole               -0.7767 Ry au,         -1.9741 Debye
        Dipole field         -0.0005 Ry au, 
 
        Potential amp.        0.0521 Ry
        Total length         54.2615 bohr
 
 
     Adding external electric field

     Computed dipole along edir(3) : 
        Dipole               -0.7767 Ry au,         -1.9741 Debye
        Dipole field         -0.0005 Ry au, 
 
        Potential amp.        0.0521 Ry
        Total length         54.2615 bohr
 

     total cpu time spent up to now is      276.9 secs

     total energy              =   -7398.03546650 Ry
     estimated scf accuracy    <       0.08080717 Ry

     total magnetization       =    80.78 Bohr mag/cell
     absolute magnetization    =    82.48 Bohr mag/cell

     iteration # 21     ecut=    50.00 Ry     beta= 0.10
     Davidson diagonalization with overlap
     ethr =  6.67E-06,  avg # of iterations =  2.0

     negative rho (up, down):  1.809E-04 1.097E-05
 
     Adding external electric field

     Computed dipole along edir(3) : 
        Dipole               -0.7780 Ry au,         -1.9776 Debye
        Dipole field         -0.0005 Ry au, 
 
        Potential amp.        0.0522 Ry
        Total length         54.2615 bohr
 
 
     Adding external electric field

     Computed dipole along edir(3) : 
        Dipole               -0.7780 Ry au,         -1.9776 Debye
        Dipole field         -0.0005 Ry au, 
 
        Potential amp.        0.0522 Ry
        Total length         54.2615 bohr
 

     total cpu time spent up to now is      288.9 secs

     total energy              =   -7398.03670053 Ry
     estimated scf accuracy    <       0.08462174 Ry

     total magnetization       =    80.64 Bohr mag/cell
     absolute magnetization    =    82.27 Bohr mag/cell

     iteration # 22     ecut=    50.00 Ry     beta= 0.10
     Davidson diagonalization with overlap
     ethr =  6.67E-06,  avg # of iterations =  1.0

     negative rho (up, down):  7.144E-05 3.107E-06
 
     Adding external electric field

     Computed dipole along edir(3) : 
        Dipole               -0.7688 Ry au,         -1.9540 Debye
        Dipole field         -0.0005 Ry au, 
 
        Potential amp.        0.0516 Ry
        Total length         54.2615 bohr
 
 
     Adding external electric field

     Computed dipole along edir(3) : 
        Dipole               -0.7688 Ry au,         -1.9540 Debye
        Dipole field         -0.0005 Ry au, 
 
        Potential amp.        0.0516 Ry
        Total length         54.2615 bohr
 

     total cpu time spent up to now is      300.7 secs

     total energy              =   -7398.03688963 Ry
     estimated scf accuracy    <       0.07539573 Ry

     total magnetization       =    80.65 Bohr mag/cell
     absolute magnetization    =    82.25 Bohr mag/cell

     iteration # 23     ecut=    50.00 Ry     beta= 0.10
     Davidson diagonalization with overlap
     ethr =  6.67E-06,  avg # of iterations =  1.5

     negative rho (up, down):  1.273E-05 4.652E-06
 
     Adding external electric field

     Computed dipole along edir(3) : 
        Dipole               -0.7277 Ry au,         -1.8495 Debye
        Dipole field         -0.0005 Ry au, 
 
        Potential amp.        0.0488 Ry
        Total length         54.2615 bohr
 
 
     Adding external electric field

     Computed dipole along edir(3) : 
        Dipole               -0.7277 Ry au,         -1.8495 Debye
        Dipole field         -0.0005 Ry au, 
 
        Potential amp.        0.0488 Ry
        Total length         54.2615 bohr
 

     total cpu time spent up to now is      313.0 secs

     total energy              =   -7398.03889189 Ry
     estimated scf accuracy    <       0.02470630 Ry

     total magnetization       =    80.38 Bohr mag/cell
     absolute magnetization    =    81.98 Bohr mag/cell

     iteration # 24     ecut=    50.00 Ry     beta= 0.10
     Davidson diagonalization with overlap
     c_bands:  4 eigenvalues not converged
     ethr =  2.29E-06,  avg # of iterations = 11.5

     negative rho (up, down):  1.145E-05 1.211E-05
 
     Adding external electric field

     Computed dipole along edir(3) : 
        Dipole               -0.7139 Ry au,         -1.8146 Debye
        Dipole field         -0.0004 Ry au, 
 
        Potential amp.        0.0479 Ry
        Total length         54.2615 bohr
 
 
     Adding external electric field

     Computed dipole along edir(3) : 
        Dipole               -0.7139 Ry au,         -1.8146 Debye
        Dipole field         -0.0004 Ry au, 
 
        Potential amp.        0.0479 Ry
        Total length         54.2615 bohr
 

     total cpu time spent up to now is      332.6 secs

     total energy              =   -7398.03929318 Ry
     estimated scf accuracy    <       0.02318617 Ry

     total magnetization       =    80.39 Bohr mag/cell
     absolute magnetization    =    81.91 Bohr mag/cell

     iteration # 25     ecut=    50.00 Ry     beta= 0.10
     Davidson diagonalization with overlap
     ethr =  2.15E-06,  avg # of iterations =  2.5

     negative rho (up, down):  5.554E-06 9.216E-06
 
     Adding external electric field

     Computed dipole along edir(3) : 
        Dipole               -0.6627 Ry au,         -1.6845 Debye
        Dipole field         -0.0004 Ry au, 
 
        Potential amp.        0.0445 Ry
        Total length         54.2615 bohr
 
 
     Adding external electric field

     Computed dipole along edir(3) : 
        Dipole               -0.6627 Ry au,         -1.6845 Debye
        Dipole field         -0.0004 Ry au, 
 
        Potential amp.        0.0445 Ry
        Total length         54.2615 bohr
 

     total cpu time spent up to now is      345.4 secs

     total energy              =   -7398.03884899 Ry
     estimated scf accuracy    <       0.01683165 Ry

     total magnetization       =    80.41 Bohr mag/cell
     absolute magnetization    =    81.90 Bohr mag/cell

     iteration # 26     ecut=    50.00 Ry     beta= 0.10
     Davidson diagonalization with overlap
     ethr =  1.56E-06,  avg # of iterations =  2.0

     negative rho (up, down):  6.083E-06 8.571E-06
 
     Adding external electric field

     Computed dipole along edir(3) : 
        Dipole               -0.6633 Ry au,         -1.6859 Debye
        Dipole field         -0.0004 Ry au, 
 
        Potential amp.        0.0445 Ry
        Total length         54.2615 bohr
 
 
     Adding external electric field

     Computed dipole along edir(3) : 
        Dipole               -0.6633 Ry au,         -1.6859 Debye
        Dipole field         -0.0004 Ry au, 
 
        Potential amp.        0.0445 Ry
        Total length         54.2615 bohr
 

     total cpu time spent up to now is      358.6 secs

     total energy              =   -7398.03895359 Ry
     estimated scf accuracy    <       0.02263880 Ry

     total magnetization       =    80.37 Bohr mag/cell
     absolute magnetization    =    81.88 Bohr mag/cell

     iteration # 27     ecut=    50.00 Ry     beta= 0.10
     Davidson diagonalization with overlap
     ethr =  1.56E-06,  avg # of iterations =  2.0

     negative rho (up, down):  6.533E-06 1.276E-05
 
     Adding external electric field

     Computed dipole along edir(3) : 
        Dipole               -0.6744 Ry au,         -1.7141 Debye
        Dipole field         -0.0004 Ry au, 
 
        Potential amp.        0.0453 Ry
        Total length         54.2615 bohr
 
 
     Adding external electric field

     Computed dipole along edir(3) : 
        Dipole               -0.6744 Ry au,         -1.7141 Debye
        Dipole field         -0.0004 Ry au, 
 
        Potential amp.        0.0453 Ry
        Total length         54.2615 bohr
 

     total cpu time spent up to now is      370.1 secs

     total energy              =   -7398.03901283 Ry
     estimated scf accuracy    <       0.02286157 Ry

     total magnetization       =    80.37 Bohr mag/cell
     absolute magnetization    =    81.87 Bohr mag/cell

     iteration # 28     ecut=    50.00 Ry     beta= 0.10
     Davidson diagonalization with overlap
     ethr =  1.56E-06,  avg # of iterations =  2.0

     negative rho (up, down):  1.167E-05 2.321E-05
 
     Adding external electric field

     Computed dipole along edir(3) : 
        Dipole               -0.6686 Ry au,         -1.6994 Debye
        Dipole field         -0.0004 Ry au, 
 
        Potential amp.        0.0449 Ry
        Total length         54.2615 bohr
 
 
     Adding external electric field

     Computed dipole along edir(3) : 
        Dipole               -0.6686 Ry au,         -1.6994 Debye
        Dipole field         -0.0004 Ry au, 
 
        Potential amp.        0.0449 Ry
        Total length         54.2615 bohr
 

     total cpu time spent up to now is      382.2 secs

     total energy              =   -7398.03892107 Ry
     estimated scf accuracy    <       0.02023841 Ry

     total magnetization       =    80.41 Bohr mag/cell
     absolute magnetization    =    81.92 Bohr mag/cell

     iteration # 29     ecut=    50.00 Ry     beta= 0.10
     Davidson diagonalization with overlap
     ethr =  1.56E-06,  avg # of iterations =  2.0

     negative rho (up, down):  2.204E-04 2.961E-04
 
     Adding external electric field

     Computed dipole along edir(3) : 
        Dipole               -0.5894 Ry au,         -1.4981 Debye
        Dipole field         -0.0004 Ry au, 
 
        Potential amp.        0.0396 Ry
        Total length         54.2615 bohr
 
 
     Adding external electric field

     Computed dipole along edir(3) : 
        Dipole               -0.5894 Ry au,         -1.4981 Debye
        Dipole field         -0.0004 Ry au, 
 
        Potential amp.        0.0396 Ry
        Total length         54.2615 bohr
 

     total cpu time spent up to now is      394.1 secs

     total energy              =   -7398.03812252 Ry
     estimated scf accuracy    <       0.01665646 Ry

     total magnetization       =    80.37 Bohr mag/cell
     absolute magnetization    =    81.91 Bohr mag/cell

     iteration # 30     ecut=    50.00 Ry     beta= 0.10
     Davidson diagonalization with overlap
     c_bands:  5 eigenvalues not converged
     ethr =  1.55E-06,  avg # of iterations = 11.0

     negative rho (up, down):  2.397E-03 2.900E-03
 
     Adding external electric field

     Computed dipole along edir(3) : 
        Dipole               -0.4569 Ry au,         -1.1614 Debye
        Dipole field         -0.0003 Ry au, 
 
        Potential amp.        0.0307 Ry
        Total length         54.2615 bohr
 
 
     Adding external electric field

     Computed dipole along edir(3) : 
        Dipole               -0.4569 Ry au,         -1.1614 Debye
        Dipole field         -0.0003 Ry au, 
 
        Potential amp.        0.0307 Ry
        Total length         54.2615 bohr
 

     total cpu time spent up to now is      412.8 secs

     total energy              =   -7398.03683535 Ry
     estimated scf accuracy    <       0.01550404 Ry

     total magnetization       =    80.39 Bohr mag/cell
     absolute magnetization    =    81.93 Bohr mag/cell

     iteration # 31     ecut=    50.00 Ry     beta= 0.10
     Davidson diagonalization with overlap
     ethr =  1.44E-06,  avg # of iterations =  3.5

     negative rho (up, down):  3.835E-03 4.347E-03
 
     Adding external electric field

     Computed dipole along edir(3) : 
        Dipole               -0.3991 Ry au,         -1.0145 Debye
        Dipole field         -0.0002 Ry au, 
 
        Potential amp.        0.0268 Ry
        Total length         54.2615 bohr
 
 
     Adding external electric field

     Computed dipole along edir(3) : 
        Dipole               -0.3991 Ry au,         -1.0145 Debye
        Dipole field         -0.0002 Ry au, 
 
        Potential amp.        0.0268 Ry
        Total length         54.2615 bohr
 

     total cpu time spent up to now is      426.4 secs

     total energy              =   -7398.03679558 Ry
     estimated scf accuracy    <       0.01506803 Ry

     total magnetization       =    80.42 Bohr mag/cell
     absolute magnetization    =    81.91 Bohr mag/cell

     iteration # 32     ecut=    50.00 Ry     beta= 0.10
     Davidson diagonalization with overlap
     ethr =  1.40E-06,  avg # of iterations =  2.0

     negative rho (up, down):  3.590E-03 3.969E-03
 
     Adding external electric field

     Computed dipole along edir(3) : 
        Dipole               -0.3696 Ry au,         -0.9395 Debye
        Dipole field         -0.0002 Ry au, 
 
        Potential amp.        0.0248 Ry
        Total length         54.2615 bohr
 
 
     Adding external electric field

     Computed dipole along edir(3) : 
        Dipole               -0.3696 Ry au,         -0.9395 Debye
        Dipole field         -0.0002 Ry au, 
 
        Potential amp.        0.0248 Ry
        Total length         54.2615 bohr
 

     total cpu time spent up to now is      439.1 secs

     total energy              =   -7398.03678354 Ry
     estimated scf accuracy    <       0.01690980 Ry

     total magnetization       =    80.45 Bohr mag/cell
     absolute magnetization    =    81.94 Bohr mag/cell

     iteration # 33     ecut=    50.00 Ry     beta= 0.10
     Davidson diagonalization with overlap
     ethr =  1.40E-06,  avg # of iterations =  2.0

     negative rho (up, down):  2.645E-03 2.860E-03
 
     Adding external electric field

     Computed dipole along edir(3) : 
        Dipole               -0.3587 Ry au,         -0.9117 Debye
        Dipole field         -0.0002 Ry au, 
 
        Potential amp.        0.0241 Ry
        Total length         54.2615 bohr
 
 
     Adding external electric field

     Computed dipole along edir(3) : 
        Dipole               -0.3587 Ry au,         -0.9117 Debye
        Dipole field         -0.0002 Ry au, 
 
        Potential amp.        0.0241 Ry
        Total length         54.2615 bohr
 

     total cpu time spent up to now is      451.7 secs

     total energy              =   -7398.03682697 Ry
     estimated scf accuracy    <       0.01531792 Ry

     total magnetization       =    80.47 Bohr mag/cell
     absolute magnetization    =    81.98 Bohr mag/cell

     iteration # 34     ecut=    50.00 Ry     beta= 0.10
     Davidson diagonalization with overlap
     ethr =  1.40E-06,  avg # of iterations =  2.0

     negative rho (up, down):  2.753E-03 2.959E-03
 
     Adding external electric field

     Computed dipole along edir(3) : 
        Dipole               -0.3709 Ry au,         -0.9426 Debye
        Dipole field         -0.0002 Ry au, 
 
        Potential amp.        0.0249 Ry
        Total length         54.2615 bohr
 
 
     Adding external electric field

     Computed dipole along edir(3) : 
        Dipole               -0.3709 Ry au,         -0.9426 Debye
        Dipole field         -0.0002 Ry au, 
 
        Potential amp.        0.0249 Ry
        Total length         54.2615 bohr
 

     total cpu time spent up to now is      464.8 secs

     total energy              =   -7398.03694062 Ry
     estimated scf accuracy    <       0.01527923 Ry

     total magnetization       =    80.48 Bohr mag/cell
     absolute magnetization    =    82.00 Bohr mag/cell

     iteration # 35     ecut=    50.00 Ry     beta= 0.10
     Davidson diagonalization with overlap
     ethr =  1.40E-06,  avg # of iterations =  1.0

     negative rho (up, down):  3.103E-03 3.688E-03
 
     Adding external electric field

     Computed dipole along edir(3) : 
        Dipole               -0.3420 Ry au,         -0.8692 Debye
        Dipole field         -0.0002 Ry au, 
 
        Potential amp.        0.0230 Ry
        Total length         54.2615 bohr
 
 
     Adding external electric field

     Computed dipole along edir(3) : 
        Dipole               -0.3420 Ry au,         -0.8692 Debye
        Dipole field         -0.0002 Ry au, 
 
        Potential amp.        0.0230 Ry
        Total length         54.2615 bohr
 

     total cpu time spent up to now is      476.2 secs

     total energy              =   -7398.03616534 Ry
     estimated scf accuracy    <       0.01476704 Ry

     total magnetization       =    80.49 Bohr mag/cell
     absolute magnetization    =    82.01 Bohr mag/cell

     iteration # 36     ecut=    50.00 Ry     beta= 0.10
     Davidson diagonalization with overlap
     ethr =  1.37E-06,  avg # of iterations =  2.0

     negative rho (up, down):  3.485E-03 3.849E-03
 
     Adding external electric field

     Computed dipole along edir(3) : 
        Dipole               -0.3249 Ry au,         -0.8259 Debye
        Dipole field         -0.0002 Ry au, 
 
        Potential amp.        0.0218 Ry
        Total length         54.2615 bohr
 
 
     Adding external electric field

     Computed dipole along edir(3) : 
        Dipole               -0.3249 Ry au,         -0.8259 Debye
        Dipole field         -0.0002 Ry au, 
 
        Potential amp.        0.0218 Ry
        Total length         54.2615 bohr
 

     total cpu time spent up to now is      488.3 secs

     total energy              =   -7398.03649753 Ry
     estimated scf accuracy    <       0.01579321 Ry

     total magnetization       =    80.45 Bohr mag/cell
     absolute magnetization    =    82.05 Bohr mag/cell

     iteration # 37     ecut=    50.00 Ry     beta= 0.10
     Davidson diagonalization with overlap
     ethr =  1.37E-06,  avg # of iterations =  1.0

     negative rho (up, down):  1.662E-03 2.017E-03
 
     Adding external electric field

     Computed dipole along edir(3) : 
        Dipole               -0.3369 Ry au,         -0.8564 Debye
        Dipole field         -0.0002 Ry au, 
 
        Potential amp.        0.0226 Ry
        Total length         54.2615 bohr
 
 
     Adding external electric field

     Computed dipole along edir(3) : 
        Dipole               -0.3369 Ry au,         -0.8564 Debye
        Dipole field         -0.0002 Ry au, 
 
        Potential amp.        0.0226 Ry
        Total length         54.2615 bohr
 

     total cpu time spent up to now is      499.3 secs

     total energy              =   -7398.03628827 Ry
     estimated scf accuracy    <       0.01444236 Ry

     total magnetization       =    80.46 Bohr mag/cell
     absolute magnetization    =    81.98 Bohr mag/cell

     iteration # 38     ecut=    50.00 Ry     beta= 0.10
     Davidson diagonalization with overlap
     ethr =  1.34E-06,  avg # of iterations =  2.0

     negative rho (up, down):  3.594E-03 3.944E-03
 
     Adding external electric field

     Computed dipole along edir(3) : 
        Dipole               -0.3124 Ry au,         -0.7940 Debye
        Dipole field         -0.0002 Ry au, 
 
        Potential amp.        0.0210 Ry
        Total length         54.2615 bohr
 
 
     Adding external electric field

     Computed dipole along edir(3) : 
        Dipole               -0.3124 Ry au,         -0.7940 Debye
        Dipole field         -0.0002 Ry au, 
 
        Potential amp.        0.0210 Ry
        Total length         54.2615 bohr
 

     total cpu time spent up to now is      511.9 secs

     total energy              =   -7398.03651722 Ry
     estimated scf accuracy    <       0.01456338 Ry

     total magnetization       =    80.47 Bohr mag/cell
     absolute magnetization    =    81.94 Bohr mag/cell

     iteration # 39     ecut=    50.00 Ry     beta= 0.10
     Davidson diagonalization with overlap
     ethr =  1.34E-06,  avg # of iterations =  2.0

     negative rho (up, down):  6.862E-03 7.303E-03
 
     Adding external electric field

     Computed dipole along edir(3) : 
        Dipole               -0.2665 Ry au,         -0.6775 Debye
        Dipole field         -0.0002 Ry au, 
 
        Potential amp.        0.0179 Ry
        Total length         54.2615 bohr
 
 
     Adding external electric field

     Computed dipole along edir(3) : 
        Dipole               -0.2665 Ry au,         -0.6775 Debye
        Dipole field         -0.0002 Ry au, 
 
        Potential amp.        0.0179 Ry
        Total length         54.2615 bohr
 

     total cpu time spent up to now is      523.9 secs

     total energy              =   -7398.03646414 Ry
     estimated scf accuracy    <       0.01395283 Ry

     total magnetization       =    80.46 Bohr mag/cell
     absolute magnetization    =    81.95 Bohr mag/cell

     iteration # 40     ecut=    50.00 Ry     beta= 0.10
     Davidson diagonalization with overlap
     ethr =  1.29E-06,  avg # of iterations =  2.0

     negative rho (up, down):  5.460E-03 5.515E-03
 
     Adding external electric field

     Computed dipole along edir(3) : 
        Dipole               -0.2430 Ry au,         -0.6177 Debye
        Dipole field         -0.0002 Ry au, 
 
        Potential amp.        0.0163 Ry
        Total length         54.2615 bohr
 
 
     Adding external electric field

     Computed dipole along edir(3) : 
        Dipole               -0.2430 Ry au,         -0.6177 Debye
        Dipole field         -0.0002 Ry au, 
 
        Potential amp.        0.0163 Ry
        Total length         54.2615 bohr
 

     total cpu time spent up to now is      536.2 secs

     total energy              =   -7398.03662216 Ry
     estimated scf accuracy    <       0.01430556 Ry

     total magnetization       =    80.48 Bohr mag/cell
     absolute magnetization    =    81.96 Bohr mag/cell

     iteration # 41     ecut=    50.00 Ry     beta= 0.10
     Davidson diagonalization with overlap
     ethr =  1.29E-06,  avg # of iterations =  2.0

     negative rho (up, down):  3.710E-03 3.682E-03
 
     Adding external electric field

     Computed dipole along edir(3) : 
        Dipole               -0.2704 Ry au,         -0.6872 Debye
        Dipole field         -0.0002 Ry au, 
 
        Potential amp.        0.0181 Ry
        Total length         54.2615 bohr
 
 
     Adding external electric field

     Computed dipole along edir(3) : 
        Dipole               -0.2704 Ry au,         -0.6872 Debye
        Dipole field         -0.0002 Ry au, 
 
        Potential amp.        0.0181 Ry
        Total length         54.2615 bohr
 

     total cpu time spent up to now is      549.3 secs

     total energy              =   -7398.03656617 Ry
     estimated scf accuracy    <       0.01326231 Ry

     total magnetization       =    80.51 Bohr mag/cell
     absolute magnetization    =    82.00 Bohr mag/cell

     iteration # 42     ecut=    50.00 Ry     beta= 0.10
     Davidson diagonalization with overlap
     ethr =  1.23E-06,  avg # of iterations =  2.0

     negative rho (up, down):  5.231E-03 5.334E-03
 
     Adding external electric field

     Computed dipole along edir(3) : 
        Dipole               -0.2625 Ry au,         -0.6672 Debye
        Dipole field         -0.0002 Ry au, 
 
        Potential amp.        0.0176 Ry
        Total length         54.2615 bohr
 
 
     Adding external electric field

     Computed dipole along edir(3) : 
        Dipole               -0.2625 Ry au,         -0.6672 Debye
        Dipole field         -0.0002 Ry au, 
 
        Potential amp.        0.0176 Ry
        Total length         54.2615 bohr
 

     total cpu time spent up to now is      561.8 secs

     total energy              =   -7398.03664844 Ry
     estimated scf accuracy    <       0.01459537 Ry

     total magnetization       =    80.50 Bohr mag/cell
     absolute magnetization    =    81.98 Bohr mag/cell

     iteration # 43     ecut=    50.00 Ry     beta= 0.10
     Davidson diagonalization with overlap
     ethr =  1.23E-06,  avg # of iterations =  2.0

     negative rho (up, down):  5.505E-03 5.488E-03
 
     Adding external electric field

     Computed dipole along edir(3) : 
        Dipole               -0.2467 Ry au,         -0.6272 Debye
        Dipole field         -0.0002 Ry au, 
 
        Potential amp.        0.0166 Ry
        Total length         54.2615 bohr
 
 
     Adding external electric field

     Computed dipole along edir(3) : 
        Dipole               -0.2467 Ry au,         -0.6272 Debye
        Dipole field         -0.0002 Ry au, 
 
        Potential amp.        0.0166 Ry
        Total length         54.2615 bohr
 

     total cpu time spent up to now is      574.6 secs

     total energy              =   -7398.03655907 Ry
     estimated scf accuracy    <       0.01251168 Ry

     total magnetization       =    80.51 Bohr mag/cell
     absolute magnetization    =    82.02 Bohr mag/cell

     iteration # 44     ecut=    50.00 Ry     beta= 0.10
     Davidson diagonalization with overlap
     ethr =  1.16E-06,  avg # of iterations =  2.0

     negative rho (up, down):  4.596E-03 4.442E-03
 
     Adding external electric field

     Computed dipole along edir(3) : 
        Dipole               -0.2722 Ry au,         -0.6919 Debye
        Dipole field         -0.0002 Ry au, 
 
        Potential amp.        0.0183 Ry
        Total length         54.2615 bohr
 
 
     Adding external electric field

     Computed dipole along edir(3) : 
        Dipole               -0.2722 Ry au,         -0.6919 Debye
        Dipole field         -0.0002 Ry au, 
 
        Potential amp.        0.0183 Ry
        Total length         54.2615 bohr
 

     total cpu time spent up to now is      587.7 secs

     total energy              =   -7398.03662795 Ry
     estimated scf accuracy    <       0.01217482 Ry

     total magnetization       =    80.53 Bohr mag/cell
     absolute magnetization    =    82.03 Bohr mag/cell

     iteration # 45     ecut=    50.00 Ry     beta= 0.10
     Davidson diagonalization with overlap
     ethr =  1.13E-06,  avg # of iterations =  1.0

     negative rho (up, down):  8.720E-03 9.352E-03
 
     Adding external electric field

     Computed dipole along edir(3) : 
        Dipole               -0.1294 Ry au,         -0.3289 Debye
        Dipole field         -0.0001 Ry au, 
 
        Potential amp.        0.0087 Ry
        Total length         54.2615 bohr
 
 
     Adding external electric field

     Computed dipole along edir(3) : 
        Dipole               -0.1294 Ry au,         -0.3289 Debye
        Dipole field         -0.0001 Ry au, 
 
        Potential amp.        0.0087 Ry
        Total length         54.2615 bohr
 

     total cpu time spent up to now is      599.5 secs

     total energy              =   -7398.03596162 Ry
     estimated scf accuracy    <       0.01311943 Ry

     total magnetization       =    80.54 Bohr mag/cell
     absolute magnetization    =    82.04 Bohr mag/cell

     iteration # 46     ecut=    50.00 Ry     beta= 0.10
     Davidson diagonalization with overlap
     c_bands:  3 eigenvalues not converged
     ethr =  1.13E-06,  avg # of iterations = 12.5

     negative rho (up, down):  1.248E-02 1.352E-02
 
     Adding external electric field

     Computed dipole along edir(3) : 
        Dipole               -0.0209 Ry au,         -0.0532 Debye
        Dipole field         -0.0000 Ry au, 
 
        Potential amp.        0.0014 Ry
        Total length         54.2615 bohr
 
 
     Adding external electric field

     Computed dipole along edir(3) : 
        Dipole               -0.0209 Ry au,         -0.0532 Debye
        Dipole field         -0.0000 Ry au, 
 
        Potential amp.        0.0014 Ry
        Total length         54.2615 bohr
 

     total cpu time spent up to now is      619.4 secs

     total energy              =   -7398.03494027 Ry
     estimated scf accuracy    <       0.00901426 Ry

     total magnetization       =    80.48 Bohr mag/cell
     absolute magnetization    =    81.99 Bohr mag/cell

     iteration # 47     ecut=    50.00 Ry     beta= 0.10
     Davidson diagonalization with overlap
     c_bands:  3 eigenvalues not converged
     ethr =  8.36E-07,  avg # of iterations = 12.0

     negative rho (up, down):  6.912E-03 7.594E-03
 
     Adding external electric field

     Computed dipole along edir(3) : 
        Dipole               -0.0448 Ry au,         -0.1138 Debye
        Dipole field         -0.0000 Ry au, 
 
        Potential amp.        0.0030 Ry
        Total length         54.2615 bohr
 
 
     Adding external electric field

     Computed dipole along edir(3) : 
        Dipole               -0.0448 Ry au,         -0.1138 Debye
        Dipole field         -0.0000 Ry au, 
 
        Potential amp.        0.0030 Ry
        Total length         54.2615 bohr
 

     total cpu time spent up to now is      638.3 secs

     total energy              =   -7398.03514732 Ry
     estimated scf accuracy    <       0.00543821 Ry

     total magnetization       =    80.49 Bohr mag/cell
     absolute magnetization    =    82.16 Bohr mag/cell

     iteration # 48     ecut=    50.00 Ry     beta= 0.10
     Davidson diagonalization with overlap
     ethr =  5.04E-07,  avg # of iterations =  2.5

     negative rho (up, down):  4.306E-04 5.118E-04
 
     Adding external electric field

     Computed dipole along edir(3) : 
        Dipole               -0.1378 Ry au,         -0.3504 Debye
        Dipole field         -0.0001 Ry au, 
 
        Potential amp.        0.0093 Ry
        Total length         54.2615 bohr
 
 
     Adding external electric field

     Computed dipole along edir(3) : 
        Dipole               -0.1378 Ry au,         -0.3504 Debye
        Dipole field         -0.0001 Ry au, 
 
        Potential amp.        0.0093 Ry
        Total length         54.2615 bohr
 

     total cpu time spent up to now is      651.2 secs

     total energy              =   -7398.03552718 Ry
     estimated scf accuracy    <       0.00346914 Ry

     total magnetization       =    80.49 Bohr mag/cell
     absolute magnetization    =    82.18 Bohr mag/cell

     iteration # 49     ecut=    50.00 Ry     beta= 0.10
     Davidson diagonalization with overlap
     ethr =  3.22E-07,  avg # of iterations = 13.0

     negative rho (up, down):  8.408E-05 1.092E-04
 
     Adding external electric field

     Computed dipole along edir(3) : 
        Dipole               -0.1436 Ry au,         -0.3650 Debye
        Dipole field         -0.0001 Ry au, 
 
        Potential amp.        0.0096 Ry
        Total length         54.2615 bohr
 
 
     Adding external electric field

     Computed dipole along edir(3) : 
        Dipole               -0.1436 Ry au,         -0.3650 Debye
        Dipole field         -0.0001 Ry au, 
 
        Potential amp.        0.0096 Ry
        Total length         54.2615 bohr
 

     total cpu time spent up to now is      671.5 secs

     total energy              =   -7398.03581942 Ry
     estimated scf accuracy    <       0.00171724 Ry

     total magnetization       =    80.48 Bohr mag/cell
     absolute magnetization    =    82.09 Bohr mag/cell

     iteration # 50     ecut=    50.00 Ry     beta= 0.10
     Davidson diagonalization with overlap
     ethr =  1.59E-07,  avg # of iterations =  2.0

     negative rho (up, down):  5.315E-04 5.461E-04
 
     Adding external electric field

     Computed dipole along edir(3) : 
        Dipole               -0.1238 Ry au,         -0.3148 Debye
        Dipole field         -0.0001 Ry au, 
 
        Potential amp.        0.0083 Ry
        Total length         54.2615 bohr
 
 
     Adding external electric field

     Computed dipole along edir(3) : 
        Dipole               -0.1238 Ry au,         -0.3148 Debye
        Dipole field         -0.0001 Ry au, 
 
        Potential amp.        0.0083 Ry
        Total length         54.2615 bohr
 

     total cpu time spent up to now is      684.2 secs

     total energy              =   -7398.03604983 Ry
     estimated scf accuracy    <       0.00099123 Ry

     total magnetization       =    80.49 Bohr mag/cell
     absolute magnetization    =    82.06 Bohr mag/cell

     iteration # 51     ecut=    50.00 Ry     beta= 0.10
     Davidson diagonalization with overlap
     ethr =  9.20E-08,  avg # of iterations =  2.0

     negative rho (up, down):  1.213E-04 7.510E-05
 
     Adding external electric field

     Computed dipole along edir(3) : 
        Dipole               -0.1376 Ry au,         -0.3498 Debye
        Dipole field         -0.0001 Ry au, 
 
        Potential amp.        0.0092 Ry
        Total length         54.2615 bohr
 
 
     Adding external electric field

     Computed dipole along edir(3) : 
        Dipole               -0.1376 Ry au,         -0.3498 Debye
        Dipole field         -0.0001 Ry au, 
 
        Potential amp.        0.0092 Ry
        Total length         54.2615 bohr
 

     total cpu time spent up to now is      696.4 secs

     total energy              =   -7398.03610753 Ry
     estimated scf accuracy    <       0.00063638 Ry

     total magnetization       =    80.48 Bohr mag/cell
     absolute magnetization    =    82.04 Bohr mag/cell

     iteration # 52     ecut=    50.00 Ry     beta= 0.10
     Davidson diagonalization with overlap
     ethr =  5.90E-08,  avg # of iterations =  2.0

     negative rho (up, down):  8.764E-05 4.089E-05
 
     Adding external electric field

     Computed dipole along edir(3) : 
        Dipole               -0.1463 Ry au,         -0.3717 Debye
        Dipole field         -0.0001 Ry au, 
 
        Potential amp.        0.0098 Ry
        Total length         54.2615 bohr
 
 
     Adding external electric field

     Computed dipole along edir(3) : 
        Dipole               -0.1463 Ry au,         -0.3717 Debye
        Dipole field         -0.0001 Ry au, 
 
        Potential amp.        0.0098 Ry
        Total length         54.2615 bohr
 

     total cpu time spent up to now is      709.0 secs

     total energy              =   -7398.03612091 Ry
     estimated scf accuracy    <       0.00046779 Ry

     total magnetization       =    80.48 Bohr mag/cell
     absolute magnetization    =    82.03 Bohr mag/cell

     iteration # 53     ecut=    50.00 Ry     beta= 0.10
     Davidson diagonalization with overlap
     ethr =  4.34E-08,  avg # of iterations =  2.0

     negative rho (up, down):  4.968E-06 4.814E-07
 
     Adding external electric field

     Computed dipole along edir(3) : 
        Dipole               -0.1629 Ry au,         -0.4140 Debye
        Dipole field         -0.0001 Ry au, 
 
        Potential amp.        0.0109 Ry
        Total length         54.2615 bohr
 
 
     Adding external electric field

     Computed dipole along edir(3) : 
        Dipole               -0.1629 Ry au,         -0.4140 Debye
        Dipole field         -0.0001 Ry au, 
 
        Potential amp.        0.0109 Ry
        Total length         54.2615 bohr
 

     total cpu time spent up to now is      721.8 secs

     total energy              =   -7398.03609921 Ry
     estimated scf accuracy    <       0.00044756 Ry

     total magnetization       =    80.48 Bohr mag/cell
     absolute magnetization    =    82.02 Bohr mag/cell

     iteration # 54     ecut=    50.00 Ry     beta= 0.10
     Davidson diagonalization with overlap
     ethr =  4.15E-08,  avg # of iterations =  1.5

     negative rho (up, down):  3.291E-06 2.400E-07
 
     Adding external electric field

     Computed dipole along edir(3) : 
        Dipole               -0.1855 Ry au,         -0.4714 Debye
        Dipole field         -0.0001 Ry au, 
 
        Potential amp.        0.0124 Ry
        Total length         54.2615 bohr
 
 
     Adding external electric field

     Computed dipole along edir(3) : 
        Dipole               -0.1855 Ry au,         -0.4714 Debye
        Dipole field         -0.0001 Ry au, 
 
        Potential amp.        0.0124 Ry
        Total length         54.2615 bohr
 

     total cpu time spent up to now is      733.8 secs

     total energy              =   -7398.03608017 Ry
     estimated scf accuracy    <       0.00036714 Ry

     total magnetization       =    80.48 Bohr mag/cell
     absolute magnetization    =    82.02 Bohr mag/cell

     iteration # 55     ecut=    50.00 Ry     beta= 0.10
     Davidson diagonalization with overlap
     ethr =  3.41E-08,  avg # of iterations =  2.0

     negative rho (up, down):  7.453E-05 4.012E-05
 
     Adding external electric field

     Computed dipole along edir(3) : 
        Dipole               -0.1875 Ry au,         -0.4765 Debye
        Dipole field         -0.0001 Ry au, 
 
        Potential amp.        0.0126 Ry
        Total length         54.2615 bohr
 
 
     Adding external electric field

     Computed dipole along edir(3) : 
        Dipole               -0.1875 Ry au,         -0.4765 Debye
        Dipole field         -0.0001 Ry au, 
 
        Potential amp.        0.0126 Ry
        Total length         54.2615 bohr
 

     total cpu time spent up to now is      747.0 secs

     total energy              =   -7398.03608984 Ry
     estimated scf accuracy    <       0.00022940 Ry

     total magnetization       =    80.48 Bohr mag/cell
     absolute magnetization    =    82.03 Bohr mag/cell

     iteration # 56     ecut=    50.00 Ry     beta= 0.10
     Davidson diagonalization with overlap
     ethr =  2.13E-08,  avg # of iterations =  2.0

     negative rho (up, down):  5.946E-04 5.128E-04
 
     Adding external electric field

     Computed dipole along edir(3) : 
        Dipole               -0.1692 Ry au,         -0.4301 Debye
        Dipole field         -0.0001 Ry au, 
 
        Potential amp.        0.0114 Ry
        Total length         54.2615 bohr
 
 
     Adding external electric field

     Computed dipole along edir(3) : 
        Dipole               -0.1692 Ry au,         -0.4301 Debye
        Dipole field         -0.0001 Ry au, 
 
        Potential amp.        0.0114 Ry
        Total length         54.2615 bohr
 

     total cpu time spent up to now is      759.9 secs

     total energy              =   -7398.03610996 Ry
     estimated scf accuracy    <       0.00017431 Ry

     total magnetization       =    80.47 Bohr mag/cell
     absolute magnetization    =    82.03 Bohr mag/cell

     iteration # 57     ecut=    50.00 Ry     beta= 0.10
     Davidson diagonalization with overlap
     ethr =  1.62E-08,  avg # of iterations =  2.0

     negative rho (up, down):  6.858E-04 5.689E-04
 
     Adding external electric field

     Computed dipole along edir(3) : 
        Dipole               -0.1719 Ry au,         -0.4370 Debye
        Dipole field         -0.0001 Ry au, 
 
        Potential amp.        0.0115 Ry
        Total length         54.2615 bohr
 
 
     Adding external electric field

     Computed dipole along edir(3) : 
        Dipole               -0.1719 Ry au,         -0.4370 Debye
        Dipole field         -0.0001 Ry au, 
 
        Potential amp.        0.0115 Ry
        Total length         54.2615 bohr
 

     total cpu time spent up to now is      773.3 secs

     total energy              =   -7398.03611322 Ry
     estimated scf accuracy    <       0.00012310 Ry

     total magnetization       =    80.47 Bohr mag/cell
     absolute magnetization    =    82.02 Bohr mag/cell

     iteration # 58     ecut=    50.00 Ry     beta= 0.10
     Davidson diagonalization with overlap
     ethr =  1.14E-08,  avg # of iterations =  2.0

     negative rho (up, down):  6.749E-04 5.011E-04
 
     Adding external electric field

     Computed dipole along edir(3) : 
        Dipole               -0.1635 Ry au,         -0.4156 Debye
        Dipole field         -0.0001 Ry au, 
 
[...]
    -5.9937  -5.9670  -5.9556  -5.9225  -5.9089  -5.8652  -5.8571  -5.8479
    -5.8112  -5.8044  -5.7495  -5.7343  -5.7228  -5.7064  -5.6926  -5.6783
    -5.6695  -5.6644  -5.6324  -5.6162  -5.6090  -5.5765  -5.5298  -5.5042
    -5.4691  -5.4317  -5.4053  -5.3975  -5.3842  -5.3478  -5.3059  -5.2837
    -5.2369  -5.2105  -5.1846  -5.1692  -5.1683  -5.0806  -5.0768  -5.0540
    -4.9822  -4.9746  -4.9360  -4.9106  -4.8856  -4.8743  -4.8564  -4.7938
    -4.7771  -4.7592  -4.7501  -4.7309  -4.6407  -4.6266  -4.5709  -4.5479
    -4.5217  -4.5155  -4.4996  -4.4580  -4.4093  -4.3902  -4.3772  -4.3675
    -4.3566  -4.2976  -4.2911  -4.2263  -4.1705  -4.1403  -4.1033  -4.0929
    -4.0752  -4.0435  -4.0325  -3.9935  -3.9608  -3.9518  -3.9103  -3.8949
    -3.8747  -3.8367  -3.8219  -3.8053  -3.7934  -3.7591  -3.7454  -3.7287
    -3.6970  -3.6838  -3.6623  -3.6413  -3.6391  -3.6326  -3.5903  -3.5792
    -3.5412  -3.5232  -3.5081  -3.4920  -3.4855  -3.4737  -3.4514  -3.4388
    -3.4264  -3.3959  -3.3824  -3.3451  -3.3349  -3.3116  -3.2608  -3.2497
    -3.2302  -3.2131  -3.2115  -3.1806  -3.1749  -3.1636  -3.1468  -3.1398
    -3.1258  -3.0751  -3.0344  -3.0288  -3.0021  -2.9981  -2.9655  -2.9372
    -2.9156  -2.9144  -2.8976  -2.8690  -2.8546  -2.8336  -2.8143  -2.8066
    -2.7962  -2.7834  -2.7769  -2.7649  -2.7422  -2.7347  -2.7220  -2.6966
    -2.6783  -2.6636  -2.6593  -2.6478  -2.6211  -2.6083  -2.5895  -2.5779
    -2.5486  -2.5334  -2.5247  -2.5152  -2.4915  -2.4767  -2.4649  -2.4346
    -2.4106  -2.3950  -2.3904  -2.3673  -2.3539  -2.3100  -2.2910  -2.2821
    -2.2612  -2.2382  -2.2271  -2.2065  -2.1733  -2.1550  -2.1244  -2.1187
    -2.1086  -2.0836  -2.0753  -2.0679  -2.0658  -2.0350  -2.0030  -1.9864
    -1.9728  -1.9606  -1.9540  -1.9381  -1.9240  -1.9165  -1.8898  -1.8549
    -1.8397  -1.8161  -1.7855  -1.7618  -1.7339  -1.7214  -1.6962  -1.6931
    -1.6559  -1.6512  -1.6453  -1.6265  -1.6119  -1.6051  -1.5848  -1.5453
    -1.5341  -1.5114  -1.4699  -1.4638  -1.4413  -1.4315  -1.4177  -1.4096
    -1.3854  -1.3810  -1.3391  -1.3171  -1.2952  -1.2381  -1.2336  -1.2019
    -1.1482  -1.1005  -1.0761  -1.0504  -1.0115  -0.9244  -0.9090  -0.8742
    -0.7679  -0.6708  -0.6115  -0.5966  -0.4612  -0.3646  -0.3286  -0.2569
     0.1054   0.1279   0.1565   0.1943   0.2278   0.2450   0.2619   0.2737
     0.2821   0.2986   0.3023   0.3048   0.3119   0.3329   0.3454   0.3510
     0.3568   0.3590   0.3760   0.3817   0.3860   0.3964   0.3986   0.4098
     0.4139   0.4165   0.4260   0.4392   0.4466   0.4544   0.4591   0.4631
     0.4663   0.4724   0.4756   0.4939   0.4953   0.5013   0.5137   0.5161
     0.5227   0.5453   0.5476   0.5517   0.5607   0.5663   0.5690   0.5732
     0.5789   0.5901   0.5931   0.5962   0.6104   0.6172   0.6251   0.6371
     0.6406   0.6494   0.6564   0.6682   0.6759   0.6773   0.6891   0.6932
     0.6938   0.7032   0.7126   0.7164   0.7216   0.7372   0.7420   0.7470
     0.7504   0.7567   0.7705   0.7815   0.7885   0.7996   0.8092   0.8229
     0.8296   0.8388   0.8460   0.8632   0.8659   0.8732   0.8814   0.8833
     0.8988   0.9156   0.9200   0.9280   0.9366   0.9729   0.9885   1.0442
     1.0738   1.1375   1.6068   1.6599   1.7027   1.7136   1.7158   1.7430
     1.7727   1.8360   1.8719   1.8752   1.8974   1.9332   1.9376   1.9676
     1.9798   1.9925   2.0180   2.0403   2.0528   2.0736   2.0855   2.1124
     2.1449   2.1576   2.1810   2.1917   2.1993   2.2179   2.2267   2.2461
     2.2534   2.2568   2.2699   2.2831   2.2894   2.2986   2.3086   2.3252
     2.3395   2.3451   2.3671   2.3888   2.4049   2.4211   2.4353   2.4489
     2.4577   2.4759   2.5005   2.5067   2.5154   2.5339   2.5560   2.5701
     2.5818   2.5885   2.6125   2.6400   2.6629   2.6749   2.7372   2.7630
     2.7848   2.8356   2.8446   2.9068   2.9191   3.5914   3.5922   3.6664
     3.7628   3.8275   3.8444   3.8590   3.8635   4.0018   4.0672   4.5918
     4.6474   4.7102   4.7762   4.9267   4.9507   5.0219   5.4158   6.2974
     6.3629   6.5448   6.5910   6.7790   6.8166   6.8445   6.8802   6.9266
     7.0160   7.0681   7.0988   7.1218   7.3219   7.3663   7.3792   7.4161
     7.5012   7.5565   7.6552   7.6774   7.6877   7.7563   7.7898   7.8112
     7.8642   7.9220   7.9526   7.9791   8.0227   8.0323   8.0626   8.0716
     8.0943   8.1186   8.1622   8.2030   8.2365   8.2661   8.3004   8.3293
     8.3808   8.4122   8.4189   8.4434   8.4628   8.4801   8.5022   8.5135
     8.5328   8.5588   8.5852   8.5988   8.6218   8.6448   8.6814   8.6921
     8.7226   8.7679   8.7964   8.7983   8.8249   8.8582   8.8767

     the Fermi energy is     1.5670 ev

!    total energy              =   -7398.03616915 Ry
     estimated scf accuracy    <       0.00000058 Ry
     smearing contrib. (-TS)   =      -0.01405684 Ry
     internal energy E=F+TS    =   -7398.02211230 Ry

     The total energy is F=E-TS. E is the sum of the following terms:
     one-electron contribution =  -91688.41428392 Ry
     hartree contribution      =   46492.25086742 Ry
     xc contribution           =   -2260.27093353 Ry
     ewald contribution        =   40060.24580273 Ry
     Dispersion Correction     =      -1.83357629 Ry
     electric field correction =       0.00001128 Ry

     total magnetization       =    80.47 Bohr mag/cell
     absolute magnetization    =    82.00 Bohr mag/cell

     convergence has been achieved in  67 iterations

     negative rho (up, down):  9.310E-04 5.480E-04

     Forces acting on atoms (cartesian axes, Ry/au):

     atom    1 type  2   force =     0.03097897   -0.01970100   -0.01639498
     atom    2 type  1   force =     0.00210183   -0.00393718   -0.01075074
     atom    3 type  1   force =    -0.02156242   -0.02069389    0.01801283
     atom    4 type  1   force =     0.00140313    0.01018469   -0.01272569
     atom    5 type  1   force =    -0.00478023    0.02903696   -0.01862255
     atom    6 type  1   force =     0.00585047    0.00052742   -0.00059760
     atom    7 type  1   force =     0.02690146   -0.02100282    0.01725759
     atom    8 type  1   force =    -0.00959546   -0.00306966   -0.01104877
     atom    9 type  1   force =    -0.02980874   -0.01822676    0.01597926
     atom   10 type  1   force =    -0.00113007    0.00803573   -0.01302963
     atom   11 type  1   force =    -0.01318926    0.03039261   -0.02080030
     atom   12 type  1   force =     0.00128157    0.00662069   -0.00427338
     atom   13 type  3   force =     0.05101597   -0.11001853    0.00918583
     atom   14 type  3   force =    -0.02903816    0.03593061   -0.06516974
     atom   15 type  3   force =    -0.00921213    0.17549196   -0.08316690
     atom   16 type  3   force =     0.06069415    0.00055015   -0.00436592
     atom   17 type  4   force =     0.01517557   -0.02184082   -0.00977171
     atom   18 type  4   force =    -0.00538561    0.00479738    0.02963757
     atom   19 type  4   force =     0.00213406    0.00098063    0.03071866
     atom   20 type  4   force =     0.00511823    0.00189485    0.00237982
     atom   21 type  4   force =     0.00057826   -0.01201267    0.00000479
     atom   22 type  4   force =    -0.00092016    0.00384113    0.03255788
     atom   23 type  4   force =    -0.00609152    0.01463968    0.02749742
     atom   24 type  4   force =     0.00867248    0.00322615   -0.00427437
     atom   25 type  4   force =     0.00648488   -0.00325518    0.00156221
     atom   26 type  4   force =     0.03115285   -0.17827797    0.00724924
     atom   27 type  4   force =     0.00286279    0.00100844    0.00169393
     atom   28 type  4   force =    -0.01699310    0.00168100    0.00475232
     atom   29 type  4   force =     0.09128446    0.00312914    0.00806077
     atom   30 type  4   force =     0.01308908   -0.02509896   -0.00089705
     atom   31 type  4   force =    -0.03846514    0.13335040   -0.00018082
     atom   32 type  4   force =    -0.00552406   -0.01187640    0.00652982
     atom   33 type  3   force =     0.04157432   -0.11919809    0.00964162
     atom   34 type  3   force =    -0.10167962    0.04258528   -0.07574470
     atom   35 type  3   force =    -0.01352009    0.16599313   -0.08810048
     atom   36 type  3   force =    -0.00358724    0.00255023   -0.01040845
     atom   37 type  4   force =     0.00823513   -0.01467295   -0.00235531
     atom   38 type  4   force =    -0.00585270   -0.00173286    0.02739375
     atom   39 type  4   force =    -0.00469412    0.00721292    0.03213621
     atom   40 type  4   force =     0.00128699    0.00005597    0.00248175
     atom   41 type  4   force =    -0.00152034   -0.00963457   -0.00150036
     atom   42 type  4   force =     0.00542261   -0.00056210    0.02942460
     atom   43 type  4   force =    -0.01046383    0.01347313    0.02713106
     atom   44 type  4   force =     0.00445718    0.00348464   -0.00447019
     atom   45 type  4   force =    -0.00031527   -0.00061505    0.00201348
     atom   46 type  4   force =     0.02812137   -0.17050429    0.00541743
     atom   47 type  4   force =    -0.06553480   -0.00073073   -0.00310593
     atom   48 type  4   force =    -0.01981212    0.00391198    0.00530736
     atom   49 type  4   force =     0.01401059    0.00084834    0.00205171
     atom   50 type  4   force =     0.00795964   -0.02432622   -0.00015270
     atom   51 type  4   force =    -0.03976135    0.13334272   -0.00135748
     atom   52 type  4   force =    -0.00779377   -0.01066282    0.00876356
     atom   53 type  2   force =     0.00633440   -0.00728324    0.00586332
     atom   54 type  1   force =     0.00058314   -0.00452280    0.00798196
     atom   55 type  1   force =     0.00501628   -0.00628296    0.00681213
     atom   56 type  1   force =     0.00073668    0.00584856    0.00300512
     atom   57 type  1   force =     0.00092778    0.02197789   -0.01387873
     atom   58 type  1   force =     0.00150187   -0.00335289    0.00253075
     atom   59 type  1   force =     0.00255031   -0.01017100    0.00391002
     atom   60 type  1   force =    -0.00678868   -0.00287124    0.00367041
     atom   61 type  1   force =    -0.00471007   -0.00506035    0.00676411
     atom   62 type  1   force =    -0.00361293    0.00595754   -0.00074531
     atom   63 type  1   force =    -0.01112349    0.02506454   -0.01748386
     atom   64 type  1   force =    -0.00222227    0.00120138   -0.00061310
     atom   65 type  3   force =     0.04516327   -0.11954523    0.01965177
     atom   66 type  3   force =     0.00159186   -0.00444748    0.00059833
     atom   67 type  3   force =    -0.04073091    0.12369517   -0.00681868
     atom   68 type  3   force =     0.06329290   -0.00209617    0.00757443
     atom   69 type  4   force =     0.01273218   -0.01726954   -0.00284976
     atom   70 type  4   force =    -0.00168928    0.00346257   -0.00051865
     atom   71 type  4   force =    -0.00185064    0.00337035    0.00527807
     atom   72 type  4   force =     0.00463598    0.00160818    0.00077535
     atom   73 type  4   force =     0.00872350   -0.01688386    0.01184737
     atom   74 type  4   force =    -0.00437967   -0.00338548    0.00939239
     atom   75 type  4   force =     0.00351869    0.00863665    0.00456126
     atom   76 type  4   force =     0.00589967    0.00081263   -0.00211368
     atom   77 type  4   force =     0.00609592   -0.00184444   -0.00107748
     atom   78 type  4   force =     0.04532066   -0.14089019    0.00577840
     atom   79 type  4   force =     0.00026603    0.00035909   -0.00072530
     atom   80 type  4   force =     0.00156565    0.00188154    0.00218643
     atom   81 type  4   force =     0.06738128    0.00015156    0.00649637
     atom   82 type  4   force =     0.00020569    0.00243237    0.00132200
     atom   83 type  4   force =    -0.03902815    0.13792543   -0.00270632
     atom   84 type  4   force =    -0.00111057   -0.01068483    0.00374684
     atom   85 type  3   force =     0.03948963   -0.12370570    0.02503964
     atom   86 type  3   force =    -0.06327090   -0.00171614   -0.00370051
     atom   87 type  3   force =    -0.04611302    0.12085120   -0.01040427
     atom   88 type  3   force =    -0.00011863   -0.00163661    0.00284725
     atom   89 type  4   force =     0.00862154   -0.01528296   -0.00483659
     atom   90 type  4   force =    -0.00452248    0.00101176   -0.00094863
     atom   91 type  4   force =    -0.00952391    0.00831077    0.00544321
     atom   92 type  4   force =     0.00040439    0.00000275    0.00003976
     atom   93 type  4   force =     0.00124746   -0.01174747    0.00074225
     atom   94 type  4   force =    -0.00906281   -0.00294214    0.00832057
     atom   95 type  4   force =    -0.00031945    0.00775359    0.00298901
     atom   96 type  4   force =    -0.00086548    0.00070506    0.00008901
     atom   97 type  4   force =    -0.00103195    0.00190848   -0.00014273
     atom   98 type  4   force =     0.04054526   -0.13918756    0.00484156
     atom   99 type  4   force =    -0.06735689   -0.00086753   -0.00600643
     atom  100 type  4   force =    -0.00045638    0.00279292    0.00291553
     atom  101 type  4   force =    -0.00124263    0.00011469    0.00145317
     atom  102 type  4   force =    -0.00685194    0.00550145    0.00156538
     atom  103 type  4   force =    -0.04032021    0.13539508   -0.00428213
     atom  104 type  4   force =    -0.00605437   -0.01006065    0.00503781
     atom  105 type  2   force =    -0.00024830    0.00016723   -0.00027647
     atom  106 type  1   force =     0.00036526   -0.00051302   -0.00050994
     atom  107 type  1   force =     0.00035029    0.00010414    0.00030153
     atom  108 type  1   force =    -0.00226248    0.00161091   -0.00239208
     atom  109 type  1   force =     0.00025239   -0.00077797   -0.00031070
     atom  110 type  1   force =    -0.00041210    0.00004761   -0.00048148
     atom  111 type  1   force =    -0.00000385   -0.00043646    0.00002013
     atom  112 type  1   force =     0.00012263    0.00027196   -0.00042307
     atom  113 type  1   force =     0.00007654   -0.00025437   -0.00040754
     atom  114 type  1   force =    -0.00006853    0.00003772    0.00005206
     atom  115 type  1   force =    -0.00001732    0.00033360   -0.00015379
     atom  116 type  1   force =    -0.00041629    0.00022894   -0.00034780
     atom  117 type  3   force =    -0.00080613   -0.00089019    0.00009365
     atom  118 type  3   force =    -0.00016270   -0.00003430    0.00017621
     atom  119 type  3   force =     0.00005397    0.00008131   -0.00059373
     atom  120 type  3   force =     0.00007383   -0.00004741   -0.00022677
     atom  121 type  4   force =     0.00044991    0.00028642    0.00079684
     atom  122 type  4   force =    -0.00020815    0.00021016    0.00018309
     atom  123 type  4   force =     0.00006579   -0.00005831   -0.00032352
     atom  124 type  4   force =     0.00039948   -0.00044348    0.00011770
     atom  125 type  4   force =     0.00060014    0.00042835   -0.00040212
     atom  126 type  4   force =    -0.00009934   -0.00018664   -0.00015864
     atom  127 type  4   force =     0.00048298   -0.00027478   -0.00006365
     atom  128 type  4   force =     0.00002276    0.00041191   -0.00003641
     atom  129 type  4   force =     0.00037374   -0.00020057    0.00029418
     atom  130 type  4   force =    -0.00011830   -0.00012754    0.00024036
     atom  131 type  4   force =    -0.00059112   -0.00021333    0.00003671
     atom  132 type  4   force =     0.00001461   -0.00009057   -0.00026007
     atom  133 type  4   force =    -0.00003077    0.00016705   -0.00021472
     atom  134 type  4   force =     0.00000925    0.00021105   -0.00029706
     atom  135 type  4   force =     0.00016673    0.00064804   -0.00038745
     atom  136 type  4   force =    -0.00029064   -0.00011472   -0.00006704
     atom  137 type  3   force =    -0.00050423   -0.00000500    0.00004786
     atom  138 type  3   force =     0.00014318    0.00002850    0.00001091
     atom  139 type  3   force =    -0.00020215   -0.00032159    0.00005626
     atom  140 type  3   force =     0.00018223   -0.00006466    0.00023938
     atom  141 type  4   force =     0.00013638   -0.00013414    0.00016014
     atom  142 type  4   force =     0.00012025   -0.00004739    0.00013430
     atom  143 type  4   force =    -0.00009008   -0.00004769   -0.00015269
     atom  144 type  4   force =    -0.00040601   -0.00056524   -0.00052273
     atom  145 type  4   force =    -0.00016822   -0.00021137   -0.00048101
     atom  146 type  4   force =    -0.00021074    0.00009242   -0.00005129
     atom  147 type  4   force =     0.00024963   -0.00015229    0.00001949
     atom  148 type  4   force =    -0.00067612   -0.00052436    0.00012605
     atom  149 type  4   force =    -0.00002668    0.00021869    0.00006930
     atom  150 type  4   force =    -0.00015428   -0.00023621   -0.00018403
     atom  151 type  4   force =    -0.00023173   -0.00003261    0.00040854
     atom  152 type  4   force =    -0.00010251   -0.00035422   -0.00016480
     atom  153 type  4   force =    -0.00011391    0.00023506    0.00000290
     atom  154 type  4   force =     0.00008125    0.00022514    0.00001777
     atom  155 type  4   force =    -0.00005137    0.00006243    0.00017935
     atom  156 type  4   force =     0.00011623    0.00020979    0.00001464
     atom  157 type  4   force =     0.00527044    0.00085203    0.00438588
     atom  158 type  5   force =    -0.00311689   -0.00193121   -0.00109016

     Total force =     0.664884     Total SCF correction =     0.003499
 
     init_run     :      7.01s CPU      7.73s WALL (       1 calls)
     electrons    :    857.24s CPU    897.95s WALL (       1 calls)
     forces       :      3.75s CPU      4.16s WALL (       1 calls)
     force_london :      0.09s CPU      0.09s WALL (       1 calls)

     Called by init_run:
     wfcinit      :      4.25s CPU      4.42s WALL (       1 calls)
     potinit      :      0.53s CPU      0.72s WALL (       1 calls)
     hinit0       :      1.19s CPU      1.30s WALL (       1 calls)

     Called by electrons:
     c_bands      :    679.13s CPU    700.34s WALL (      67 calls)
     sum_band     :    115.04s CPU    125.61s WALL (      67 calls)
     v_of_rho     :     12.62s CPU     13.68s WALL (      68 calls)
     newd         :     32.29s CPU     40.37s WALL (      68 calls)
     mix_rho      :     17.64s CPU     17.71s WALL (      67 calls)
     energy_londo :      0.08s CPU      0.08s WALL (       1 calls)

     Called by c_bands:
     init_us_2    :      1.95s CPU      2.00s WALL (     272 calls)
     init_us_2:cp :      1.95s CPU      2.00s WALL (     272 calls)
     regterg      :    664.37s CPU    685.40s WALL (     134 calls)

     Called by *egterg:
     rdiaghg      :    191.61s CPU    201.42s WALL (     548 calls)
     h_psi        :    256.33s CPU    261.58s WALL (     550 calls)
     s_psi        :     48.78s CPU     48.81s WALL (     550 calls)
     g_psi        :      0.33s CPU      0.34s WALL (     414 calls)

     Called by h_psi:
     h_psi:calbec :     67.16s CPU     71.35s WALL (     550 calls)
     vloc_psi     :    138.55s CPU    139.14s WALL (     550 calls)
     add_vuspsi   :     50.01s CPU     50.46s WALL (     550 calls)

     General routines
     calbec       :    100.32s CPU    106.43s WALL (     692 calls)
     fft          :     12.91s CPU     14.26s WALL (    1237 calls)
     ffts         :     10.62s CPU     10.66s WALL (    8321 calls)
     fftw         :    159.21s CPU    159.84s WALL (  224980 calls)
     interpolate  :      1.04s CPU      1.12s WALL (     136 calls)
 
     Parallel routines
 
     PWSCF        :  14m30.12s CPU  15m12.21s WALL

 
   This run was terminated on:  20:48:52  19Nov2025            

=------------------------------------------------------------------------------=
   JOB DONE.
=------------------------------------------------------------------------------=
