
     Program PWSCF v.7.2 starts on 19Nov2025 at 21:31: 3 

     This program is part of the open-source Quantum ESPRESSO suite
     for quantum simulation of materials; please cite
         "P. Giannozzi et al., J. Phys.:Condens. Matter 21 395502 (2009);
         "P. Giannozzi et al., J. Phys.:Condens. Matter 29 465901 (2017);
         "P. Giannozzi et al., J. Chem. Phys. 152 154105 (2020);
          URL http://www.quantum-espresso.org", 
     in publications or presentations arising from this work. More details at
     http://www.quantum-espresso.org/quote

     Parallel version (MPI), running on    64 processors

     MPI processes distributed on     4 nodes
     441267 MiB available memory on the printing compute node when the environment starts
 
     Reading input from PWINPUT_atm158_ym

     Current dimensions of program PWSCF are:
     Max number of different atomic species (ntypx) = 10
     Max number of k-points (npk) =  40000
     Max angular momentum in pseudopotentials (lmaxx) =  4
     Presently no symmetry can be used with electric field

     file Ni.pbe-n-rrkjus_psl.1.0.0.UPF: wavefunction(s)  3D renormalized
     file Mn.pbe-spn-rrkjus_psl.0.3.1.UPF: wavefunction(s)  3D renormalized
     file O.pbe-rrkjus.UPF: wavefunction(s)  2S renormalized
     file H.pbe-rrkjus.UPF: wavefunction(s)  1S renormalized

     gamma-point specific algorithms are used
 
     R & G space division:  proc/nbgrp/npool/nimage =      64
     Subspace diagonalization in iterative solution of the eigenvalue problem:
     one sub-group per band group will be used
     custom distributed-memory algorithm (size of sub-group:  6*  6 procs)

 
     Parallelization info
     --------------------
     sticks:   dense  smooth     PW     G-vecs:    dense   smooth      PW
     Min         208      82     20                59912    15118    1876
     Max         210      84     22                59974    15196    1926
     Sum       13399    5355   1345              3836275   970529  121367
 
     Using Slab Decomposition
 


     bravais-lattice index     =            0
     lattice parameter (alat)  =      17.7004  a.u.
     unit-cell volume          =   20319.7251 (a.u.)^3
     number of atoms/cell      =          158
     number of atomic types    =            5
     number of electrons       =      1078.00
     number of Kohn-Sham states=          647
     kinetic-energy cutoff     =      50.0000  Ry
     charge density cutoff     =     500.0000  Ry
     scf convergence threshold =      1.0E-06
     mixing beta               =       0.1000
     number of iterations used =            8  local-TF  mixing
     Exchange-correlation=  SLA  PW   PBE  PBE
                           (   1   4   3   4   0   0   0)

     celldm(1)=  17.700384  celldm(2)=   0.000000  celldm(3)=   0.000000
     celldm(4)=   0.000000  celldm(5)=   0.000000  celldm(6)=   0.000000

     crystal axes: (cart. coord. in units of alat)
               a(1) = (   1.000000   0.000000   0.000000 )  
               a(2) = (   0.000000   1.075730   0.000000 )  
               a(3) = (   0.000000   0.000000   3.406172 )  

     reciprocal axes: (cart. coord. in units 2 pi/alat)
               b(1) = (  1.000000  0.000000  0.000000 )  
               b(2) = (  0.000000  0.929602  0.000000 )  
               b(3) = (  0.000000  0.000000  0.293585 )  


     PseudoPot. # 1 for Ni read from file:
     ~/PSEUDO/Ni.pbe-n-rrkjus_psl.1.0.0.UPF
     MD5 check sum: Not computed, couldn't open file
     Pseudo is Ultrasoft + core correction, Zval = 10.0
     Generated using "atomic" code by A. Dal Corso  v.5.1.2
     Using radial grid of 1195 points,  6 beta functions with: 
                l(1) =   0
                l(2) =   0
                l(3) =   1
                l(4) =   1
                l(5) =   2
                l(6) =   2
     Q(r) pseudized with 0 coefficients 


     PseudoPot. # 2 for Mn read from file:
     ~/PSEUDO/Mn.pbe-spn-rrkjus_psl.0.3.1.UPF
     MD5 check sum: Not computed, couldn't open file
     Pseudo is Ultrasoft + core correction, Zval = 15.0
     Generated using &quot;atomic&quot; code by A. Dal Corso  v.6.2.2
     Using radial grid of 1187 points,  6 beta functions with: 
                l(1) =   0
                l(2) =   0
                l(3) =   1
                l(4) =   1
                l(5) =   2
                l(6) =   2
     Q(r) pseudized with 0 coefficients 


     PseudoPot. # 3 for P  read from file:
     ~/PSEUDO/P.pbe-n-rrkjus_psl.1.0.0.UPF
     MD5 check sum: Not computed, couldn't open file
     Pseudo is Ultrasoft + core correction, Zval =  5.0
     Generated using "atomic" code by A. Dal Corso  v.5.1
     Using radial grid of 1147 points,  6 beta functions with: 
                l(1) =   0
                l(2) =   0
                l(3) =   1
                l(4) =   1
                l(5) =   2
                l(6) =   2
     Q(r) pseudized with 0 coefficients 


     PseudoPot. # 4 for O  read from file:
     ~/PSEUDO/O.pbe-rrkjus.UPF
     MD5 check sum: Not computed, couldn't open file
     Pseudo is Ultrasoft, Zval =  6.0
     Generated by new atomic code, or converted to UPF format
     Using radial grid of 1269 points,  4 beta functions with: 
                l(1) =   0
                l(2) =   0
                l(3) =   1
                l(4) =   1
     Q(r) pseudized with 0 coefficients 


     PseudoPot. # 5 for H  read from file:
     ~/PSEUDO/H.pbe-rrkjus.UPF
     MD5 check sum: Not computed, couldn't open file
     Pseudo is Ultrasoft, Zval =  1.0
     Generated by new atomic code, or converted to UPF format
     Using radial grid of 1061 points,  2 beta functions with: 
                l(1) =   0
                l(2) =   0
     Q(r) pseudized with 0 coefficients 


     atomic species   valence    mass     pseudopotential
     Ni               10.00    58.69300     Ni( 1.00)
     Mn               15.00    54.93800     Mn( 1.00)
     P                 5.00    30.97300     P ( 1.00)
     O                 6.00    15.99900     O ( 1.00)
     H                 1.00     1.00790     H ( 1.00)

     Starting magnetic structure 
     atomic species   magnetization
     Ni              1.000
     Mn              1.000
     P               1.000
     O               1.000
     H               0.000

     No symmetry found



   Cartesian axes

     site n.     atom                  positions (alat units)
         1        Mn     tau(   1) = (   0.2404744   0.8371250   0.1168501  )
         2        Ni     tau(   2) = (   0.4968126   0.7726670   0.4415546  )
         3        Ni     tau(   3) = (   0.0066150   0.2936743   0.1241053  )
         4        Ni     tau(   4) = (   0.2585722   0.2355858   0.4448848  )
         5        Ni     tau(   5) = (   0.9987350   1.0696411   0.2854926  )
         6        Ni     tau(   6) = (   0.2517397   0.5330511   0.2829322  )
         7        Ni     tau(   7) = (   0.7451645   0.8337543   0.1221751  )
         8        Ni     tau(   8) = (   0.9939181   0.7738804   0.4407595  )
         9        Ni     tau(   9) = (   0.5111533   0.2924088   0.1251865  )
        10        Ni     tau(  10) = (   0.7606326   0.2319267   0.4451372  )
        11        Ni     tau(  11) = (   0.5024065   1.0688133   0.2870502  )
        12        Ni     tau(  12) = (   0.7529977   0.5317900   0.2845227  )
        13        P      tau(  13) = (   0.2092944   0.9731097   0.4345035  )
        14        P      tau(  14) = (   0.4655727   0.6359535   0.1274635  )
        15        P      tau(  15) = (   0.2910699   0.1027363   0.1296098  )
        16        P      tau(  16) = (   0.0396216   0.4288395   0.4398838  )
        17        O      tau(  17) = (   0.1294378   0.9013260   0.3010618  )
        18        O      tau(  18) = (   0.3874505   0.7054774   0.2637003  )
        19        O      tau(  19) = (   0.3702540   0.1714799   0.2660028  )
        20        O      tau(  20) = (   0.1184398   0.3582958   0.3038353  )
        21        O      tau(  21) = (   0.1451572   0.8850881   0.5587578  )
        22        O      tau(  22) = (   0.4048762   0.7245585   0.0017492  )
        23        O      tau(  23) = (   0.3523506   0.1900579   0.0035744  )
        24        O      tau(  24) = (   0.1017610   0.3410484   0.5656572  )
        25        O      tau(  25) = (   0.0975396   0.5849288   0.4357922  )
        26        O      tau(  26) = (   0.3483552   1.0314945   0.1270322  )
        27        O      tau(  27) = (   0.3784305   0.4225118   0.4308928  )
        28        O      tau(  28) = (   0.1268237   0.1067944   0.1392744  )
        29        O      tau(  29) = (   0.1212267   0.6424170   0.1362896  )
        30        O      tau(  30) = (   0.4053315   0.4809387   0.1300622  )
        31        O      tau(  31) = (   0.1536621   0.0446918   0.4373386  )
        32        O      tau(  32) = (   0.3732349   0.9631717   0.4256642  )
        33        P      tau(  33) = (   0.7119823   0.9695974   0.4373010  )
        34        P      tau(  34) = (   0.9615208   0.6363392   0.1262932  )
        35        P      tau(  35) = (   0.7927710   0.0970060   0.1292164  )
        36        P      tau(  36) = (   0.5426404   0.4269675   0.4410738  )
        37        O      tau(  37) = (   0.6326879   0.8991182   0.3013240  )
        38        O      tau(  38) = (   0.8842163   0.7083206   0.2625155  )
        39        O      tau(  39) = (   0.8716178   0.1677751   0.2653504  )
        40        O      tau(  40) = (   0.6212010   0.3558666   0.3051085  )
        41        O      tau(  41) = (   0.6507714   0.8812342   0.5631722  )
        42        O      tau(  42) = (   0.9014054   0.7264458   0.0010676  )
        43        O      tau(  43) = (   0.8548963   0.1847909   0.0035471  )
        44        O      tau(  44) = (   0.6044469   0.3378706   0.5660366  )
        45        O      tau(  45) = (   0.6024424   0.5823140   0.4379016  )
        46        O      tau(  46) = (   0.8498940   1.0254482   0.1275156  )
        47        O      tau(  47) = (   0.8798395   0.4205825   0.4305771  )
        48        O      tau(  48) = (   0.6286921   0.1034636   0.1397346  )
        49        O      tau(  49) = (   0.6294973   0.6427753   0.1372553  )
        50        O      tau(  50) = (   0.9024339   0.4810312   0.1296418  )
        51        O      tau(  51) = (   0.6547812   0.0410987   0.4396636  )
        52        O      tau(  52) = (   0.8760507   0.9632605   0.4264507  )
        53        Mn     tau(  53) = (   0.2404744   0.8246335   0.7367378  )
        54        Ni     tau(  54) = (   0.4968126   0.7601755   1.0614423  )
        55        Ni     tau(  55) = (   0.0066150   0.2811828   0.7439929  )
        56        Ni     tau(  56) = (   0.2585722   0.2230943   1.0647725  )
        57        Ni     tau(  57) = (   0.9987350   1.0571496   0.9053803  )
        58        Ni     tau(  58) = (   0.2517397   0.5205596   0.9028199  )
        59        Ni     tau(  59) = (   0.7451645   0.8212628   0.7420628  )
        60        Ni     tau(  60) = (   0.9939181   0.7613889   1.0606471  )
        61        Ni     tau(  61) = (   0.5111533   0.2799173   0.7450742  )
        62        Ni     tau(  62) = (   0.7606326   0.2194352   1.0650249  )
        63        Ni     tau(  63) = (   0.5024065   1.0563218   0.9069379  )
        64        Ni     tau(  64) = (   0.7529977   0.5192985   0.9044104  )
        65        P      tau(  65) = (   0.2092944   0.9606182   1.0543912  )
        66        P      tau(  66) = (   0.4655727   0.6234620   0.7473512  )
        67        P      tau(  67) = (   0.2910699   0.0902448   0.7494974  )
        68        P      tau(  68) = (   0.0396216   0.4163480   1.0597715  )
        69        O      tau(  69) = (   0.1294378   0.8888345   0.9209495  )
        70        O      tau(  70) = (   0.3874505   0.6929859   0.8835880  )
        71        O      tau(  71) = (   0.3702540   0.1589885   0.8858904  )
        72        O      tau(  72) = (   0.1184398   0.3458043   0.9237230  )
        73        O      tau(  73) = (   0.1451572   0.8725966   1.1786454  )
        74        O      tau(  74) = (   0.4048762   0.7120670   0.6216369  )
        75        O      tau(  75) = (   0.3523506   0.1775664   0.6234620  )
        76        O      tau(  76) = (   0.1017610   0.3285569   1.1855448  )
        77        O      tau(  77) = (   0.0975396   0.5724373   1.0556799  )
        78        O      tau(  78) = (   0.3483552   1.0190030   0.7469198  )
        79        O      tau(  79) = (   0.3784305   0.4100203   1.0507804  )
        80        O      tau(  80) = (   0.1268237   0.0943029   0.7591620  )
        81        O      tau(  81) = (   0.1212267   0.6299255   0.7561772  )
        82        O      tau(  82) = (   0.4053315   0.4684472   0.7499499  )
        83        O      tau(  83) = (   0.1536621   0.0322003   1.0572263  )
        84        O      tau(  84) = (   0.3732349   0.9506802   1.0455518  )
        85        P      tau(  85) = (   0.7119823   0.9571059   1.0571887  )
        86        P      tau(  86) = (   0.9615208   0.6238477   0.7461808  )
        87        P      tau(  87) = (   0.7927710   0.0845145   0.7491041  )
        88        P      tau(  88) = (   0.5426404   0.4144760   1.0609615  )
        89        O      tau(  89) = (   0.6326879   0.8866267   0.9212117  )
        90        O      tau(  90) = (   0.8842163   0.6958291   0.8824032  )
        91        O      tau(  91) = (   0.8716178   0.1552836   0.8852381  )
        92        O      tau(  92) = (   0.6212010   0.3433751   0.9249961  )
        93        O      tau(  93) = (   0.6507714   0.8687427   1.1830599  )
        94        O      tau(  94) = (   0.9014054   0.7139543   0.6209553  )
        95        O      tau(  95) = (   0.8548963   0.1722994   0.6234348  )
        96        O      tau(  96) = (   0.6044469   0.3253792   1.1859242  )
        97        O      tau(  97) = (   0.6024424   0.5698225   1.0577892  )
        98        O      tau(  98) = (   0.8498940   1.0129567   0.7474033  )
        99        O      tau(  99) = (   0.8798395   0.4080910   1.0504647  )
       100        O      tau( 100) = (   0.6286921   0.0909721   0.7596222  )
       101        O      tau( 101) = (   0.6294973   0.6302838   0.7571429  )
       102        O      tau( 102) = (   0.9024339   0.4685397   0.7495295  )
       103        O      tau( 103) = (   0.6547812   0.0286072   1.0595512  )
       104        O      tau( 104) = (   0.8760507   0.9507690   1.0463383  )
       105        Mn     tau( 105) = (   0.2366231   0.8099108   1.3652025  )
       106        Ni     tau( 106) = (   0.5054159   0.7462824   1.6760027  )
       107        Ni     tau( 107) = (   0.0089171   0.2673656   1.3686123  )
       108        Ni     tau( 108) = (   0.2644416   0.1993195   1.7084151  )
       109        Ni     tau( 109) = (   1.0061379   1.0432337   1.5350349  )
       110        Ni     tau( 110) = (   0.2518568   0.5022264   1.5321875  )
       111        Ni     tau( 111) = (   0.7428918   0.8054563   1.3680737  )
       112        Ni     tau( 112) = (   1.0041850   0.7431092   1.6780598  )
       113        Ni     tau( 113) = (   0.5112288   0.2659826   1.3709479  )
       114        Ni     tau( 114) = (   0.7532805   0.2088052   1.6753652  )
       115        Ni     tau( 115) = (   0.5047699   1.0448721   1.5373338  )
       116        Ni     tau( 116) = (   0.7503649   0.5053471   1.5308247  )
       117        P      tau( 117) = (   0.2161577   0.9302828   1.6982302  )
       118        P      tau( 118) = (   0.4629997   0.6076656   1.3708803  )
       119        P      tau( 119) = (   0.2923548   0.0759931   1.3761085  )
       120        P      tau( 120) = (   0.0403728   0.3936694   1.6855939  )
       121        O      tau( 121) = (   0.1364693   0.8668413   1.5531897  )
       122        O      tau( 122) = (   0.3862188   0.6762237   1.5077855  )
       123        O      tau( 123) = (   0.3702313   0.1459453   1.5113118  )
       124        O      tau( 124) = (   0.1164972   0.3354481   1.5416341  )
       125        O      tau( 125) = (   0.1561077   0.8312184   1.8121815  )
       126        O      tau( 126) = (   0.4024345   0.6977036   1.2456547  )
       127        O      tau( 127) = (   0.3529885   0.1608260   1.2478482  )
       128        O      tau( 128) = (   0.0988259   0.2967762   1.8028337  )
       129        O      tau( 129) = (   0.0955223   0.5521437   1.6882589  )
       130        O      tau( 130) = (   0.3501042   0.9948817   1.3794940  )
       131        O      tau( 131) = (   0.3769862   0.3955830   1.6820705  )
       132        O      tau( 132) = (   0.1282711   0.0787148   1.3850164  )
       133        O      tau( 133) = (   0.1228222   0.6171400   1.3807433  )
       134        O      tau( 134) = (   0.4031340   0.4526637   1.3730383  )
       135        O      tau( 135) = (   0.1564153   0.0102487   1.6911737  )
       136        O      tau( 136) = (   0.3803451   0.9249762   1.6777280  )
       137        P      tau( 137) = (   0.7174345   0.9334429   1.6935398  )
       138        P      tau( 138) = (   0.9584537   0.6093492   1.3691178  )
       139        P      tau( 139) = (   0.7939811   0.0700328   1.3725244  )
       140        P      tau( 140) = (   0.5416921   0.3997600   1.6930504  )
       141        O      tau( 141) = (   0.6378837   0.8729788   1.5477586  )
       142        O      tau( 142) = (   0.8828523   0.6807110   1.5061576  )
       143        O      tau( 143) = (   0.8725292   0.1417236   1.5079952  )
       144        O      tau( 144) = (   0.6175250   0.3342570   1.5484665  )
       145        O      tau( 145) = (   0.6556870   0.8369021   1.8084207  )
       146        O      tau( 146) = (   0.8987137   0.6988347   1.2434250  )
       147        O      tau( 147) = (   0.8547435   0.1573124   1.2458538  )
       148        O      tau( 148) = (   0.6058869   0.3057682   1.8100154  )
       149        O      tau( 149) = (   0.5996895   0.5564472   1.6887454  )
       150        O      tau( 150) = (   0.8537678   0.9909218   1.3764211  )
       151        O      tau( 151) = (   0.8747176   0.3908074   1.6749590  )
       152        O      tau( 152) = (   0.6300578   0.0775778   1.3854873  )
       153        O      tau( 153) = (   0.6270029   0.6154737   1.3814513  )
       154        O      tau( 154) = (   0.8992703   0.4545543   1.3717766  )
       155        O      tau( 155) = (   0.6630869   0.0162628   1.6912339  )
       156        O      tau( 156) = (   0.8822397   0.9273982   1.6791779  )
       157        O      tau( 157) = (   0.3793940   0.1173447   1.8413832  )
       158        H      tau( 158) = (   0.4636452   0.1762276   1.8643216  )

     -------------------------------------------------
     Parameters for Dispersion (Grimme-D2) Correction:
     -------------------------------------------------
       atom      VdW radius       C_6     

        Ni         2.952        374.666
        Mn         2.952        374.666
        P          3.222        271.980
        O          2.536         24.284
        H          1.892          4.857

     number of k points=     1  Gaussian smearing, width (Ry)=  0.0100
                       cart. coord. in units 2pi/alat
        k(    1) = (   0.0000000   0.0000000   0.0000000), wk =   1.0000000

     Dense  grid:  1918138 G-vectors     FFT dimensions: ( 125, 135, 432)

     Smooth grid:   485265 G-vectors     FFT dimensions: (  80,  90, 288)

     Estimated max dynamical RAM per process >     320.12 MB

     Estimated total dynamical RAM >      20.01 GB
     Generating pointlists ...
     new r_m :   0.0800 (alat units)  1.4161 (a.u.) for type    1
     new r_m :   0.0869 (alat units)  1.5388 (a.u.) for type    2
     new r_m :   0.0650 (alat units)  1.1499 (a.u.) for type    3
     new r_m :   0.0434 (alat units)  0.7690 (a.u.) for type    4
     new r_m :   0.0434 (alat units)  0.7690 (a.u.) for type    5

     Initial potential from superposition of free atoms

     starting charge    1077.8900, renormalised to    1078.0000

     negative rho (up, down):  1.237E-03 4.517E-04
 
     Adding external electric field

     Computed dipole along edir(3) : 
        Dipole                1.6236 Ry au,          4.1268 Debye
        Dipole field          0.0010 Ry au, 
 
        Potential amp.       -0.1090 Ry
        Total length         54.2615 bohr
 
 
     Adding external electric field

     Computed dipole along edir(3) : 
        Dipole                1.6236 Ry au,          4.1268 Debye
        Dipole field          0.0010 Ry au, 
 
        Potential amp.       -0.1090 Ry
        Total length         54.2615 bohr
 
     Starting wfcs are  812 randomized atomic wfcs

     total cpu time spent up to now is       10.2 secs

     Self-consistent Calculation

     iteration #  1     ecut=    50.00 Ry     beta= 0.10
     Davidson diagonalization with overlap
     ethr =  1.00E-02,  avg # of iterations =  6.0

     negative rho (up, down):  3.440E-01 4.217E-06
 
     Adding external electric field

     Computed dipole along edir(3) : 
        Dipole               -3.2767 Ry au,         -8.3284 Debye
        Dipole field         -0.0020 Ry au, 
 
        Potential amp.        0.2199 Ry
        Total length         54.2615 bohr
 
 
     Adding external electric field

     Computed dipole along edir(3) : 
        Dipole               -3.2767 Ry au,         -8.3284 Debye
        Dipole field         -0.0020 Ry au, 
 
        Potential amp.        0.2199 Ry
        Total length         54.2615 bohr
 

     total cpu time spent up to now is       35.4 secs

     total energy              =   -7180.65087478 Ry
     estimated scf accuracy    <     755.61880010 Ry

     total magnetization       =   216.00 Bohr mag/cell
     absolute magnetization    =   296.74 Bohr mag/cell

     iteration #  2     ecut=    50.00 Ry     beta= 0.10
     Davidson diagonalization with overlap
     ethr =  1.00E-02,  avg # of iterations =  2.0

     negative rho (up, down):  3.170E-01 4.623E-06
 
     Adding external electric field

     Computed dipole along edir(3) : 
        Dipole               -2.3739 Ry au,         -6.0338 Debye
        Dipole field         -0.0015 Ry au, 
 
        Potential amp.        0.1593 Ry
        Total length         54.2615 bohr
 
 
     Adding external electric field

     Computed dipole along edir(3) : 
        Dipole               -2.3739 Ry au,         -6.0338 Debye
        Dipole field         -0.0015 Ry au, 
 
        Potential amp.        0.1593 Ry
        Total length         54.2615 bohr
 

     total cpu time spent up to now is       50.3 secs

     total energy              =   -7264.46553786 Ry
     estimated scf accuracy    <     163.31642603 Ry

     total magnetization       =   145.33 Bohr mag/cell
     absolute magnetization    =   197.09 Bohr mag/cell

     iteration #  3     ecut=    50.00 Ry     beta= 0.10
     Davidson diagonalization with overlap
     ethr =  1.00E-02,  avg # of iterations =  1.5

     negative rho (up, down):  2.750E-01 5.226E-06
 
     Adding external electric field

     Computed dipole along edir(3) : 
        Dipole               -1.9483 Ry au,         -4.9521 Debye
        Dipole field         -0.0012 Ry au, 
 
        Potential amp.        0.1308 Ry
        Total length         54.2615 bohr
 
 
     Adding external electric field

     Computed dipole along edir(3) : 
        Dipole               -1.9483 Ry au,         -4.9521 Debye
        Dipole field         -0.0012 Ry au, 
 
        Potential amp.        0.1308 Ry
        Total length         54.2615 bohr
 

     total cpu time spent up to now is       62.5 secs

     total energy              =   -7297.32645427 Ry
     estimated scf accuracy    <      97.66267876 Ry

     total magnetization       =   122.30 Bohr mag/cell
     absolute magnetization    =   176.76 Bohr mag/cell

     iteration #  4     ecut=    50.00 Ry     beta= 0.10
     Davidson diagonalization with overlap
     ethr =  9.06E-03,  avg # of iterations =  1.5

     negative rho (up, down):  2.007E-01 2.324E-06
 
     Adding external electric field

     Computed dipole along edir(3) : 
        Dipole               -1.9188 Ry au,         -4.8770 Debye
        Dipole field         -0.0012 Ry au, 
 
        Potential amp.        0.1288 Ry
        Total length         54.2615 bohr
 
 
     Adding external electric field

     Computed dipole along edir(3) : 
        Dipole               -1.9188 Ry au,         -4.8770 Debye
        Dipole field         -0.0012 Ry au, 
 
        Potential amp.        0.1288 Ry
        Total length         54.2615 bohr
 

     total cpu time spent up to now is       75.3 secs

     total energy              =   -7331.65852254 Ry
     estimated scf accuracy    <      76.24805746 Ry

     total magnetization       =   106.18 Bohr mag/cell
     absolute magnetization    =   161.81 Bohr mag/cell

     iteration #  5     ecut=    50.00 Ry     beta= 0.10
     Davidson diagonalization with overlap
     ethr =  7.07E-03,  avg # of iterations =  1.5

     negative rho (up, down):  3.944E-03 1.281E-05
 
     Adding external electric field

     Computed dipole along edir(3) : 
        Dipole               -1.3381 Ry au,         -3.4010 Debye
        Dipole field         -0.0008 Ry au, 
 
        Potential amp.        0.0898 Ry
        Total length         54.2615 bohr
 
 
     Adding external electric field

     Computed dipole along edir(3) : 
        Dipole               -1.3381 Ry au,         -3.4010 Debye
        Dipole field         -0.0008 Ry au, 
 
        Potential amp.        0.0898 Ry
        Total length         54.2615 bohr
 

     total cpu time spent up to now is       87.6 secs

     total energy              =   -7388.89108219 Ry
     estimated scf accuracy    <      57.62339807 Ry

     total magnetization       =    88.00 Bohr mag/cell
     absolute magnetization    =   143.82 Bohr mag/cell

     iteration #  6     ecut=    50.00 Ry     beta= 0.10
     Davidson diagonalization with overlap
     ethr =  5.35E-03,  avg # of iterations =  1.5

     negative rho (up, down):  3.226E-04 4.831E-04
 
     Adding external electric field

     Computed dipole along edir(3) : 
        Dipole               -1.0293 Ry au,         -2.6162 Debye
        Dipole field         -0.0006 Ry au, 
 
        Potential amp.        0.0691 Ry
        Total length         54.2615 bohr
 
 
     Adding external electric field

     Computed dipole along edir(3) : 
        Dipole               -1.0293 Ry au,         -2.6162 Debye
        Dipole field         -0.0006 Ry au, 
 
        Potential amp.        0.0691 Ry
        Total length         54.2615 bohr
 

     total cpu time spent up to now is      100.2 secs

     total energy              =   -7395.94143649 Ry
     estimated scf accuracy    <       8.34435924 Ry

     total magnetization       =    78.99 Bohr mag/cell
     absolute magnetization    =   109.70 Bohr mag/cell

     iteration #  7     ecut=    50.00 Ry     beta= 0.10
     Davidson diagonalization with overlap
     ethr =  7.74E-04,  avg # of iterations =  7.0

     negative rho (up, down):  3.762E-04 5.106E-04
 
     Adding external electric field

     Computed dipole along edir(3) : 
        Dipole               -1.0473 Ry au,         -2.6620 Debye
        Dipole field         -0.0006 Ry au, 
 
        Potential amp.        0.0703 Ry
        Total length         54.2615 bohr
 
 
     Adding external electric field

     Computed dipole along edir(3) : 
        Dipole               -1.0473 Ry au,         -2.6620 Debye
        Dipole field         -0.0006 Ry au, 
 
        Potential amp.        0.0703 Ry
        Total length         54.2615 bohr
 

     total cpu time spent up to now is      122.9 secs

     total energy              =   -7397.58545214 Ry
     estimated scf accuracy    <       9.29366873 Ry

     total magnetization       =    72.00 Bohr mag/cell
     absolute magnetization    =    89.40 Bohr mag/cell

     iteration #  8     ecut=    50.00 Ry     beta= 0.10
     Davidson diagonalization with overlap
     ethr =  7.74E-04,  avg # of iterations =  1.0

     negative rho (up, down):  8.976E-05 2.313E-04
 
     Adding external electric field

     Computed dipole along edir(3) : 
        Dipole               -0.8597 Ry au,         -2.1851 Debye
        Dipole field         -0.0005 Ry au, 
 
        Potential amp.        0.0577 Ry
        Total length         54.2615 bohr
 
 
     Adding external electric field

     Computed dipole along edir(3) : 
        Dipole               -0.8597 Ry au,         -2.1851 Debye
        Dipole field         -0.0005 Ry au, 
 
        Potential amp.        0.0577 Ry
        Total length         54.2615 bohr
 

     total cpu time spent up to now is      133.8 secs

     total energy              =   -7397.15064709 Ry
     estimated scf accuracy    <      10.72752242 Ry

     total magnetization       =    71.70 Bohr mag/cell
     absolute magnetization    =    89.10 Bohr mag/cell

     iteration #  9     ecut=    50.00 Ry     beta= 0.10
     Davidson diagonalization with overlap
     ethr =  7.74E-04,  avg # of iterations =  1.0

     negative rho (up, down):  9.199E-05 2.735E-04
 
     Adding external electric field

     Computed dipole along edir(3) : 
        Dipole               -0.9256 Ry au,         -2.3527 Debye
        Dipole field         -0.0006 Ry au, 
 
        Potential amp.        0.0621 Ry
        Total length         54.2615 bohr
 
 
     Adding external electric field

     Computed dipole along edir(3) : 
        Dipole               -0.9256 Ry au,         -2.3527 Debye
        Dipole field         -0.0006 Ry au, 
 
        Potential amp.        0.0621 Ry
        Total length         54.2615 bohr
 

     total cpu time spent up to now is      145.1 secs

     total energy              =   -7397.53050146 Ry
     estimated scf accuracy    <       2.10366984 Ry

     total magnetization       =    80.03 Bohr mag/cell
     absolute magnetization    =    93.28 Bohr mag/cell

     iteration # 10     ecut=    50.00 Ry     beta= 0.10
     Davidson diagonalization with overlap
     c_bands:  2 eigenvalues not converged
     ethr =  1.95E-04,  avg # of iterations = 11.0

     negative rho (up, down):  1.078E-04 3.388E-04
 
     Adding external electric field

     Computed dipole along edir(3) : 
        Dipole               -1.0214 Ry au,         -2.5962 Debye
        Dipole field         -0.0006 Ry au, 
 
        Potential amp.        0.0686 Ry
        Total length         54.2615 bohr
 
 
     Adding external electric field

     Computed dipole along edir(3) : 
        Dipole               -1.0214 Ry au,         -2.5962 Debye
        Dipole field         -0.0006 Ry au, 
 
        Potential amp.        0.0686 Ry
        Total length         54.2615 bohr
 

     total cpu time spent up to now is      162.6 secs

     total energy              =   -7397.62560739 Ry
     estimated scf accuracy    <       1.94612099 Ry

     total magnetization       =    78.92 Bohr mag/cell
     absolute magnetization    =    91.52 Bohr mag/cell

     iteration # 11     ecut=    50.00 Ry     beta= 0.10
     Davidson diagonalization with overlap
     ethr =  1.81E-04,  avg # of iterations =  1.5

     negative rho (up, down):  8.258E-05 3.589E-04
 
     Adding external electric field

     Computed dipole along edir(3) : 
        Dipole               -1.0487 Ry au,         -2.6655 Debye
        Dipole field         -0.0006 Ry au, 
 
        Potential amp.        0.0704 Ry
        Total length         54.2615 bohr
 
 
     Adding external electric field

     Computed dipole along edir(3) : 
        Dipole               -1.0487 Ry au,         -2.6655 Debye
        Dipole field         -0.0006 Ry au, 
 
        Potential amp.        0.0704 Ry
        Total length         54.2615 bohr
 

     total cpu time spent up to now is      174.6 secs

     total energy              =   -7397.76047030 Ry
     estimated scf accuracy    <       0.69606051 Ry

     total magnetization       =    80.76 Bohr mag/cell
     absolute magnetization    =    91.46 Bohr mag/cell

     iteration # 12     ecut=    50.00 Ry     beta= 0.10
     Davidson diagonalization with overlap
     ethr =  6.46E-05,  avg # of iterations = 10.0

     negative rho (up, down):  5.255E-05 3.462E-04
 
     Adding external electric field

     Computed dipole along edir(3) : 
        Dipole               -1.0035 Ry au,         -2.5506 Debye
        Dipole field         -0.0006 Ry au, 
 
        Potential amp.        0.0673 Ry
        Total length         54.2615 bohr
 
 
     Adding external electric field

     Computed dipole along edir(3) : 
        Dipole               -1.0035 Ry au,         -2.5506 Debye
        Dipole field         -0.0006 Ry au, 
 
        Potential amp.        0.0673 Ry
        Total length         54.2615 bohr
 

     total cpu time spent up to now is      195.0 secs

     total energy              =   -7397.96642504 Ry
     estimated scf accuracy    <       0.63604944 Ry

     total magnetization       =    81.56 Bohr mag/cell
     absolute magnetization    =    89.73 Bohr mag/cell

     iteration # 13     ecut=    50.00 Ry     beta= 0.10
     Davidson diagonalization with overlap
     ethr =  5.90E-05,  avg # of iterations =  2.0

     negative rho (up, down):  3.106E-05 2.567E-04
 
     Adding external electric field

     Computed dipole along edir(3) : 
        Dipole               -0.9463 Ry au,         -2.4052 Debye
        Dipole field         -0.0006 Ry au, 
 
        Potential amp.        0.0635 Ry
        Total length         54.2615 bohr
 
 
     Adding external electric field

     Computed dipole along edir(3) : 
        Dipole               -0.9463 Ry au,         -2.4052 Debye
        Dipole field         -0.0006 Ry au, 
 
        Potential amp.        0.0635 Ry
        Total length         54.2615 bohr
 

     total cpu time spent up to now is      208.2 secs

     total energy              =   -7398.02393181 Ry
     estimated scf accuracy    <       0.54442901 Ry

     total magnetization       =    81.56 Bohr mag/cell
     absolute magnetization    =    86.08 Bohr mag/cell

     iteration # 14     ecut=    50.00 Ry     beta= 0.10
     Davidson diagonalization with overlap
     ethr =  5.05E-05,  avg # of iterations =  1.5

     negative rho (up, down):  1.577E-05 1.523E-04
 
     Adding external electric field

     Computed dipole along edir(3) : 
        Dipole               -0.9232 Ry au,         -2.3466 Debye
        Dipole field         -0.0006 Ry au, 
 
        Potential amp.        0.0620 Ry
        Total length         54.2615 bohr
 
 
     Adding external electric field

     Computed dipole along edir(3) : 
        Dipole               -0.9232 Ry au,         -2.3466 Debye
        Dipole field         -0.0006 Ry au, 
 
        Potential amp.        0.0620 Ry
        Total length         54.2615 bohr
 

     total cpu time spent up to now is      219.5 secs

     total energy              =   -7398.01979086 Ry
     estimated scf accuracy    <       0.43639310 Ry

     total magnetization       =    81.04 Bohr mag/cell
     absolute magnetization    =    84.50 Bohr mag/cell

     iteration # 15     ecut=    50.00 Ry     beta= 0.10
     Davidson diagonalization with overlap
     ethr =  4.05E-05,  avg # of iterations =  1.5

     negative rho (up, down):  1.107E-04 3.501E-04
 
     Adding external electric field

     Computed dipole along edir(3) : 
        Dipole               -0.9321 Ry au,         -2.3690 Debye
        Dipole field         -0.0006 Ry au, 
 
        Potential amp.        0.0626 Ry
        Total length         54.2615 bohr
 
 
     Adding external electric field

     Computed dipole along edir(3) : 
        Dipole               -0.9321 Ry au,         -2.3690 Debye
        Dipole field         -0.0006 Ry au, 
 
        Potential amp.        0.0626 Ry
        Total length         54.2615 bohr
 

     total cpu time spent up to now is      231.4 secs

     total energy              =   -7398.03265685 Ry
     estimated scf accuracy    <       0.25890133 Ry

     total magnetization       =    80.68 Bohr mag/cell
     absolute magnetization    =    83.81 Bohr mag/cell

     iteration # 16     ecut=    50.00 Ry     beta= 0.10
     Davidson diagonalization with overlap
     ethr =  2.40E-05,  avg # of iterations =  1.5

     negative rho (up, down):  8.530E-05 1.375E-04
 
     Adding external electric field

     Computed dipole along edir(3) : 
        Dipole               -0.8760 Ry au,         -2.2265 Debye
        Dipole field         -0.0005 Ry au, 
 
        Potential amp.        0.0588 Ry
        Total length         54.2615 bohr
 
 
     Adding external electric field

     Computed dipole along edir(3) : 
        Dipole               -0.8760 Ry au,         -2.2265 Debye
        Dipole field         -0.0005 Ry au, 
 
        Potential amp.        0.0588 Ry
        Total length         54.2615 bohr
 

     total cpu time spent up to now is      243.5 secs

     total energy              =   -7398.03144356 Ry
     estimated scf accuracy    <       0.11658370 Ry

     total magnetization       =    81.00 Bohr mag/cell
     absolute magnetization    =    83.19 Bohr mag/cell

     iteration # 17     ecut=    50.00 Ry     beta= 0.10
     Davidson diagonalization with overlap
     ethr =  1.08E-05,  avg # of iterations = 12.0

     negative rho (up, down):  1.000E-04 1.424E-04
 
     Adding external electric field

     Computed dipole along edir(3) : 
        Dipole               -0.8766 Ry au,         -2.2281 Debye
        Dipole field         -0.0005 Ry au, 
 
        Potential amp.        0.0588 Ry
        Total length         54.2615 bohr
 
 
     Adding external electric field

     Computed dipole along edir(3) : 
        Dipole               -0.8766 Ry au,         -2.2281 Debye
        Dipole field         -0.0005 Ry au, 
 
        Potential amp.        0.0588 Ry
        Total length         54.2615 bohr
 

     total cpu time spent up to now is      267.7 secs

     total energy              =   -7398.04584570 Ry
     estimated scf accuracy    <       0.23747831 Ry

     total magnetization       =    79.11 Bohr mag/cell
     absolute magnetization    =    81.12 Bohr mag/cell

     iteration # 18     ecut=    50.00 Ry     beta= 0.10
     Davidson diagonalization with overlap
     ethr =  1.08E-05,  avg # of iterations =  1.0

     negative rho (up, down):  1.176E-04 1.541E-04
 
     Adding external electric field

     Computed dipole along edir(3) : 
        Dipole               -0.8841 Ry au,         -2.2472 Debye
        Dipole field         -0.0005 Ry au, 
 
        Potential amp.        0.0593 Ry
        Total length         54.2615 bohr
 
 
     Adding external electric field

     Computed dipole along edir(3) : 
        Dipole               -0.8841 Ry au,         -2.2472 Debye
        Dipole field         -0.0005 Ry au, 
 
        Potential amp.        0.0593 Ry
        Total length         54.2615 bohr
 

     total cpu time spent up to now is      278.3 secs

     total energy              =   -7398.04741722 Ry
     estimated scf accuracy    <       0.37276531 Ry

     total magnetization       =    78.63 Bohr mag/cell
     absolute magnetization    =    80.60 Bohr mag/cell

     iteration # 19     ecut=    50.00 Ry     beta= 0.10
     Davidson diagonalization with overlap
     ethr =  1.08E-05,  avg # of iterations =  2.0

     negative rho (up, down):  1.309E-04 2.446E-04
 
     Adding external electric field

     Computed dipole along edir(3) : 
        Dipole               -0.8787 Ry au,         -2.2335 Debye
        Dipole field         -0.0005 Ry au, 
 
        Potential amp.        0.0590 Ry
        Total length         54.2615 bohr
 
 
     Adding external electric field

     Computed dipole along edir(3) : 
        Dipole               -0.8787 Ry au,         -2.2335 Debye
        Dipole field         -0.0005 Ry au, 
 
        Potential amp.        0.0590 Ry
        Total length         54.2615 bohr
 

     total cpu time spent up to now is      290.6 secs

     total energy              =   -7398.04690359 Ry
     estimated scf accuracy    <       0.38541499 Ry

     total magnetization       =    78.64 Bohr mag/cell
     absolute magnetization    =    80.61 Bohr mag/cell

     iteration # 20     ecut=    50.00 Ry     beta= 0.10
     Davidson diagonalization with overlap
     ethr =  1.08E-05,  avg # of iterations =  1.0

     negative rho (up, down):  7.043E-05 3.465E-04
 
     Adding external electric field

     Computed dipole along edir(3) : 
        Dipole               -0.8608 Ry au,         -2.1878 Debye
        Dipole field         -0.0005 Ry au, 
 
        Potential amp.        0.0578 Ry
        Total length         54.2615 bohr
 
 
     Adding external electric field

     Computed dipole along edir(3) : 
        Dipole               -0.8608 Ry au,         -2.1878 Debye
        Dipole field         -0.0005 Ry au, 
 
        Potential amp.        0.0578 Ry
        Total length         54.2615 bohr
 

     total cpu time spent up to now is      302.6 secs

     total energy              =   -7398.04009430 Ry
     estimated scf accuracy    <       0.38680073 Ry

     total magnetization       =    78.66 Bohr mag/cell
     absolute magnetization    =    80.44 Bohr mag/cell

     iteration # 21     ecut=    50.00 Ry     beta= 0.10
     Davidson diagonalization with overlap
     ethr =  1.08E-05,  avg # of iterations =  1.5

     negative rho (up, down):  1.339E-04 2.707E-04
 
     Adding external electric field

     Computed dipole along edir(3) : 
        Dipole               -0.8585 Ry au,         -2.1820 Debye
        Dipole field         -0.0005 Ry au, 
 
        Potential amp.        0.0576 Ry
        Total length         54.2615 bohr
 
 
     Adding external electric field

     Computed dipole along edir(3) : 
        Dipole               -0.8585 Ry au,         -2.1820 Debye
        Dipole field         -0.0005 Ry au, 
 
        Potential amp.        0.0576 Ry
        Total length         54.2615 bohr
 

     total cpu time spent up to now is      314.3 secs

     total energy              =   -7398.05103260 Ry
     estimated scf accuracy    <       0.29484954 Ry

     total magnetization       =    78.82 Bohr mag/cell
     absolute magnetization    =    80.45 Bohr mag/cell

     iteration # 22     ecut=    50.00 Ry     beta= 0.10
     Davidson diagonalization with overlap
     ethr =  1.08E-05,  avg # of iterations =  1.0

     negative rho (up, down):  1.735E-04 3.671E-04
 
     Adding external electric field

     Computed dipole along edir(3) : 
        Dipole               -0.8570 Ry au,         -2.1784 Debye
        Dipole field         -0.0005 Ry au, 
 
        Potential amp.        0.0575 Ry
        Total length         54.2615 bohr
 
 
     Adding external electric field

     Computed dipole along edir(3) : 
        Dipole               -0.8570 Ry au,         -2.1784 Debye
        Dipole field         -0.0005 Ry au, 
 
        Potential amp.        0.0575 Ry
        Total length         54.2615 bohr
 

     total cpu time spent up to now is      325.0 secs

     total energy              =   -7398.04754600 Ry
     estimated scf accuracy    <       0.93062138 Ry

     total magnetization       =    77.67 Bohr mag/cell
     absolute magnetization    =    79.33 Bohr mag/cell

     iteration # 23     ecut=    50.00 Ry     beta= 0.10
     Davidson diagonalization with overlap
     ethr =  1.08E-05,  avg # of iterations =  1.5

     negative rho (up, down):  6.890E-05 1.943E-04
 
     Adding external electric field

     Computed dipole along edir(3) : 
        Dipole               -0.8503 Ry au,         -2.1613 Debye
        Dipole field         -0.0005 Ry au, 
 
        Potential amp.        0.0571 Ry
        Total length         54.2615 bohr
 
 
     Adding external electric field

     Computed dipole along edir(3) : 
        Dipole               -0.8503 Ry au,         -2.1613 Debye
        Dipole field         -0.0005 Ry au, 
 
        Potential amp.        0.0571 Ry
        Total length         54.2615 bohr
 

     total cpu time spent up to now is      336.4 secs

     total energy              =   -7398.04731775 Ry
     estimated scf accuracy    <       0.58343974 Ry

     total magnetization       =    78.19 Bohr mag/cell
     absolute magnetization    =    79.70 Bohr mag/cell

     iteration # 24     ecut=    50.00 Ry     beta= 0.10
     Davidson diagonalization with overlap
     ethr =  1.08E-05,  avg # of iterations =  1.0

     negative rho (up, down):  2.517E-05 3.347E-04
 
     Adding external electric field

     Computed dipole along edir(3) : 
        Dipole               -0.8517 Ry au,         -2.1648 Debye
        Dipole field         -0.0005 Ry au, 
 
        Potential amp.        0.0572 Ry
        Total length         54.2615 bohr
 
 
     Adding external electric field

     Computed dipole along edir(3) : 
        Dipole               -0.8517 Ry au,         -2.1648 Debye
        Dipole field         -0.0005 Ry au, 
 
        Potential amp.        0.0572 Ry
        Total length         54.2615 bohr
 

     total cpu time spent up to now is      347.5 secs

     total energy              =   -7398.01438152 Ry
     estimated scf accuracy    <       0.91126981 Ry

     total magnetization       =    78.10 Bohr mag/cell
     absolute magnetization    =    79.83 Bohr mag/cell

     iteration # 25     ecut=    50.00 Ry     beta= 0.10
     Davidson diagonalization with overlap
     ethr =  1.08E-05,  avg # of iterations =  2.0

     negative rho (up, down):  3.230E-05 2.212E-04
 
     Adding external electric field

     Computed dipole along edir(3) : 
        Dipole               -0.8380 Ry au,         -2.1300 Debye
        Dipole field         -0.0005 Ry au, 
 
        Potential amp.        0.0562 Ry
        Total length         54.2615 bohr
 
 
     Adding external electric field

     Computed dipole along edir(3) : 
        Dipole               -0.8380 Ry au,         -2.1300 Debye
        Dipole field         -0.0005 Ry au, 
 
        Potential amp.        0.0562 Ry
        Total length         54.2615 bohr
 

     total cpu time spent up to now is      360.2 secs

     total energy              =   -7398.03715842 Ry
     estimated scf accuracy    <       0.06000229 Ry

     total magnetization       =    80.36 Bohr mag/cell
     absolute magnetization    =    81.95 Bohr mag/cell

     iteration # 26     ecut=    50.00 Ry     beta= 0.10
     Davidson diagonalization with overlap
     ethr =  5.57E-06,  avg # of iterations =  1.5

     negative rho (up, down):  3.193E-05 3.402E-05
 
     Adding external electric field

     Computed dipole along edir(3) : 
        Dipole               -0.7771 Ry au,         -1.9753 Debye
        Dipole field         -0.0005 Ry au, 
 
        Potential amp.        0.0522 Ry
        Total length         54.2615 bohr
 
 
     Adding external electric field

     Computed dipole along edir(3) : 
        Dipole               -0.7771 Ry au,         -1.9753 Debye
        Dipole field         -0.0005 Ry au, 
 
        Potential amp.        0.0522 Ry
        Total length         54.2615 bohr
 

     total cpu time spent up to now is      371.7 secs

     total energy              =   -7398.03995619 Ry
     estimated scf accuracy    <       0.05283789 Ry

     total magnetization       =    80.48 Bohr mag/cell
     absolute magnetization    =    82.02 Bohr mag/cell

     iteration # 27     ecut=    50.00 Ry     beta= 0.10
     Davidson diagonalization with overlap
     ethr =  4.90E-06,  avg # of iterations =  2.0

     negative rho (up, down):  3.464E-05 3.428E-05
 
     Adding external electric field

     Computed dipole along edir(3) : 
        Dipole               -0.6867 Ry au,         -1.7454 Debye
        Dipole field         -0.0004 Ry au, 
 
        Potential amp.        0.0461 Ry
        Total length         54.2615 bohr
 
 
     Adding external electric field

     Computed dipole along edir(3) : 
        Dipole               -0.6867 Ry au,         -1.7454 Debye
        Dipole field         -0.0004 Ry au, 
 
        Potential amp.        0.0461 Ry
        Total length         54.2615 bohr
 

     total cpu time spent up to now is      384.2 secs

     total energy              =   -7398.03933397 Ry
     estimated scf accuracy    <       0.04226068 Ry

     total magnetization       =    80.55 Bohr mag/cell
     absolute magnetization    =    82.00 Bohr mag/cell

     iteration # 28     ecut=    50.00 Ry     beta= 0.10
     Davidson diagonalization with overlap
     c_bands:  4 eigenvalues not converged
     ethr =  3.92E-06,  avg # of iterations = 11.0

     negative rho (up, down):  2.732E-05 3.382E-05
 
     Adding external electric field

     Computed dipole along edir(3) : 
        Dipole               -0.7114 Ry au,         -1.8081 Debye
        Dipole field         -0.0004 Ry au, 
 
        Potential amp.        0.0477 Ry
        Total length         54.2615 bohr
 
 
     Adding external electric field

     Computed dipole along edir(3) : 
        Dipole               -0.7114 Ry au,         -1.8081 Debye
        Dipole field         -0.0004 Ry au, 
 
        Potential amp.        0.0477 Ry
        Total length         54.2615 bohr
 

     total cpu time spent up to now is      402.4 secs

     total energy              =   -7398.04020751 Ry
     estimated scf accuracy    <       0.06071737 Ry

     total magnetization       =    80.23 Bohr mag/cell
     absolute magnetization    =    81.67 Bohr mag/cell

     iteration # 29     ecut=    50.00 Ry     beta= 0.10
     Davidson diagonalization with overlap
     ethr =  3.92E-06,  avg # of iterations =  1.5

     negative rho (up, down):  2.575E-05 3.570E-05
 
     Adding external electric field

     Computed dipole along edir(3) : 
        Dipole               -0.6947 Ry au,         -1.7656 Debye
        Dipole field         -0.0004 Ry au, 
 
        Potential amp.        0.0466 Ry
        Total length         54.2615 bohr
 
 
     Adding external electric field

     Computed dipole along edir(3) : 
        Dipole               -0.6947 Ry au,         -1.7656 Debye
        Dipole field         -0.0004 Ry au, 
 
        Potential amp.        0.0466 Ry
        Total length         54.2615 bohr
 

     total cpu time spent up to now is      413.8 secs

     total energy              =   -7398.03933273 Ry
     estimated scf accuracy    <       0.06479440 Ry

     total magnetization       =    80.17 Bohr mag/cell
     absolute magnetization    =    81.63 Bohr mag/cell

     iteration # 30     ecut=    50.00 Ry     beta= 0.10
     Davidson diagonalization with overlap
     ethr =  3.92E-06,  avg # of iterations =  1.0

     negative rho (up, down):  3.841E-05 3.994E-05
 
     Adding external electric field

     Computed dipole along edir(3) : 
        Dipole               -0.6723 Ry au,         -1.7087 Debye
        Dipole field         -0.0004 Ry au, 
 
        Potential amp.        0.0451 Ry
        Total length         54.2615 bohr
 
 
     Adding external electric field

     Computed dipole along edir(3) : 
        Dipole               -0.6723 Ry au,         -1.7087 Debye
        Dipole field         -0.0004 Ry au, 
 
        Potential amp.        0.0451 Ry
        Total length         54.2615 bohr
 

     total cpu time spent up to now is      425.2 secs

     total energy              =   -7398.03949342 Ry
     estimated scf accuracy    <       0.06370613 Ry

     total magnetization       =    80.15 Bohr mag/cell
     absolute magnetization    =    81.56 Bohr mag/cell

     iteration # 31     ecut=    50.00 Ry     beta= 0.10
     Davidson diagonalization with overlap
     ethr =  3.92E-06,  avg # of iterations =  2.0

     negative rho (up, down):  2.359E-05 1.566E-05
 
     Adding external electric field

     Computed dipole along edir(3) : 
        Dipole               -0.7307 Ry au,         -1.8573 Debye
        Dipole field         -0.0005 Ry au, 
 
        Potential amp.        0.0490 Ry
        Total length         54.2615 bohr
 
 
     Adding external electric field

     Computed dipole along edir(3) : 
        Dipole               -0.7307 Ry au,         -1.8573 Debye
        Dipole field         -0.0005 Ry au, 
 
        Potential amp.        0.0490 Ry
        Total length         54.2615 bohr
 

     total cpu time spent up to now is      438.0 secs

     total energy              =   -7398.03953377 Ry
     estimated scf accuracy    <       0.06520162 Ry

     total magnetization       =    80.19 Bohr mag/cell
     absolute magnetization    =    81.57 Bohr mag/cell

     iteration # 32     ecut=    50.00 Ry     beta= 0.10
     Davidson diagonalization with overlap
     ethr =  3.92E-06,  avg # of iterations =  1.5

     negative rho (up, down):  2.065E-05 1.643E-05
 
     Adding external electric field

     Computed dipole along edir(3) : 
        Dipole               -0.7354 Ry au,         -1.8693 Debye
        Dipole field         -0.0005 Ry au, 
 
        Potential amp.        0.0494 Ry
        Total length         54.2615 bohr
 
 
     Adding external electric field

     Computed dipole along edir(3) : 
        Dipole               -0.7354 Ry au,         -1.8693 Debye
        Dipole field         -0.0005 Ry au, 
 
        Potential amp.        0.0494 Ry
        Total length         54.2615 bohr
 

     total cpu time spent up to now is      450.4 secs

     total energy              =   -7398.04002406 Ry
     estimated scf accuracy    <       0.04642779 Ry

     total magnetization       =    80.50 Bohr mag/cell
     absolute magnetization    =    81.92 Bohr mag/cell

     iteration # 33     ecut=    50.00 Ry     beta= 0.10
     Davidson diagonalization with overlap
     ethr =  3.92E-06,  avg # of iterations =  1.0

     negative rho (up, down):  2.424E-05 2.287E-05
 
     Adding external electric field

     Computed dipole along edir(3) : 
        Dipole               -0.7194 Ry au,         -1.8286 Debye
        Dipole field         -0.0004 Ry au, 
 
        Potential amp.        0.0483 Ry
        Total length         54.2615 bohr
 
 
     Adding external electric field

     Computed dipole along edir(3) : 
        Dipole               -0.7194 Ry au,         -1.8286 Debye
        Dipole field         -0.0004 Ry au, 
 
        Potential amp.        0.0483 Ry
        Total length         54.2615 bohr
 

     total cpu time spent up to now is      461.6 secs

     total energy              =   -7398.03992312 Ry
     estimated scf accuracy    <       0.04645846 Ry

     total magnetization       =    80.50 Bohr mag/cell
     absolute magnetization    =    81.92 Bohr mag/cell

     iteration # 34     ecut=    50.00 Ry     beta= 0.10
     Davidson diagonalization with overlap
     ethr =  3.92E-06,  avg # of iterations =  1.5

     negative rho (up, down):  5.546E-05 7.283E-05
 
     Adding external electric field

     Computed dipole along edir(3) : 
        Dipole               -0.6786 Ry au,         -1.7250 Debye
        Dipole field         -0.0004 Ry au, 
 
        Potential amp.        0.0455 Ry
        Total length         54.2615 bohr
 
 
     Adding external electric field

     Computed dipole along edir(3) : 
        Dipole               -0.6786 Ry au,         -1.7250 Debye
        Dipole field         -0.0004 Ry au, 
 
        Potential amp.        0.0455 Ry
        Total length         54.2615 bohr
 

     total cpu time spent up to now is      474.1 secs

     total energy              =   -7398.03908216 Ry
     estimated scf accuracy    <       0.04557762 Ry

     total magnetization       =    80.49 Bohr mag/cell
     absolute magnetization    =    81.90 Bohr mag/cell

     iteration # 35     ecut=    50.00 Ry     beta= 0.10
     Davidson diagonalization with overlap
     ethr =  3.92E-06,  avg # of iterations =  2.0

     negative rho (up, down):  3.017E-05 3.899E-05
 
     Adding external electric field

     Computed dipole along edir(3) : 
        Dipole               -0.7071 Ry au,         -1.7972 Debye
        Dipole field         -0.0004 Ry au, 
 
        Potential amp.        0.0475 Ry
        Total length         54.2615 bohr
 
 
     Adding external electric field

     Computed dipole along edir(3) : 
        Dipole               -0.7071 Ry au,         -1.7972 Debye
        Dipole field         -0.0004 Ry au, 
 
        Potential amp.        0.0475 Ry
        Total length         54.2615 bohr
 

     total cpu time spent up to now is      487.9 secs

     total energy              =   -7398.03936580 Ry
     estimated scf accuracy    <       0.04455788 Ry

     total magnetization       =    80.48 Bohr mag/cell
     absolute magnetization    =    81.87 Bohr mag/cell

     iteration # 36     ecut=    50.00 Ry     beta= 0.10
     Davidson diagonalization with overlap
     ethr =  3.92E-06,  avg # of iterations =  1.0

     negative rho (up, down):  3.407E-05 5.005E-05
 
     Adding external electric field

     Computed dipole along edir(3) : 
        Dipole               -0.6384 Ry au,         -1.6228 Debye
        Dipole field         -0.0004 Ry au, 
 
        Potential amp.        0.0428 Ry
        Total length         54.2615 bohr
 
 
     Adding external electric field

     Computed dipole along edir(3) : 
        Dipole               -0.6384 Ry au,         -1.6228 Debye
        Dipole field         -0.0004 Ry au, 
 
        Potential amp.        0.0428 Ry
        Total length         54.2615 bohr
 

     total cpu time spent up to now is      498.6 secs

     total energy              =   -7398.03884758 Ry
     estimated scf accuracy    <       0.04288150 Ry

     total magnetization       =    80.46 Bohr mag/cell
     absolute magnetization    =    82.00 Bohr mag/cell

     iteration # 37     ecut=    50.00 Ry     beta= 0.10
     Davidson diagonalization with overlap
     ethr =  3.92E-06,  avg # of iterations =  2.0

     negative rho (up, down):  3.516E-05 3.548E-05
 
     Adding external electric field

     Computed dipole along edir(3) : 
        Dipole               -0.7833 Ry au,         -1.9909 Debye
        Dipole field         -0.0005 Ry au, 
 
        Potential amp.        0.0526 Ry
        Total length         54.2615 bohr
 
 
     Adding external electric field

     Computed dipole along edir(3) : 
        Dipole               -0.7833 Ry au,         -1.9909 Debye
        Dipole field         -0.0005 Ry au, 
 
        Potential amp.        0.0526 Ry
        Total length         54.2615 bohr
 

     total cpu time spent up to now is      511.2 secs

     total energy              =   -7398.03978414 Ry
     estimated scf accuracy    <       0.04804942 Ry

     total magnetization       =    80.46 Bohr mag/cell
     absolute magnetization    =    82.09 Bohr mag/cell

     iteration # 38     ecut=    50.00 Ry     beta= 0.10
     Davidson diagonalization with overlap
     ethr =  3.92E-06,  avg # of iterations =  1.5

     negative rho (up, down):  7.541E-05 6.236E-05
 
     Adding external electric field

     Computed dipole along edir(3) : 
        Dipole               -0.8299 Ry au,         -2.1093 Debye
        Dipole field         -0.0005 Ry au, 
 
        Potential amp.        0.0557 Ry
        Total length         54.2615 bohr
 
 
     Adding external electric field

     Computed dipole along edir(3) : 
        Dipole               -0.8299 Ry au,         -2.1093 Debye
        Dipole field         -0.0005 Ry au, 
 
        Potential amp.        0.0557 Ry
        Total length         54.2615 bohr
 

     total cpu time spent up to now is      523.5 secs

     total energy              =   -7398.03993422 Ry
     estimated scf accuracy    <       0.03771733 Ry

     total magnetization       =    80.51 Bohr mag/cell
     absolute magnetization    =    81.96 Bohr mag/cell

     iteration # 39     ecut=    50.00 Ry     beta= 0.10
     Davidson diagonalization with overlap
     ethr =  3.50E-06,  avg # of iterations =  1.0

     negative rho (up, down):  7.723E-05 7.810E-05
 
     Adding external electric field

     Computed dipole along edir(3) : 
        Dipole               -0.8457 Ry au,         -2.1495 Debye
        Dipole field         -0.0005 Ry au, 
 
        Potential amp.        0.0568 Ry
        Total length         54.2615 bohr
 
 
     Adding external electric field

     Computed dipole along edir(3) : 
        Dipole               -0.8457 Ry au,         -2.1495 Debye
        Dipole field         -0.0005 Ry au, 
 
        Potential amp.        0.0568 Ry
        Total length         54.2615 bohr
 

     total cpu time spent up to now is      534.4 secs

     total energy              =   -7398.04088343 Ry
     estimated scf accuracy    <       0.03188260 Ry

     total magnetization       =    80.54 Bohr mag/cell
     absolute magnetization    =    81.87 Bohr mag/cell

     iteration # 40     ecut=    50.00 Ry     beta= 0.10
     Davidson diagonalization with overlap
     ethr =  2.96E-06,  avg # of iterations =  2.0

     negative rho (up, down):  3.410E-05 3.539E-05
 
     Adding external electric field

     Computed dipole along edir(3) : 
        Dipole               -0.7187 Ry au,         -1.8268 Debye
        Dipole field         -0.0004 Ry au, 
 
        Potential amp.        0.0482 Ry
        Total length         54.2615 bohr
 
 
     Adding external electric field

     Computed dipole along edir(3) : 
        Dipole               -0.7187 Ry au,         -1.8268 Debye
        Dipole field         -0.0004 Ry au, 
 
        Potential amp.        0.0482 Ry
        Total length         54.2615 bohr
 

     total cpu time spent up to now is      547.2 secs

     total energy              =   -7398.03976211 Ry
     estimated scf accuracy    <       0.03363900 Ry

     total magnetization       =    80.45 Bohr mag/cell
     absolute magnetization    =    81.78 Bohr mag/cell

     iteration # 41     ecut=    50.00 Ry     beta= 0.10
     Davidson diagonalization with overlap
     ethr =  2.96E-06,  avg # of iterations =  1.0

     negative rho (up, down):  9.821E-05 9.420E-05
 
     Adding external electric field

     Computed dipole along edir(3) : 
        Dipole               -0.6338 Ry au,         -1.6110 Debye
        Dipole field         -0.0004 Ry au, 
 
        Potential amp.        0.0425 Ry
        Total length         54.2615 bohr
 
 
     Adding external electric field

     Computed dipole along edir(3) : 
        Dipole               -0.6338 Ry au,         -1.6110 Debye
        Dipole field         -0.0004 Ry au, 
 
        Potential amp.        0.0425 Ry
        Total length         54.2615 bohr
 

     total cpu time spent up to now is      557.4 secs

     total energy              =   -7398.03806063 Ry
     estimated scf accuracy    <       0.02705848 Ry

     total magnetization       =    80.45 Bohr mag/cell
     absolute magnetization    =    81.86 Bohr mag/cell

     iteration # 42     ecut=    50.00 Ry     beta= 0.10
     Davidson diagonalization with overlap
     ethr =  2.51E-06,  avg # of iterations =  2.0

     negative rho (up, down):  1.725E-04 1.687E-04
 
     Adding external electric field

     Computed dipole along edir(3) : 
        Dipole               -0.5873 Ry au,         -1.4927 Debye
        Dipole field         -0.0004 Ry au, 
 
        Potential amp.        0.0394 Ry
        Total length         54.2615 bohr
 
 
     Adding external electric field

     Computed dipole along edir(3) : 
        Dipole               -0.5873 Ry au,         -1.4927 Debye
        Dipole field         -0.0004 Ry au, 
 
        Potential amp.        0.0394 Ry
        Total length         54.2615 bohr
 

     total cpu time spent up to now is      570.1 secs

     total energy              =   -7398.03729279 Ry
     estimated scf accuracy    <       0.02875145 Ry

     total magnetization       =    80.52 Bohr mag/cell
     absolute magnetization    =    81.91 Bohr mag/cell

     iteration # 43     ecut=    50.00 Ry     beta= 0.10
     Davidson diagonalization with overlap
     ethr =  2.51E-06,  avg # of iterations =  1.0

     negative rho (up, down):  1.763E-04 1.929E-04
 
     Adding external electric field

     Computed dipole along edir(3) : 
        Dipole               -0.4955 Ry au,         -1.2594 Debye
        Dipole field         -0.0003 Ry au, 
 
        Potential amp.        0.0333 Ry
        Total length         54.2615 bohr
 
 
     Adding external electric field

     Computed dipole along edir(3) : 
        Dipole               -0.4955 Ry au,         -1.2594 Debye
        Dipole field         -0.0003 Ry au, 
 
        Potential amp.        0.0333 Ry
        Total length         54.2615 bohr
 

     total cpu time spent up to now is      580.9 secs

     total energy              =   -7398.03643156 Ry
     estimated scf accuracy    <       0.02623550 Ry

     total magnetization       =    80.52 Bohr mag/cell
     absolute magnetization    =    81.87 Bohr mag/cell

     iteration # 44     ecut=    50.00 Ry     beta= 0.10
     Davidson diagonalization with overlap
     ethr =  2.43E-06,  avg # of iterations =  3.5

     negative rho (up, down):  3.051E-04 3.329E-04
 
     Adding external electric field

     Computed dipole along edir(3) : 
        Dipole               -0.3651 Ry au,         -0.9280 Debye
        Dipole field         -0.0002 Ry au, 
 
        Potential amp.        0.0245 Ry
        Total length         54.2615 bohr
 
 
     Adding external electric field

     Computed dipole along edir(3) : 
        Dipole               -0.3651 Ry au,         -0.9280 Debye
        Dipole field         -0.0002 Ry au, 
 
        Potential amp.        0.0245 Ry
        Total length         54.2615 bohr
 

     total cpu time spent up to now is      595.1 secs

     total energy              =   -7398.03544053 Ry
     estimated scf accuracy    <       0.02438171 Ry

     total magnetization       =    80.55 Bohr mag/cell
     absolute magnetization    =    81.88 Bohr mag/cell

     iteration # 45     ecut=    50.00 Ry     beta= 0.10
     Davidson diagonalization with overlap
     ethr =  2.26E-06,  avg # of iterations =  2.0

     negative rho (up, down):  2.162E-04 1.764E-04
 
     Adding external electric field

     Computed dipole along edir(3) : 
        Dipole               -0.2274 Ry au,         -0.5781 Debye
        Dipole field         -0.0001 Ry au, 
 
        Potential amp.        0.0153 Ry
        Total length         54.2615 bohr
 
 
     Adding external electric field

     Computed dipole along edir(3) : 
        Dipole               -0.2274 Ry au,         -0.5781 Debye
        Dipole field         -0.0001 Ry au, 
 
        Potential amp.        0.0153 Ry
        Total length         54.2615 bohr
 

     total cpu time spent up to now is      606.8 secs

     total energy              =   -7398.03548238 Ry
     estimated scf accuracy    <       0.01749056 Ry

     total magnetization       =    80.55 Bohr mag/cell
     absolute magnetization    =    81.86 Bohr mag/cell

     iteration # 46     ecut=    50.00 Ry     beta= 0.10
     Davidson diagonalization with overlap
     c_bands:  4 eigenvalues not converged
     c_bands:  3 eigenvalues not converged
     ethr =  1.62E-06,  avg # of iterations = 30.0

     negative rho (up, down):  3.963E-04 2.820E-04
 
     Adding external electric field

     Computed dipole along edir(3) : 
        Dipole               -0.1657 Ry au,         -0.4211 Debye
        Dipole field         -0.0001 Ry au, 
 
        Potential amp.        0.0111 Ry
        Total length         54.2615 bohr
 
 
     Adding external electric field

     Computed dipole along edir(3) : 
        Dipole               -0.1657 Ry au,         -0.4211 Debye
        Dipole field         -0.0001 Ry au, 
 
        Potential amp.        0.0111 Ry
        Total length         54.2615 bohr
 

     total cpu time spent up to now is      640.5 secs

     total energy              =   -7398.03557365 Ry
     estimated scf accuracy    <       0.00806618 Ry

     total magnetization       =    80.50 Bohr mag/cell
     absolute magnetization    =    81.90 Bohr mag/cell

     iteration # 47     ecut=    50.00 Ry     beta= 0.10
     Davidson diagonalization with overlap
     c_bands:  2 eigenvalues not converged
     ethr =  7.48E-07,  avg # of iterations = 11.0

     negative rho (up, down):  4.822E-04 2.993E-04
 
     Adding external electric field

     Computed dipole along edir(3) : 
        Dipole               -0.1465 Ry au,         -0.3724 Debye
        Dipole field         -0.0001 Ry au, 
 
        Potential amp.        0.0098 Ry
        Total length         54.2615 bohr
 
 
     Adding external electric field

     Computed dipole along edir(3) : 
        Dipole               -0.1465 Ry au,         -0.3724 Debye
        Dipole field         -0.0001 Ry au, 
 
        Potential amp.        0.0098 Ry
        Total length         54.2615 bohr
 

     total cpu time spent up to now is      658.1 secs

     total energy              =   -7398.03544964 Ry
     estimated scf accuracy    <       0.00650863 Ry

     total magnetization       =    80.52 Bohr mag/cell
     absolute magnetization    =    82.02 Bohr mag/cell

     iteration # 48     ecut=    50.00 Ry     beta= 0.10
     Davidson diagonalization with overlap
     ethr =  6.04E-07,  avg # of iterations =  2.0

     negative rho (up, down):  9.249E-05 4.513E-05
 
     Adding external electric field

     Computed dipole along edir(3) : 
        Dipole               -0.1885 Ry au,         -0.4792 Debye
        Dipole field         -0.0001 Ry au, 
 
        Potential amp.        0.0127 Ry
        Total length         54.2615 bohr
 
 
     Adding external electric field

     Computed dipole along edir(3) : 
        Dipole               -0.1885 Ry au,         -0.4792 Debye
        Dipole field         -0.0001 Ry au, 
 
        Potential amp.        0.0127 Ry
        Total length         54.2615 bohr
 

     total cpu time spent up to now is      669.9 secs

     total energy              =   -7398.03553661 Ry
     estimated scf accuracy    <       0.00489897 Ry

     total magnetization       =    80.51 Bohr mag/cell
     absolute magnetization    =    82.02 Bohr mag/cell

     iteration # 49     ecut=    50.00 Ry     beta= 0.10
     Davidson diagonalization with overlap
     ethr =  4.54E-07,  avg # of iterations =  2.0

     negative rho (up, down):  1.101E-05 3.233E-06
 
     Adding external electric field

     Computed dipole along edir(3) : 
        Dipole               -0.2025 Ry au,         -0.5146 Debye
        Dipole field         -0.0001 Ry au, 
 
        Potential amp.        0.0136 Ry
        Total length         54.2615 bohr
 
 
     Adding external electric field

     Computed dipole along edir(3) : 
        Dipole               -0.2025 Ry au,         -0.5146 Debye
        Dipole field         -0.0001 Ry au, 
 
        Potential amp.        0.0136 Ry
        Total length         54.2615 bohr
 

     total cpu time spent up to now is      681.3 secs

     total energy              =   -7398.03577139 Ry
     estimated scf accuracy    <       0.00354138 Ry

     total magnetization       =    80.49 Bohr mag/cell
     absolute magnetization    =    82.06 Bohr mag/cell

     iteration # 50     ecut=    50.00 Ry     beta= 0.10
     Davidson diagonalization with overlap
     ethr =  3.29E-07,  avg # of iterations =  1.5

     negative rho (up, down):  7.611E-05 5.996E-05
 
     Adding external electric field

     Computed dipole along edir(3) : 
        Dipole               -0.1819 Ry au,         -0.4622 Debye
        Dipole field         -0.0001 Ry au, 
 
        Potential amp.        0.0122 Ry
        Total length         54.2615 bohr
 
 
     Adding external electric field

     Computed dipole along edir(3) : 
        Dipole               -0.1819 Ry au,         -0.4622 Debye
        Dipole field         -0.0001 Ry au, 
 
        Potential amp.        0.0122 Ry
        Total length         54.2615 bohr
 

     total cpu time spent up to now is      692.7 secs

     total energy              =   -7398.03589411 Ry
     estimated scf accuracy    <       0.00283154 Ry

     total magnetization       =    80.46 Bohr mag/cell
     absolute magnetization    =    82.04 Bohr mag/cell

     iteration # 51     ecut=    50.00 Ry     beta= 0.10
     Davidson diagonalization with overlap
     ethr =  2.63E-07,  avg # of iterations =  2.0

     negative rho (up, down):  1.100E-05 5.124E-06
 
     Adding external electric field

     Computed dipole along edir(3) : 
        Dipole               -0.2403 Ry au,         -0.6107 Debye
        Dipole field         -0.0001 Ry au, 
 
        Potential amp.        0.0161 Ry
        Total length         54.2615 bohr
 
 
     Adding external electric field

     Computed dipole along edir(3) : 
        Dipole               -0.2403 Ry au,         -0.6107 Debye
        Dipole field         -0.0001 Ry au, 
 
        Potential amp.        0.0161 Ry
        Total length         54.2615 bohr
 

     total cpu time spent up to now is      705.0 secs

     total energy              =   -7398.03574815 Ry
     estimated scf accuracy    <       0.00236024 Ry

     total magnetization       =    80.46 Bohr mag/cell
     absolute magnetization    =    82.03 Bohr mag/cell

     iteration # 52     ecut=    50.00 Ry     beta= 0.10
     Davidson diagonalization with overlap
     ethr =  2.19E-07,  avg # of iterations =  2.0

     negative rho (up, down):  1.327E-06 7.086E-07
 
     Adding external electric field

     Computed dipole along edir(3) : 
        Dipole               -0.2419 Ry au,         -0.6149 Debye
        Dipole field         -0.0001 Ry au, 
 
        Potential amp.        0.0162 Ry
        Total length         54.2615 bohr
 
 
     Adding external electric field

     Computed dipole along edir(3) : 
        Dipole               -0.2419 Ry au,         -0.6149 Debye
        Dipole field         -0.0001 Ry au, 
 
        Potential amp.        0.0162 Ry
        Total length         54.2615 bohr
 

     total cpu time spent up to now is      716.6 secs

     total energy              =   -7398.03585506 Ry
     estimated scf accuracy    <       0.00156805 Ry

     total magnetization       =    80.46 Bohr mag/cell
     absolute magnetization    =    81.98 Bohr mag/cell

     iteration # 53     ecut=    50.00 Ry     beta= 0.10
     Davidson diagonalization with overlap
     ethr =  1.45E-07,  avg # of iterations =  2.0

     negative rho (up, down):  1.392E-06 5.139E-07
 
     Adding external electric field

     Computed dipole along edir(3) : 
        Dipole               -0.2285 Ry au,         -0.5808 Debye
        Dipole field         -0.0001 Ry au, 
 
        Potential amp.        0.0153 Ry
        Total length         54.2615 bohr
 
 
     Adding external electric field

     Computed dipole along edir(3) : 
        Dipole               -0.2285 Ry au,         -0.5808 Debye
        Dipole field         -0.0001 Ry au, 
 
        Potential amp.        0.0153 Ry
        Total length         54.2615 bohr
 

     total cpu time spent up to now is      729.2 secs

     total energy              =   -7398.03595071 Ry
     estimated scf accuracy    <       0.00111747 Ry

     total magnetization       =    80.47 Bohr mag/cell
     absolute magnetization    =    81.98 Bohr mag/cell

     iteration # 54     ecut=    50.00 Ry     beta= 0.10
     Davidson diagonalization with overlap
     ethr =  1.04E-07,  avg # of iterations =  2.0

     negative rho (up, down):  1.144E-06 2.358E-07
 
     Adding external electric field

     Computed dipole along edir(3) : 
        Dipole               -0.2208 Ry au,         -0.5611 Debye
        Dipole field         -0.0001 Ry au, 
 
        Potential amp.        0.0148 Ry
        Total length         54.2615 bohr
 
 
     Adding external electric field

     Computed dipole along edir(3) : 
        Dipole               -0.2208 Ry au,         -0.5611 Debye
        Dipole field         -0.0001 Ry au, 
 
        Potential amp.        0.0148 Ry
        Total length         54.2615 bohr
 

     total cpu time spent up to now is      740.5 secs

     total energy              =   -7398.03602446 Ry
     estimated scf accuracy    <       0.00090217 Ry

     total magnetization       =    80.48 Bohr mag/cell
     absolute magnetization    =    82.00 Bohr mag/cell

     iteration # 55     ecut=    50.00 Ry     beta= 0.10
     Davidson diagonalization with overlap
     ethr =  8.37E-08,  avg # of iterations =  2.0

     negative rho (up, down):  2.636E-06 6.182E-07
 
     Adding external electric field

     Computed dipole along edir(3) : 
        Dipole               -0.2264 Ry au,         -0.5754 Debye
        Dipole field         -0.0001 Ry au, 
 
        Potential amp.        0.0152 Ry
        Total length         54.2615 bohr
 
 
     Adding external electric field

     Computed dipole along edir(3) : 
        Dipole               -0.2264 Ry au,         -0.5754 Debye
        Dipole field         -0.0001 Ry au, 
 
        Potential amp.        0.0152 Ry
        Total length         54.2615 bohr
 

     total cpu time spent up to now is      752.4 secs

     total energy              =   -7398.03603053 Ry
     estimated scf accuracy    <       0.00073896 Ry

     total magnetization       =    80.49 Bohr mag/cell
     absolute magnetization    =    82.01 Bohr mag/cell

     iteration # 56     ecut=    50.00 Ry     beta= 0.10
     Davidson diagonalization with overlap
     ethr =  6.85E-08,  avg # of iterations =  2.0

     negative rho (up, down):  6.146E-06 1.631E-06
 
     Adding external electric field

     Computed dipole along edir(3) : 
        Dipole               -0.2288 Ry au,         -0.5816 Debye
        Dipole field         -0.0001 Ry au, 
 
        Potential amp.        0.0154 Ry
        Total length         54.2615 bohr
 
 
     Adding external electric field

     Computed dipole along edir(3) : 
        Dipole               -0.2288 Ry au,         -0.5816 Debye
        Dipole field         -0.0001 Ry au, 
 
        Potential amp.        0.0154 Ry
        Total length         54.2615 bohr
 

     total cpu time spent up to now is      764.1 secs

     total energy              =   -7398.03603932 Ry
     estimated scf accuracy    <       0.00056659 Ry

     total magnetization       =    80.49 Bohr mag/cell
     absolute magnetization    =    82.01 Bohr mag/cell

     iteration # 57     ecut=    50.00 Ry     beta= 0.10
     Davidson diagonalization with overlap
     ethr =  5.26E-08,  avg # of iterations =  1.0

     negative rho (up, down):  1.637E-04 7.340E-05
 
     Adding external electric field

     Computed dipole along edir(3) : 
        Dipole               -0.2045 Ry au,         -0.5197 Debye
        Dipole field         -0.0001 Ry au, 
 
        Potential amp.        0.0137 Ry
        Total length         54.2615 bohr
 
 
     Adding external electric field

     Computed dipole along edir(3) : 
        Dipole               -0.2045 Ry au,         -0.5197 Debye
        Dipole field         -0.0001 Ry au, 
 
        Potential amp.        0.0137 Ry
        Total length         54.2615 bohr
 

     total cpu time spent up to now is      774.4 secs

     total energy              =   -7398.03610440 Ry
     estimated scf accuracy    <       0.00047643 Ry

     total magnetization       =    80.49 Bohr mag/cell
     absolute magnetization    =    82.00 Bohr mag/cell

     iteration # 58     ecut=    50.00 Ry     beta= 0.10
     Davidson diagonalization with overlap
     ethr =  4.42E-08,  avg # of iterations =  2.0

     negative rho (up, down):  1.309E-03 1.088E-03
 
     Adding external electric field

     Computed dipole along edir(3) : 
        Dipole               -0.1815 Ry au,         -0.4614 Debye
[...]
    -5.9957  -5.9687  -5.9575  -5.9244  -5.9106  -5.8671  -5.8589  -5.8499
    -5.8131  -5.8063  -5.7516  -5.7361  -5.7249  -5.7078  -5.6946  -5.6801
    -5.6711  -5.6662  -5.6343  -5.6183  -5.6107  -5.5778  -5.5312  -5.5063
    -5.4708  -5.4338  -5.4065  -5.3995  -5.3865  -5.3501  -5.3065  -5.2857
    -5.2391  -5.2127  -5.1865  -5.1709  -5.1692  -5.0811  -5.0791  -5.0560
    -4.9839  -4.9753  -4.9365  -4.9121  -4.8873  -4.8755  -4.8576  -4.7958
    -4.7791  -4.7610  -4.7501  -4.7331  -4.6428  -4.6274  -4.5726  -4.5494
    -4.5210  -4.5172  -4.5002  -4.4593  -4.4095  -4.3908  -4.3790  -4.3695
    -4.3580  -4.2971  -4.2931  -4.2282  -4.1726  -4.1423  -4.1048  -4.0933
    -4.0775  -4.0458  -4.0343  -3.9942  -3.9622  -3.9537  -3.9121  -3.8972
    -3.8764  -3.8387  -3.8239  -3.8063  -3.7951  -3.7611  -3.7473  -3.7309
    -3.6993  -3.6851  -3.6639  -3.6431  -3.6410  -3.6347  -3.5918  -3.5812
    -3.5431  -3.5254  -3.5102  -3.4934  -3.4868  -3.4753  -3.4528  -3.4403
    -3.4282  -3.3979  -3.3842  -3.3473  -3.3362  -3.3137  -3.2627  -3.2509
    -3.2322  -3.2147  -3.2129  -3.1827  -3.1767  -3.1656  -3.1488  -3.1417
    -3.1272  -3.0769  -3.0364  -3.0305  -3.0041  -2.9997  -2.9670  -2.9388
    -2.9173  -2.9166  -2.8996  -2.8710  -2.8567  -2.8356  -2.8165  -2.8083
    -2.7977  -2.7855  -2.7788  -2.7664  -2.7443  -2.7368  -2.7238  -2.6981
    -2.6804  -2.6654  -2.6612  -2.6498  -2.6231  -2.6102  -2.5916  -2.5792
    -2.5501  -2.5354  -2.5264  -2.5172  -2.4934  -2.4788  -2.4669  -2.4358
    -2.4123  -2.3968  -2.3922  -2.3687  -2.3558  -2.3121  -2.2928  -2.2838
    -2.2627  -2.2401  -2.2286  -2.2079  -2.1753  -2.1571  -2.1259  -2.1206
    -2.1100  -2.0853  -2.0772  -2.0697  -2.0680  -2.0367  -2.0048  -1.9887
    -1.9746  -1.9624  -1.9548  -1.9397  -1.9259  -1.9187  -1.8904  -1.8565
    -1.8414  -1.8182  -1.7876  -1.7639  -1.7361  -1.7223  -1.6979  -1.6930
    -1.6557  -1.6517  -1.6462  -1.6287  -1.6137  -1.6064  -1.5832  -1.5473
    -1.5342  -1.5129  -1.4716  -1.4652  -1.4423  -1.4330  -1.4193  -1.4119
    -1.3864  -1.3824  -1.3390  -1.3191  -1.2972  -1.2375  -1.2333  -1.2039
    -1.1480  -1.0995  -1.0729  -1.0532  -1.0145  -0.9272  -0.8996  -0.8770
    -0.7660  -0.6660  -0.6144  -0.5953  -0.4640  -0.3676  -0.3133  -0.2597
     0.1031   0.1255   0.1543   0.1920   0.2255   0.2427   0.2597   0.2715
     0.2799   0.2969   0.3003   0.3026   0.3097   0.3307   0.3432   0.3490
     0.3549   0.3569   0.3739   0.3797   0.3838   0.3943   0.3966   0.4077
     0.4118   0.4145   0.4238   0.4371   0.4444   0.4523   0.4573   0.4610
     0.4644   0.4706   0.4734   0.4919   0.4931   0.4995   0.5116   0.5140
     0.5209   0.5431   0.5455   0.5495   0.5588   0.5645   0.5671   0.5719
     0.5771   0.5880   0.5919   0.5940   0.6083   0.6151   0.6229   0.6353
     0.6389   0.6474   0.6543   0.6660   0.6745   0.6752   0.6869   0.6915
     0.6928   0.7013   0.7105   0.7140   0.7194   0.7357   0.7400   0.7448
     0.7482   0.7550   0.7687   0.7801   0.7863   0.7973   0.8075   0.8212
     0.8274   0.8369   0.8436   0.8611   0.8637   0.8714   0.8795   0.8813
     0.8969   0.9134   0.9193   0.9258   0.9354   0.9716   0.9859   1.0427
     1.0713   1.1349   1.6038   1.6575   1.7003   1.7120   1.7135   1.7413
     1.7709   1.8338   1.8697   1.8730   1.8950   1.9308   1.9355   1.9655
     1.9776   1.9903   2.0157   2.0381   2.0511   2.0716   2.0837   2.1103
     2.1429   2.1554   2.1792   2.1897   2.1971   2.2158   2.2246   2.2442
     2.2513   2.2546   2.2677   2.2810   2.2873   2.2965   2.3064   2.3231
     2.3376   2.3432   2.3652   2.3869   2.4028   2.4188   2.4333   2.4467
     2.4558   2.4736   2.4981   2.5054   2.5131   2.5317   2.5546   2.5675
     2.5794   2.5864   2.6106   2.6377   2.6597   2.6727   2.7350   2.7614
     2.7829   2.8331   2.8421   2.9044   2.9173   3.5890   3.5901   3.6645
     3.7601   3.8252   3.8423   3.8567   3.8613   3.9994   4.0645   4.5899
     4.6456   4.7072   4.7741   4.9250   4.9484   5.0195   5.4143   6.2957
     6.3604   6.5420   6.5892   6.7784   6.8153   6.8433   6.8797   6.9241
     7.0142   7.0667   7.0973   7.1199   7.3203   7.3645   7.3778   7.4145
     7.4990   7.5549   7.6552   7.6760   7.6886   7.7546   7.7876   7.8093
     7.8626   7.9203   7.9507   7.9790   8.0214   8.0312   8.0607   8.0699
     8.0932   8.1167   8.1604   8.2011   8.2345   8.2644   8.3000   8.3277
     8.3801   8.4103   8.4179   8.4421   8.4612   8.4785   8.5006   8.5114
     8.5325   8.5577   8.5838   8.5974   8.6207   8.6433   8.6798   8.6907
     8.7216   8.7664   8.7946   8.7975   8.8236   8.8607   8.8791

     the Fermi energy is     1.5647 ev

!    total energy              =   -7398.03615846 Ry
     estimated scf accuracy    <       0.00000060 Ry
     smearing contrib. (-TS)   =      -0.01404669 Ry
     internal energy E=F+TS    =   -7398.02211177 Ry

     The total energy is F=E-TS. E is the sum of the following terms:
     one-electron contribution =  -91684.41127246 Ry
     hartree contribution      =   46490.13049030 Ry
     xc contribution           =   -2260.27454962 Ry
     ewald contribution        =   40058.36674959 Ry
     Dispersion Correction     =      -1.83354160 Ry
     electric field correction =       0.00001201 Ry

     total magnetization       =    80.47 Bohr mag/cell
     absolute magnetization    =    82.00 Bohr mag/cell

     convergence has been achieved in  68 iterations

     negative rho (up, down):  9.309E-04 5.479E-04

     Forces acting on atoms (cartesian axes, Ry/au):

     atom    1 type  2   force =     0.03101623   -0.01966466   -0.01592878
     atom    2 type  1   force =     0.00193041   -0.00398866   -0.01067735
     atom    3 type  1   force =    -0.02135803   -0.02062373    0.01835976
     atom    4 type  1   force =     0.00135616    0.01024891   -0.01257382
     atom    5 type  1   force =    -0.00451925    0.02897812   -0.01832597
     atom    6 type  1   force =     0.00586213    0.00054920   -0.00030749
     atom    7 type  1   force =     0.02676788   -0.02100809    0.01755834
     atom    8 type  1   force =    -0.00936187   -0.00310455   -0.01088646
     atom    9 type  1   force =    -0.02988034   -0.01810714    0.01626564
     atom   10 type  1   force =    -0.00113881    0.00817399   -0.01287710
     atom   11 type  1   force =    -0.01339280    0.03031940   -0.02057376
     atom   12 type  1   force =     0.00122209    0.00655871   -0.00395072
     atom   13 type  3   force =     0.05102458   -0.11002119    0.00916272
     atom   14 type  3   force =    -0.02904034    0.03592730   -0.06517849
     atom   15 type  3   force =    -0.00920272    0.17549319   -0.08317755
     atom   16 type  3   force =     0.06069690    0.00055200   -0.00438465
     atom   17 type  4   force =     0.01520190   -0.02183603   -0.00974503
     atom   18 type  4   force =    -0.00539106    0.00479130    0.02963813
     atom   19 type  4   force =     0.00213168    0.00099511    0.03075518
     atom   20 type  4   force =     0.00512155    0.00189885    0.00240737
     atom   21 type  4   force =     0.00061254   -0.01199849   -0.00005042
     atom   22 type  4   force =    -0.00095073    0.00389273    0.03246806
     atom   23 type  4   force =    -0.00606410    0.01469212    0.02737248
     atom   24 type  4   force =     0.00864675    0.00326312   -0.00433249
     atom   25 type  4   force =     0.00647122   -0.00330564    0.00156188
     atom   26 type  4   force =     0.03116125   -0.17833680    0.00725439
     atom   27 type  4   force =     0.00291485    0.00100550    0.00169926
     atom   28 type  4   force =    -0.01704506    0.00167201    0.00476102
     atom   29 type  4   force =     0.09134425    0.00313873    0.00807073
     atom   30 type  4   force =     0.01306034   -0.02514198   -0.00089216
     atom   31 type  4   force =    -0.03843106    0.13329454   -0.00018600
     atom   32 type  4   force =    -0.00559007   -0.01188398    0.00652317
     atom   33 type  3   force =     0.04157503   -0.11920218    0.00962072
     atom   34 type  3   force =    -0.10168307    0.04258850   -0.07575110
     atom   35 type  3   force =    -0.01350722    0.16599254   -0.08811321
     atom   36 type  3   force =    -0.00359265    0.00255113   -0.01042862
     atom   37 type  4   force =     0.00821872   -0.01469669   -0.00236068
     atom   38 type  4   force =    -0.00584910   -0.00170874    0.02745364
     atom   39 type  4   force =    -0.00466721    0.00725392    0.03219010
     atom   40 type  4   force =     0.00128473    0.00004571    0.00248701
     atom   41 type  4   force =    -0.00151542   -0.00962730   -0.00152401
     atom   42 type  4   force =     0.00539854   -0.00048667    0.02925353
     atom   43 type  4   force =    -0.01042335    0.01353987    0.02695127
     atom   44 type  4   force =     0.00443179    0.00351124   -0.00450443
     atom   45 type  4   force =    -0.00033789   -0.00064755    0.00201741
     atom   46 type  4   force =     0.02818111   -0.17062099    0.00539725
     atom   47 type  4   force =    -0.06549874   -0.00073474   -0.00309205
     atom   48 type  4   force =    -0.01991298    0.00390502    0.00530204
     atom   49 type  4   force =     0.01407768    0.00084895    0.00205229
     atom   50 type  4   force =     0.00792542   -0.02440977   -0.00016007
     atom   51 type  4   force =    -0.03976911    0.13334270   -0.00134475
     atom   52 type  4   force =    -0.00778521   -0.01067012    0.00877604
     atom   53 type  2   force =     0.00626700   -0.00730005    0.00574608
     atom   54 type  1   force =     0.00051292   -0.00460219    0.00791947
     atom   55 type  1   force =     0.00513430   -0.00616603    0.00679941
     atom   56 type  1   force =     0.00070143    0.00593158    0.00300986
     atom   57 type  1   force =     0.00102582    0.02203213   -0.01391488
     atom   58 type  1   force =     0.00143390   -0.00338243    0.00247013
     atom   59 type  1   force =     0.00257503   -0.01030480    0.00389045
     atom   60 type  1   force =    -0.00672671   -0.00303665    0.00369888
     atom   61 type  1   force =    -0.00482943   -0.00497849    0.00673318
     atom   62 type  1   force =    -0.00355689    0.00607486   -0.00071120
     atom   63 type  1   force =    -0.01123651    0.02511909   -0.01754838
     atom   64 type  1   force =    -0.00214036    0.00117644   -0.00065903
     atom   65 type  3   force =     0.04516188   -0.11954948    0.01963231
     atom   66 type  3   force =     0.00159326   -0.00445234    0.00057282
     atom   67 type  3   force =    -0.04073531    0.12370746   -0.00684340
     atom   68 type  3   force =     0.06329666   -0.00209633    0.00756497
     atom   69 type  4   force =     0.01274866   -0.01725399   -0.00282216
     atom   70 type  4   force =    -0.00167118    0.00343011   -0.00056129
     atom   71 type  4   force =    -0.00187381    0.00335517    0.00523005
     atom   72 type  4   force =     0.00461470    0.00164431    0.00080997
     atom   73 type  4   force =     0.00877967   -0.01685850    0.01180078
     atom   74 type  4   force =    -0.00435103   -0.00342314    0.00942355
     atom   75 type  4   force =     0.00347869    0.00861207    0.00460763
     atom   76 type  4   force =     0.00586463    0.00085617   -0.00220711
     atom   77 type  4   force =     0.00606145   -0.00192073   -0.00110457
     atom   78 type  4   force =     0.04528930   -0.14084095    0.00577189
     atom   79 type  4   force =     0.00033635    0.00035198   -0.00074960
     atom   80 type  4   force =     0.00162947    0.00189232    0.00217690
     atom   81 type  4   force =     0.06729170    0.00014957    0.00648775
     atom   82 type  4   force =     0.00023708    0.00249954    0.00131854
     atom   83 type  4   force =    -0.03899395    0.13787144   -0.00272626
     atom   84 type  4   force =    -0.00115988   -0.01068447    0.00373471
     atom   85 type  3   force =     0.03948557   -0.12370909    0.02502493
     atom   86 type  3   force =    -0.06327956   -0.00171806   -0.00372444
     atom   87 type  3   force =    -0.04611097    0.12085364   -0.01042551
     atom   88 type  3   force =    -0.00011742   -0.00163745    0.00283060
     atom   89 type  4   force =     0.00862495   -0.01528311   -0.00484399
     atom   90 type  4   force =    -0.00450133    0.00098158   -0.00099673
     atom   91 type  4   force =    -0.00953207    0.00830502    0.00540814
     atom   92 type  4   force =     0.00038279    0.00002914    0.00005556
     atom   93 type  4   force =     0.00125244   -0.01173084    0.00070297
     atom   94 type  4   force =    -0.00903653   -0.00297160    0.00835675
     atom   95 type  4   force =    -0.00033265    0.00774089    0.00301266
     atom   96 type  4   force =    -0.00089970    0.00073177    0.00003862
     atom   97 type  4   force =    -0.00105578    0.00186007   -0.00016986
     atom   98 type  4   force =     0.04054054   -0.13917155    0.00483179
     atom   99 type  4   force =    -0.06726676   -0.00086691   -0.00603135
     atom  100 type  4   force =    -0.00043274    0.00279719    0.00290332
     atom  101 type  4   force =    -0.00130116    0.00011043    0.00144450
     atom  102 type  4   force =    -0.00681349    0.00557204    0.00156536
     atom  103 type  4   force =    -0.04031134    0.13536966   -0.00429918
     atom  104 type  4   force =    -0.00607565   -0.01006418    0.00502451
     atom  105 type  2   force =    -0.00036454    0.00013826   -0.00020271
     atom  106 type  1   force =     0.00037188   -0.00062302   -0.00058959
     atom  107 type  1   force =     0.00038511    0.00019270    0.00041278
     atom  108 type  1   force =     0.00011757    0.00021339   -0.00007751
     atom  109 type  1   force =     0.00032071   -0.00074363   -0.00031507
     atom  110 type  1   force =    -0.00049745    0.00000202   -0.00045711
     atom  111 type  1   force =     0.00011679   -0.00051968    0.00016095
     atom  112 type  1   force =     0.00017552    0.00020556   -0.00057688
     atom  113 type  1   force =     0.00004565   -0.00029911   -0.00028388
     atom  114 type  1   force =    -0.00014749    0.00026341   -0.00000624
     atom  115 type  1   force =    -0.00011401    0.00039295   -0.00023674
     atom  116 type  1   force =    -0.00033029    0.00015862   -0.00029699
     atom  117 type  3   force =    -0.00081297   -0.00082553    0.00024932
     atom  118 type  3   force =    -0.00015273   -0.00005713    0.00020495
     atom  119 type  3   force =     0.00000027    0.00008063   -0.00059039
     atom  120 type  3   force =     0.00009996   -0.00015383   -0.00006853
     atom  121 type  4   force =     0.00046806    0.00029136    0.00078869
     atom  122 type  4   force =    -0.00018663    0.00018331    0.00005277
     atom  123 type  4   force =     0.00003882   -0.00015583   -0.00016711
     atom  124 type  4   force =     0.00036196   -0.00039792    0.00009544
     atom  125 type  4   force =     0.00060198    0.00045708   -0.00055972
     atom  126 type  4   force =    -0.00010133   -0.00019638   -0.00013036
     atom  127 type  4   force =     0.00045908   -0.00030666    0.00002173
     atom  128 type  4   force =    -0.00002858    0.00051403   -0.00016278
     atom  129 type  4   force =     0.00032579   -0.00023471    0.00020232
     atom  130 type  4   force =    -0.00016880   -0.00007817    0.00023476
     atom  131 type  4   force =    -0.00068485   -0.00034295   -0.00011458
     atom  132 type  4   force =     0.00015463   -0.00008919   -0.00027431
     atom  133 type  4   force =    -0.00013161    0.00021147   -0.00024353
     atom  134 type  4   force =     0.00005450    0.00028937   -0.00032025
     atom  135 type  4   force =     0.00042817    0.00075075   -0.00038157
     atom  136 type  4   force =    -0.00032510   -0.00003215   -0.00010363
     atom  137 type  3   force =    -0.00048577   -0.00006491    0.00010603
     atom  138 type  3   force =     0.00013253    0.00001545    0.00001610
     atom  139 type  3   force =    -0.00018167   -0.00031534    0.00006692
     atom  140 type  3   force =     0.00029837   -0.00055784    0.00094403
     atom  141 type  4   force =     0.00014400   -0.00012034    0.00016837
     atom  142 type  4   force =     0.00016721   -0.00008910    0.00003491
     atom  143 type  4   force =    -0.00012181   -0.00011051   -0.00026848
     atom  144 type  4   force =    -0.00036980   -0.00056895   -0.00067860
     atom  145 type  4   force =    -0.00013619   -0.00016928   -0.00060029
     atom  146 type  4   force =    -0.00016887    0.00005891   -0.00001182
     atom  147 type  4   force =     0.00021684   -0.00017536    0.00004950
     atom  148 type  4   force =    -0.00049815   -0.00030007   -0.00053193
     atom  149 type  4   force =    -0.00005859    0.00031204   -0.00007274
     atom  150 type  4   force =    -0.00018327   -0.00018058   -0.00019358
     atom  151 type  4   force =    -0.00014345   -0.00001631    0.00031712
     atom  152 type  4   force =    -0.00003650   -0.00034695   -0.00017912
     atom  153 type  4   force =    -0.00018992    0.00024291   -0.00002064
     atom  154 type  4   force =     0.00014431    0.00033098    0.00001661
     atom  155 type  4   force =    -0.00008244    0.00001304    0.00012472
     atom  156 type  4   force =     0.00003513    0.00021176   -0.00003713
     atom  157 type  4   force =    -0.00758559   -0.00535342   -0.00185431
     atom  158 type  5   force =     0.00691804    0.00564377    0.00204769

     Total force =     0.664930     Total SCF correction =     0.003163
 
     init_run     :      7.49s CPU      8.14s WALL (       1 calls)
     electrons    :    854.08s CPU    893.88s WALL (       1 calls)
     forces       :      3.87s CPU      4.24s WALL (       1 calls)
     force_london :      0.09s CPU      0.09s WALL (       1 calls)

     Called by init_run:
     wfcinit      :      4.54s CPU      4.69s WALL (       1 calls)
     potinit      :      0.56s CPU      0.73s WALL (       1 calls)
     hinit0       :      1.20s CPU      1.29s WALL (       1 calls)

     Called by electrons:
     c_bands      :    675.47s CPU    696.22s WALL (      68 calls)
     sum_band     :    114.85s CPU    125.05s WALL (      68 calls)
     v_of_rho     :     12.79s CPU     13.88s WALL (      69 calls)
     newd         :     32.55s CPU     40.41s WALL (      69 calls)
     mix_rho      :     18.04s CPU     18.18s WALL (      68 calls)
     energy_londo :      0.09s CPU      0.09s WALL (       1 calls)

     Called by c_bands:
     init_us_2    :      1.94s CPU      1.97s WALL (     276 calls)
     init_us_2:cp :      1.94s CPU      1.97s WALL (     276 calls)
     regterg      :    661.28s CPU    681.86s WALL (     138 calls)

     Called by *egterg:
     rdiaghg      :    192.14s CPU    201.40s WALL (     536 calls)
     h_psi        :    259.60s CPU    265.21s WALL (     538 calls)
     s_psi        :     47.23s CPU     47.28s WALL (     538 calls)
     g_psi        :      0.33s CPU      0.33s WALL (     398 calls)

     Called by h_psi:
     h_psi:calbec :     68.34s CPU     72.88s WALL (     538 calls)
     vloc_psi     :    141.79s CPU    142.37s WALL (     538 calls)
     add_vuspsi   :     48.86s CPU     49.33s WALL (     538 calls)

     General routines
     calbec       :    101.23s CPU    107.80s WALL (     682 calls)
     fft          :     15.62s CPU     17.02s WALL (    1255 calls)
     ffts         :     10.86s CPU     10.88s WALL (    8447 calls)
     fftw         :    162.71s CPU    163.33s WALL (  230298 calls)
     interpolate  :      1.06s CPU      1.15s WALL (     138 calls)
 
     Parallel routines
 
     PWSCF        :  14m27.44s CPU  15m 8.51s WALL

 
   This run was terminated on:  21:46:12  19Nov2025            

=------------------------------------------------------------------------------=
   JOB DONE.
=------------------------------------------------------------------------------=
