
     Program PWSCF v.7.2 starts on 19Nov2025 at 19:18:21 

     This program is part of the open-source Quantum ESPRESSO suite
     for quantum simulation of materials; please cite
         "P. Giannozzi et al., J. Phys.:Condens. Matter 21 395502 (2009);
         "P. Giannozzi et al., J. Phys.:Condens. Matter 29 465901 (2017);
         "P. Giannozzi et al., J. Chem. Phys. 152 154105 (2020);
          URL http://www.quantum-espresso.org", 
     in publications or presentations arising from this work. More details at
     http://www.quantum-espresso.org/quote

     Parallel version (MPI), running on    64 processors

     MPI processes distributed on     4 nodes
     446552 MiB available memory on the printing compute node when the environment starts
 
     Reading input from PWINPUT_atm157_xm

     Current dimensions of program PWSCF are:
     Max number of different atomic species (ntypx) = 10
     Max number of k-points (npk) =  40000
     Max angular momentum in pseudopotentials (lmaxx) =  4
     Presently no symmetry can be used with electric field

     file Ni.pbe-n-rrkjus_psl.1.0.0.UPF: wavefunction(s)  3D renormalized
     file Mn.pbe-spn-rrkjus_psl.0.3.1.UPF: wavefunction(s)  3D renormalized
     file O.pbe-rrkjus.UPF: wavefunction(s)  2S renormalized
     file H.pbe-rrkjus.UPF: wavefunction(s)  1S renormalized

     gamma-point specific algorithms are used
 
     R & G space division:  proc/nbgrp/npool/nimage =      64
     Subspace diagonalization in iterative solution of the eigenvalue problem:
     one sub-group per band group will be used
     custom distributed-memory algorithm (size of sub-group:  6*  6 procs)

 
     Parallelization info
     --------------------
     sticks:   dense  smooth     PW     G-vecs:    dense   smooth      PW
     Min         208      82     20                59912    15118    1876
     Max         210      84     22                59974    15196    1926
     Sum       13399    5355   1345              3836275   970529  121367
 
     Using Slab Decomposition
 


     bravais-lattice index     =            0
     lattice parameter (alat)  =      17.7004  a.u.
     unit-cell volume          =   20319.7251 (a.u.)^3
     number of atoms/cell      =          158
     number of atomic types    =            5
     number of electrons       =      1078.00
     number of Kohn-Sham states=          647
     kinetic-energy cutoff     =      50.0000  Ry
     charge density cutoff     =     500.0000  Ry
     scf convergence threshold =      1.0E-06
     mixing beta               =       0.1000
     number of iterations used =            8  local-TF  mixing
     Exchange-correlation=  SLA  PW   PBE  PBE
                           (   1   4   3   4   0   0   0)

     celldm(1)=  17.700384  celldm(2)=   0.000000  celldm(3)=   0.000000
     celldm(4)=   0.000000  celldm(5)=   0.000000  celldm(6)=   0.000000

     crystal axes: (cart. coord. in units of alat)
               a(1) = (   1.000000   0.000000   0.000000 )  
               a(2) = (   0.000000   1.075730   0.000000 )  
               a(3) = (   0.000000   0.000000   3.406172 )  

     reciprocal axes: (cart. coord. in units 2 pi/alat)
               b(1) = (  1.000000  0.000000  0.000000 )  
               b(2) = (  0.000000  0.929602  0.000000 )  
               b(3) = (  0.000000  0.000000  0.293585 )  


     PseudoPot. # 1 for Ni read from file:
     ~/PSEUDO/Ni.pbe-n-rrkjus_psl.1.0.0.UPF
     MD5 check sum: Not computed, couldn't open file
     Pseudo is Ultrasoft + core correction, Zval = 10.0
     Generated using "atomic" code by A. Dal Corso  v.5.1.2
     Using radial grid of 1195 points,  6 beta functions with: 
                l(1) =   0
                l(2) =   0
                l(3) =   1
                l(4) =   1
                l(5) =   2
                l(6) =   2
     Q(r) pseudized with 0 coefficients 


     PseudoPot. # 2 for Mn read from file:
     ~/PSEUDO/Mn.pbe-spn-rrkjus_psl.0.3.1.UPF
     MD5 check sum: Not computed, couldn't open file
     Pseudo is Ultrasoft + core correction, Zval = 15.0
     Generated using &quot;atomic&quot; code by A. Dal Corso  v.6.2.2
     Using radial grid of 1187 points,  6 beta functions with: 
                l(1) =   0
                l(2) =   0
                l(3) =   1
                l(4) =   1
                l(5) =   2
                l(6) =   2
     Q(r) pseudized with 0 coefficients 


     PseudoPot. # 3 for P  read from file:
     ~/PSEUDO/P.pbe-n-rrkjus_psl.1.0.0.UPF
     MD5 check sum: Not computed, couldn't open file
     Pseudo is Ultrasoft + core correction, Zval =  5.0
     Generated using "atomic" code by A. Dal Corso  v.5.1
     Using radial grid of 1147 points,  6 beta functions with: 
                l(1) =   0
                l(2) =   0
                l(3) =   1
                l(4) =   1
                l(5) =   2
                l(6) =   2
     Q(r) pseudized with 0 coefficients 


     PseudoPot. # 4 for O  read from file:
     ~/PSEUDO/O.pbe-rrkjus.UPF
     MD5 check sum: Not computed, couldn't open file
     Pseudo is Ultrasoft, Zval =  6.0
     Generated by new atomic code, or converted to UPF format
     Using radial grid of 1269 points,  4 beta functions with: 
                l(1) =   0
                l(2) =   0
                l(3) =   1
                l(4) =   1
     Q(r) pseudized with 0 coefficients 


     PseudoPot. # 5 for H  read from file:
     ~/PSEUDO/H.pbe-rrkjus.UPF
     MD5 check sum: Not computed, couldn't open file
     Pseudo is Ultrasoft, Zval =  1.0
     Generated by new atomic code, or converted to UPF format
     Using radial grid of 1061 points,  2 beta functions with: 
                l(1) =   0
                l(2) =   0
     Q(r) pseudized with 0 coefficients 


     atomic species   valence    mass     pseudopotential
     Ni               10.00    58.69300     Ni( 1.00)
     Mn               15.00    54.93800     Mn( 1.00)
     P                 5.00    30.97300     P ( 1.00)
     O                 6.00    15.99900     O ( 1.00)
     H                 1.00     1.00790     H ( 1.00)

     Starting magnetic structure 
     atomic species   magnetization
     Ni              1.000
     Mn              1.000
     P               1.000
     O               1.000
     H               0.000

     No symmetry found



   Cartesian axes

     site n.     atom                  positions (alat units)
         1        Mn     tau(   1) = (   0.2404744   0.8371250   0.1168501  )
         2        Ni     tau(   2) = (   0.4968126   0.7726670   0.4415546  )
         3        Ni     tau(   3) = (   0.0066150   0.2936743   0.1241053  )
         4        Ni     tau(   4) = (   0.2585722   0.2355858   0.4448848  )
         5        Ni     tau(   5) = (   0.9987350   1.0696411   0.2854926  )
         6        Ni     tau(   6) = (   0.2517397   0.5330511   0.2829322  )
         7        Ni     tau(   7) = (   0.7451645   0.8337543   0.1221751  )
         8        Ni     tau(   8) = (   0.9939181   0.7738804   0.4407595  )
         9        Ni     tau(   9) = (   0.5111533   0.2924088   0.1251865  )
        10        Ni     tau(  10) = (   0.7606326   0.2319267   0.4451372  )
        11        Ni     tau(  11) = (   0.5024065   1.0688133   0.2870502  )
        12        Ni     tau(  12) = (   0.7529977   0.5317900   0.2845227  )
        13        P      tau(  13) = (   0.2092944   0.9731097   0.4345035  )
        14        P      tau(  14) = (   0.4655727   0.6359535   0.1274635  )
        15        P      tau(  15) = (   0.2910699   0.1027363   0.1296098  )
        16        P      tau(  16) = (   0.0396216   0.4288395   0.4398838  )
        17        O      tau(  17) = (   0.1294378   0.9013260   0.3010618  )
        18        O      tau(  18) = (   0.3874505   0.7054774   0.2637003  )
        19        O      tau(  19) = (   0.3702540   0.1714799   0.2660028  )
        20        O      tau(  20) = (   0.1184398   0.3582958   0.3038353  )
        21        O      tau(  21) = (   0.1451572   0.8850881   0.5587578  )
        22        O      tau(  22) = (   0.4048762   0.7245585   0.0017492  )
        23        O      tau(  23) = (   0.3523506   0.1900579   0.0035744  )
        24        O      tau(  24) = (   0.1017610   0.3410484   0.5656572  )
        25        O      tau(  25) = (   0.0975396   0.5849288   0.4357922  )
        26        O      tau(  26) = (   0.3483552   1.0314945   0.1270322  )
        27        O      tau(  27) = (   0.3784305   0.4225118   0.4308928  )
        28        O      tau(  28) = (   0.1268237   0.1067944   0.1392744  )
        29        O      tau(  29) = (   0.1212267   0.6424170   0.1362896  )
        30        O      tau(  30) = (   0.4053315   0.4809387   0.1300622  )
        31        O      tau(  31) = (   0.1536621   0.0446918   0.4373386  )
        32        O      tau(  32) = (   0.3732349   0.9631717   0.4256642  )
        33        P      tau(  33) = (   0.7119823   0.9695974   0.4373010  )
        34        P      tau(  34) = (   0.9615208   0.6363392   0.1262932  )
        35        P      tau(  35) = (   0.7927710   0.0970060   0.1292164  )
        36        P      tau(  36) = (   0.5426404   0.4269675   0.4410738  )
        37        O      tau(  37) = (   0.6326879   0.8991182   0.3013240  )
        38        O      tau(  38) = (   0.8842163   0.7083206   0.2625155  )
        39        O      tau(  39) = (   0.8716178   0.1677751   0.2653504  )
        40        O      tau(  40) = (   0.6212010   0.3558666   0.3051085  )
        41        O      tau(  41) = (   0.6507714   0.8812342   0.5631722  )
        42        O      tau(  42) = (   0.9014054   0.7264458   0.0010676  )
        43        O      tau(  43) = (   0.8548963   0.1847909   0.0035471  )
        44        O      tau(  44) = (   0.6044469   0.3378706   0.5660366  )
        45        O      tau(  45) = (   0.6024424   0.5823140   0.4379016  )
        46        O      tau(  46) = (   0.8498940   1.0254482   0.1275156  )
        47        O      tau(  47) = (   0.8798395   0.4205825   0.4305771  )
        48        O      tau(  48) = (   0.6286921   0.1034636   0.1397346  )
        49        O      tau(  49) = (   0.6294973   0.6427753   0.1372553  )
        50        O      tau(  50) = (   0.9024339   0.4810312   0.1296418  )
        51        O      tau(  51) = (   0.6547812   0.0410987   0.4396636  )
        52        O      tau(  52) = (   0.8760507   0.9632605   0.4264507  )
        53        Mn     tau(  53) = (   0.2404744   0.8246335   0.7367378  )
        54        Ni     tau(  54) = (   0.4968126   0.7601755   1.0614423  )
        55        Ni     tau(  55) = (   0.0066150   0.2811828   0.7439929  )
        56        Ni     tau(  56) = (   0.2585722   0.2230943   1.0647725  )
        57        Ni     tau(  57) = (   0.9987350   1.0571496   0.9053803  )
        58        Ni     tau(  58) = (   0.2517397   0.5205596   0.9028199  )
        59        Ni     tau(  59) = (   0.7451645   0.8212628   0.7420628  )
        60        Ni     tau(  60) = (   0.9939181   0.7613889   1.0606471  )
        61        Ni     tau(  61) = (   0.5111533   0.2799173   0.7450742  )
        62        Ni     tau(  62) = (   0.7606326   0.2194352   1.0650249  )
        63        Ni     tau(  63) = (   0.5024065   1.0563218   0.9069379  )
        64        Ni     tau(  64) = (   0.7529977   0.5192985   0.9044104  )
        65        P      tau(  65) = (   0.2092944   0.9606182   1.0543912  )
        66        P      tau(  66) = (   0.4655727   0.6234620   0.7473512  )
        67        P      tau(  67) = (   0.2910699   0.0902448   0.7494974  )
        68        P      tau(  68) = (   0.0396216   0.4163480   1.0597715  )
        69        O      tau(  69) = (   0.1294378   0.8888345   0.9209495  )
        70        O      tau(  70) = (   0.3874505   0.6929859   0.8835880  )
        71        O      tau(  71) = (   0.3702540   0.1589885   0.8858904  )
        72        O      tau(  72) = (   0.1184398   0.3458043   0.9237230  )
        73        O      tau(  73) = (   0.1451572   0.8725966   1.1786454  )
        74        O      tau(  74) = (   0.4048762   0.7120670   0.6216369  )
        75        O      tau(  75) = (   0.3523506   0.1775664   0.6234620  )
        76        O      tau(  76) = (   0.1017610   0.3285569   1.1855448  )
        77        O      tau(  77) = (   0.0975396   0.5724373   1.0556799  )
        78        O      tau(  78) = (   0.3483552   1.0190030   0.7469198  )
        79        O      tau(  79) = (   0.3784305   0.4100203   1.0507804  )
        80        O      tau(  80) = (   0.1268237   0.0943029   0.7591620  )
        81        O      tau(  81) = (   0.1212267   0.6299255   0.7561772  )
        82        O      tau(  82) = (   0.4053315   0.4684472   0.7499499  )
        83        O      tau(  83) = (   0.1536621   0.0322003   1.0572263  )
        84        O      tau(  84) = (   0.3732349   0.9506802   1.0455518  )
        85        P      tau(  85) = (   0.7119823   0.9571059   1.0571887  )
        86        P      tau(  86) = (   0.9615208   0.6238477   0.7461808  )
        87        P      tau(  87) = (   0.7927710   0.0845145   0.7491041  )
        88        P      tau(  88) = (   0.5426404   0.4144760   1.0609615  )
        89        O      tau(  89) = (   0.6326879   0.8866267   0.9212117  )
        90        O      tau(  90) = (   0.8842163   0.6958291   0.8824032  )
        91        O      tau(  91) = (   0.8716178   0.1552836   0.8852381  )
        92        O      tau(  92) = (   0.6212010   0.3433751   0.9249961  )
        93        O      tau(  93) = (   0.6507714   0.8687427   1.1830599  )
        94        O      tau(  94) = (   0.9014054   0.7139543   0.6209553  )
        95        O      tau(  95) = (   0.8548963   0.1722994   0.6234348  )
        96        O      tau(  96) = (   0.6044469   0.3253792   1.1859242  )
        97        O      tau(  97) = (   0.6024424   0.5698225   1.0577892  )
        98        O      tau(  98) = (   0.8498940   1.0129567   0.7474033  )
        99        O      tau(  99) = (   0.8798395   0.4080910   1.0504647  )
       100        O      tau( 100) = (   0.6286921   0.0909721   0.7596222  )
       101        O      tau( 101) = (   0.6294973   0.6302838   0.7571429  )
       102        O      tau( 102) = (   0.9024339   0.4685397   0.7495295  )
       103        O      tau( 103) = (   0.6547812   0.0286072   1.0595512  )
       104        O      tau( 104) = (   0.8760507   0.9507690   1.0463383  )
       105        Mn     tau( 105) = (   0.2366231   0.8099108   1.3652025  )
       106        Ni     tau( 106) = (   0.5054159   0.7462824   1.6760027  )
       107        Ni     tau( 107) = (   0.0089171   0.2673656   1.3686123  )
       108        Ni     tau( 108) = (   0.2644416   0.1993195   1.7084151  )
       109        Ni     tau( 109) = (   1.0061379   1.0432337   1.5350349  )
       110        Ni     tau( 110) = (   0.2518568   0.5022264   1.5321875  )
       111        Ni     tau( 111) = (   0.7428918   0.8054563   1.3680737  )
       112        Ni     tau( 112) = (   1.0041850   0.7431092   1.6780598  )
       113        Ni     tau( 113) = (   0.5112288   0.2659826   1.3709479  )
       114        Ni     tau( 114) = (   0.7532805   0.2088052   1.6753652  )
       115        Ni     tau( 115) = (   0.5047699   1.0448721   1.5373338  )
       116        Ni     tau( 116) = (   0.7503649   0.5053471   1.5308247  )
       117        P      tau( 117) = (   0.2161577   0.9302828   1.6982302  )
       118        P      tau( 118) = (   0.4629997   0.6076656   1.3708803  )
       119        P      tau( 119) = (   0.2923548   0.0759931   1.3761085  )
       120        P      tau( 120) = (   0.0403728   0.3936694   1.6855939  )
       121        O      tau( 121) = (   0.1364693   0.8668413   1.5531897  )
       122        O      tau( 122) = (   0.3862188   0.6762237   1.5077855  )
       123        O      tau( 123) = (   0.3702313   0.1459453   1.5113118  )
       124        O      tau( 124) = (   0.1164972   0.3354481   1.5416341  )
       125        O      tau( 125) = (   0.1561077   0.8312184   1.8121815  )
       126        O      tau( 126) = (   0.4024345   0.6977036   1.2456547  )
       127        O      tau( 127) = (   0.3529885   0.1608260   1.2478482  )
       128        O      tau( 128) = (   0.0988259   0.2967762   1.8028337  )
       129        O      tau( 129) = (   0.0955223   0.5521437   1.6882589  )
       130        O      tau( 130) = (   0.3501042   0.9948817   1.3794940  )
       131        O      tau( 131) = (   0.3769862   0.3955830   1.6820705  )
       132        O      tau( 132) = (   0.1282711   0.0787148   1.3850164  )
       133        O      tau( 133) = (   0.1228222   0.6171400   1.3807433  )
       134        O      tau( 134) = (   0.4031340   0.4526637   1.3730383  )
       135        O      tau( 135) = (   0.1564153   0.0102487   1.6911737  )
       136        O      tau( 136) = (   0.3803451   0.9249762   1.6777280  )
       137        P      tau( 137) = (   0.7174345   0.9334429   1.6935398  )
       138        P      tau( 138) = (   0.9584537   0.6093492   1.3691178  )
       139        P      tau( 139) = (   0.7939811   0.0700328   1.3725244  )
       140        P      tau( 140) = (   0.5416921   0.3997600   1.6930504  )
       141        O      tau( 141) = (   0.6378837   0.8729788   1.5477586  )
       142        O      tau( 142) = (   0.8828523   0.6807110   1.5061576  )
       143        O      tau( 143) = (   0.8725292   0.1417236   1.5079952  )
       144        O      tau( 144) = (   0.6175250   0.3342570   1.5484665  )
       145        O      tau( 145) = (   0.6556870   0.8369021   1.8084207  )
       146        O      tau( 146) = (   0.8987137   0.6988347   1.2434250  )
       147        O      tau( 147) = (   0.8547435   0.1573124   1.2458538  )
       148        O      tau( 148) = (   0.6058869   0.3057682   1.8100154  )
       149        O      tau( 149) = (   0.5996895   0.5564472   1.6887454  )
       150        O      tau( 150) = (   0.8537678   0.9909218   1.3764211  )
       151        O      tau( 151) = (   0.8747176   0.3908074   1.6749590  )
       152        O      tau( 152) = (   0.6300578   0.0775778   1.3854873  )
       153        O      tau( 153) = (   0.6270029   0.6154737   1.3814513  )
       154        O      tau( 154) = (   0.8992703   0.4545543   1.3717766  )
       155        O      tau( 155) = (   0.6630869   0.0162628   1.6912339  )
       156        O      tau( 156) = (   0.8822397   0.9273982   1.6791779  )
       157        O      tau( 157) = (   0.3783263   0.1173447   1.8413832  )
       158        H      tau( 158) = (   0.4636452   0.1772953   1.8643216  )

     -------------------------------------------------
     Parameters for Dispersion (Grimme-D2) Correction:
     -------------------------------------------------
       atom      VdW radius       C_6     

        Ni         2.952        374.666
        Mn         2.952        374.666
        P          3.222        271.980
        O          2.536         24.284
        H          1.892          4.857

     number of k points=     1  Gaussian smearing, width (Ry)=  0.0100
                       cart. coord. in units 2pi/alat
        k(    1) = (   0.0000000   0.0000000   0.0000000), wk =   1.0000000

     Dense  grid:  1918138 G-vectors     FFT dimensions: ( 125, 135, 432)

     Smooth grid:   485265 G-vectors     FFT dimensions: (  80,  90, 288)

     Estimated max dynamical RAM per process >     320.12 MB

     Estimated total dynamical RAM >      20.01 GB
     Generating pointlists ...
     new r_m :   0.0797 (alat units)  1.4115 (a.u.) for type    1
     new r_m :   0.0869 (alat units)  1.5388 (a.u.) for type    2
     new r_m :   0.0650 (alat units)  1.1499 (a.u.) for type    3
     new r_m :   0.0440 (alat units)  0.7796 (a.u.) for type    4
     new r_m :   0.0440 (alat units)  0.7796 (a.u.) for type    5

     Initial potential from superposition of free atoms

     starting charge    1077.8900, renormalised to    1078.0000

     negative rho (up, down):  1.237E-03 4.538E-04
 
     Adding external electric field

     Computed dipole along edir(3) : 
        Dipole                1.6236 Ry au,          4.1268 Debye
        Dipole field          0.0010 Ry au, 
 
        Potential amp.       -0.1090 Ry
        Total length         54.2615 bohr
 
 
     Adding external electric field

     Computed dipole along edir(3) : 
        Dipole                1.6236 Ry au,          4.1268 Debye
        Dipole field          0.0010 Ry au, 
 
        Potential amp.       -0.1090 Ry
        Total length         54.2615 bohr
 
     Starting wfcs are  812 randomized atomic wfcs

     total cpu time spent up to now is       10.1 secs

     Self-consistent Calculation

     iteration #  1     ecut=    50.00 Ry     beta= 0.10
     Davidson diagonalization with overlap
     ethr =  1.00E-02,  avg # of iterations =  6.0

     negative rho (up, down):  3.555E-01 6.088E-06
 
     Adding external electric field

     Computed dipole along edir(3) : 
        Dipole               -2.9718 Ry au,         -7.5536 Debye
        Dipole field         -0.0018 Ry au, 
 
        Potential amp.        0.1994 Ry
        Total length         54.2615 bohr
 
 
     Adding external electric field

     Computed dipole along edir(3) : 
        Dipole               -2.9718 Ry au,         -7.5536 Debye
        Dipole field         -0.0018 Ry au, 
 
        Potential amp.        0.1994 Ry
        Total length         54.2615 bohr
 

     total cpu time spent up to now is       36.2 secs

     total energy              =   -7182.07509858 Ry
     estimated scf accuracy    <     756.04839288 Ry

     total magnetization       =   216.00 Bohr mag/cell
     absolute magnetization    =   296.78 Bohr mag/cell

     iteration #  2     ecut=    50.00 Ry     beta= 0.10
     Davidson diagonalization with overlap
     ethr =  1.00E-02,  avg # of iterations =  2.0

     negative rho (up, down):  3.201E-01 7.615E-06
 
     Adding external electric field

     Computed dipole along edir(3) : 
        Dipole               -2.3505 Ry au,         -5.9745 Debye
        Dipole field         -0.0015 Ry au, 
 
        Potential amp.        0.1578 Ry
        Total length         54.2615 bohr
 
 
     Adding external electric field

     Computed dipole along edir(3) : 
        Dipole               -2.3505 Ry au,         -5.9745 Debye
        Dipole field         -0.0015 Ry au, 
 
        Potential amp.        0.1578 Ry
        Total length         54.2615 bohr
 

     total cpu time spent up to now is       51.9 secs

     total energy              =   -7266.75136652 Ry
     estimated scf accuracy    <     133.81865139 Ry

     total magnetization       =   141.41 Bohr mag/cell
     absolute magnetization    =   194.94 Bohr mag/cell

     iteration #  3     ecut=    50.00 Ry     beta= 0.10
     Davidson diagonalization with overlap
     ethr =  1.00E-02,  avg # of iterations =  1.5

     negative rho (up, down):  2.715E-01 7.868E-06
 
     Adding external electric field

     Computed dipole along edir(3) : 
        Dipole               -1.8465 Ry au,         -4.6934 Debye
        Dipole field         -0.0011 Ry au, 
 
        Potential amp.        0.1239 Ry
        Total length         54.2615 bohr
 
 
     Adding external electric field

     Computed dipole along edir(3) : 
        Dipole               -1.8465 Ry au,         -4.6934 Debye
        Dipole field         -0.0011 Ry au, 
 
        Potential amp.        0.1239 Ry
        Total length         54.2615 bohr
 

     total cpu time spent up to now is       64.8 secs

     total energy              =   -7302.45815522 Ry
     estimated scf accuracy    <      96.48344924 Ry

     total magnetization       =   119.98 Bohr mag/cell
     absolute magnetization    =   174.47 Bohr mag/cell

     iteration #  4     ecut=    50.00 Ry     beta= 0.10
     Davidson diagonalization with overlap
     ethr =  8.95E-03,  avg # of iterations =  1.5

     negative rho (up, down):  2.013E-01 6.088E-07
 
     Adding external electric field

     Computed dipole along edir(3) : 
        Dipole               -1.9101 Ry au,         -4.8550 Debye
        Dipole field         -0.0012 Ry au, 
 
        Potential amp.        0.1282 Ry
        Total length         54.2615 bohr
 
 
     Adding external electric field

     Computed dipole along edir(3) : 
        Dipole               -1.9101 Ry au,         -4.8550 Debye
        Dipole field         -0.0012 Ry au, 
 
        Potential amp.        0.1282 Ry
        Total length         54.2615 bohr
 

     total cpu time spent up to now is       77.2 secs

     total energy              =   -7333.80610616 Ry
     estimated scf accuracy    <      74.82646333 Ry

     total magnetization       =   101.23 Bohr mag/cell
     absolute magnetization    =   158.29 Bohr mag/cell

     iteration #  5     ecut=    50.00 Ry     beta= 0.10
     Davidson diagonalization with overlap
     ethr =  6.94E-03,  avg # of iterations =  1.5

     negative rho (up, down):  2.895E-03 2.303E-09
 
     Adding external electric field

     Computed dipole along edir(3) : 
        Dipole               -1.2763 Ry au,         -3.2441 Debye
        Dipole field         -0.0008 Ry au, 
 
        Potential amp.        0.0857 Ry
        Total length         54.2615 bohr
 
 
     Adding external electric field

     Computed dipole along edir(3) : 
        Dipole               -1.2763 Ry au,         -3.2441 Debye
        Dipole field         -0.0008 Ry au, 
 
        Potential amp.        0.0857 Ry
        Total length         54.2615 bohr
 

     total cpu time spent up to now is       89.5 secs

     total energy              =   -7389.11333581 Ry
     estimated scf accuracy    <      57.03324394 Ry

     total magnetization       =    88.00 Bohr mag/cell
     absolute magnetization    =   142.47 Bohr mag/cell

     iteration #  6     ecut=    50.00 Ry     beta= 0.10
     Davidson diagonalization with overlap
     ethr =  5.29E-03,  avg # of iterations =  1.5

     negative rho (up, down):  1.444E-06 2.048E-05
 
     Adding external electric field

     Computed dipole along edir(3) : 
        Dipole               -0.9481 Ry au,         -2.4100 Debye
        Dipole field         -0.0006 Ry au, 
 
        Potential amp.        0.0636 Ry
        Total length         54.2615 bohr
 
 
     Adding external electric field

     Computed dipole along edir(3) : 
        Dipole               -0.9481 Ry au,         -2.4100 Debye
        Dipole field         -0.0006 Ry au, 
 
        Potential amp.        0.0636 Ry
        Total length         54.2615 bohr
 

     total cpu time spent up to now is      102.1 secs

     total energy              =   -7396.04821130 Ry
     estimated scf accuracy    <       8.32836496 Ry

     total magnetization       =    79.83 Bohr mag/cell
     absolute magnetization    =   110.30 Bohr mag/cell

     iteration #  7     ecut=    50.00 Ry     beta= 0.10
     Davidson diagonalization with overlap
     ethr =  7.73E-04,  avg # of iterations =  6.5

     negative rho (up, down):  1.636E-06 1.552E-05
 
     Adding external electric field

     Computed dipole along edir(3) : 
        Dipole               -0.9682 Ry au,         -2.4609 Debye
        Dipole field         -0.0006 Ry au, 
 
        Potential amp.        0.0650 Ry
        Total length         54.2615 bohr
 
 
     Adding external electric field

     Computed dipole along edir(3) : 
        Dipole               -0.9682 Ry au,         -2.4609 Debye
        Dipole field         -0.0006 Ry au, 
 
        Potential amp.        0.0650 Ry
        Total length         54.2615 bohr
 

     total cpu time spent up to now is      123.0 secs

     total energy              =   -7397.70313845 Ry
     estimated scf accuracy    <       9.90074626 Ry

     total magnetization       =    71.73 Bohr mag/cell
     absolute magnetization    =    88.33 Bohr mag/cell

     iteration #  8     ecut=    50.00 Ry     beta= 0.10
     Davidson diagonalization with overlap
     ethr =  7.73E-04,  avg # of iterations =  1.0

     negative rho (up, down):  1.438E-06 1.412E-05
 
     Adding external electric field

     Computed dipole along edir(3) : 
        Dipole               -0.9072 Ry au,         -2.3059 Debye
        Dipole field         -0.0006 Ry au, 
 
        Potential amp.        0.0609 Ry
        Total length         54.2615 bohr
 
 
     Adding external electric field

     Computed dipole along edir(3) : 
        Dipole               -0.9072 Ry au,         -2.3059 Debye
        Dipole field         -0.0006 Ry au, 
 
        Potential amp.        0.0609 Ry
        Total length         54.2615 bohr
 

     total cpu time spent up to now is      134.0 secs

     total energy              =   -7397.64473995 Ry
     estimated scf accuracy    <      13.05215939 Ry

     total magnetization       =    70.42 Bohr mag/cell
     absolute magnetization    =    87.08 Bohr mag/cell

     iteration #  9     ecut=    50.00 Ry     beta= 0.10
     Davidson diagonalization with overlap
     ethr =  7.73E-04,  avg # of iterations =  1.0

     negative rho (up, down):  1.094E-05 4.036E-05
 
     Adding external electric field

     Computed dipole along edir(3) : 
        Dipole               -0.6395 Ry au,         -1.6255 Debye
        Dipole field         -0.0004 Ry au, 
 
        Potential amp.        0.0429 Ry
        Total length         54.2615 bohr
 
 
     Adding external electric field

     Computed dipole along edir(3) : 
        Dipole               -0.6395 Ry au,         -1.6255 Debye
        Dipole field         -0.0004 Ry au, 
 
        Potential amp.        0.0429 Ry
        Total length         54.2615 bohr
 

     total cpu time spent up to now is      145.9 secs

     total energy              =   -7397.56274254 Ry
     estimated scf accuracy    <       9.57362938 Ry

     total magnetization       =    71.75 Bohr mag/cell
     absolute magnetization    =    87.57 Bohr mag/cell

     iteration # 10     ecut=    50.00 Ry     beta= 0.10
     Davidson diagonalization with overlap
     ethr =  7.73E-04,  avg # of iterations =  1.5

     negative rho (up, down):  3.011E-06 1.661E-05
 
     Adding external electric field

     Computed dipole along edir(3) : 
        Dipole               -0.7757 Ry au,         -1.9717 Debye
        Dipole field         -0.0005 Ry au, 
 
        Potential amp.        0.0521 Ry
        Total length         54.2615 bohr
 
 
     Adding external electric field

     Computed dipole along edir(3) : 
        Dipole               -0.7757 Ry au,         -1.9717 Debye
        Dipole field         -0.0005 Ry au, 
 
        Potential amp.        0.0521 Ry
        Total length         54.2615 bohr
 

     total cpu time spent up to now is      157.2 secs

     total energy              =   -7397.67919974 Ry
     estimated scf accuracy    <       8.59260377 Ry

     total magnetization       =    75.96 Bohr mag/cell
     absolute magnetization    =    88.81 Bohr mag/cell

     iteration # 11     ecut=    50.00 Ry     beta= 0.10
     Davidson diagonalization with overlap
     ethr =  7.73E-04,  avg # of iterations =  1.0

     negative rho (up, down):  4.233E-06 2.179E-05
 
     Adding external electric field

     Computed dipole along edir(3) : 
        Dipole               -0.7619 Ry au,         -1.9365 Debye
        Dipole field         -0.0005 Ry au, 
 
        Potential amp.        0.0511 Ry
        Total length         54.2615 bohr
 
 
     Adding external electric field

     Computed dipole along edir(3) : 
        Dipole               -0.7619 Ry au,         -1.9365 Debye
        Dipole field         -0.0005 Ry au, 
 
        Potential amp.        0.0511 Ry
        Total length         54.2615 bohr
 

     total cpu time spent up to now is      167.3 secs

     total energy              =   -7397.70878860 Ry
     estimated scf accuracy    <       5.08796295 Ry

     total magnetization       =    76.36 Bohr mag/cell
     absolute magnetization    =    88.48 Bohr mag/cell

     iteration # 12     ecut=    50.00 Ry     beta= 0.10
     Davidson diagonalization with overlap
     ethr =  4.72E-04,  avg # of iterations =  2.0

     negative rho (up, down):  6.032E-06 4.127E-05
 
     Adding external electric field

     Computed dipole along edir(3) : 
        Dipole               -0.7296 Ry au,         -1.8545 Debye
        Dipole field         -0.0005 Ry au, 
 
        Potential amp.        0.0490 Ry
        Total length         54.2615 bohr
 
 
     Adding external electric field

     Computed dipole along edir(3) : 
        Dipole               -0.7296 Ry au,         -1.8545 Debye
        Dipole field         -0.0005 Ry au, 
 
        Potential amp.        0.0490 Ry
        Total length         54.2615 bohr
 

     total cpu time spent up to now is      179.6 secs

     total energy              =   -7397.74907257 Ry
     estimated scf accuracy    <       3.93129495 Ry

     total magnetization       =    78.01 Bohr mag/cell
     absolute magnetization    =    87.91 Bohr mag/cell

     iteration # 13     ecut=    50.00 Ry     beta= 0.10
     Davidson diagonalization with overlap
     ethr =  3.65E-04,  avg # of iterations =  1.5

     negative rho (up, down):  4.444E-06 4.465E-05
 
     Adding external electric field

     Computed dipole along edir(3) : 
        Dipole               -0.7879 Ry au,         -2.0027 Debye
        Dipole field         -0.0005 Ry au, 
 
        Potential amp.        0.0529 Ry
        Total length         54.2615 bohr
 
 
     Adding external electric field

     Computed dipole along edir(3) : 
        Dipole               -0.7879 Ry au,         -2.0027 Debye
        Dipole field         -0.0005 Ry au, 
 
        Potential amp.        0.0529 Ry
        Total length         54.2615 bohr
 

     total cpu time spent up to now is      190.9 secs

     total energy              =   -7397.78319484 Ry
     estimated scf accuracy    <       1.87200942 Ry

     total magnetization       =    79.32 Bohr mag/cell
     absolute magnetization    =    88.01 Bohr mag/cell

     iteration # 14     ecut=    50.00 Ry     beta= 0.10
     Davidson diagonalization with overlap
     ethr =  1.74E-04,  avg # of iterations =  2.0

     negative rho (up, down):  3.786E-06 3.954E-05
 
     Adding external electric field

     Computed dipole along edir(3) : 
        Dipole               -0.8940 Ry au,         -2.2724 Debye
        Dipole field         -0.0006 Ry au, 
 
        Potential amp.        0.0600 Ry
        Total length         54.2615 bohr
 
 
     Adding external electric field

     Computed dipole along edir(3) : 
        Dipole               -0.8940 Ry au,         -2.2724 Debye
        Dipole field         -0.0006 Ry au, 
 
        Potential amp.        0.0600 Ry
        Total length         54.2615 bohr
 

     total cpu time spent up to now is      203.5 secs

     total energy              =   -7397.83644701 Ry
     estimated scf accuracy    <       0.89280404 Ry

     total magnetization       =    81.08 Bohr mag/cell
     absolute magnetization    =    88.96 Bohr mag/cell

     iteration # 15     ecut=    50.00 Ry     beta= 0.10
     Davidson diagonalization with overlap
     ethr =  8.28E-05,  avg # of iterations = 22.0

     negative rho (up, down):  1.006E-05 1.011E-04
 
     Adding external electric field

     Computed dipole along edir(3) : 
        Dipole               -0.9983 Ry au,         -2.5374 Debye
        Dipole field         -0.0006 Ry au, 
 
        Potential amp.        0.0670 Ry
        Total length         54.2615 bohr
 
 
     Adding external electric field

     Computed dipole along edir(3) : 
        Dipole               -0.9983 Ry au,         -2.5374 Debye
        Dipole field         -0.0006 Ry au, 
 
        Potential amp.        0.0670 Ry
        Total length         54.2615 bohr
 

     total cpu time spent up to now is      238.3 secs

     total energy              =   -7397.88846499 Ry
     estimated scf accuracy    <       0.58293769 Ry

     total magnetization       =    80.45 Bohr mag/cell
     absolute magnetization    =    87.39 Bohr mag/cell

     iteration # 16     ecut=    50.00 Ry     beta= 0.10
     Davidson diagonalization with overlap
     ethr =  5.41E-05,  avg # of iterations =  1.0

     negative rho (up, down):  2.874E-05 1.815E-04
 
     Adding external electric field

     Computed dipole along edir(3) : 
        Dipole               -1.0562 Ry au,         -2.6845 Debye
        Dipole field         -0.0007 Ry au, 
 
        Potential amp.        0.0709 Ry
        Total length         54.2615 bohr
 
 
     Adding external electric field

     Computed dipole along edir(3) : 
        Dipole               -1.0562 Ry au,         -2.6845 Debye
        Dipole field         -0.0007 Ry au, 
 
        Potential amp.        0.0709 Ry
        Total length         54.2615 bohr
 

     total cpu time spent up to now is      248.7 secs

     total energy              =   -7397.94937959 Ry
     estimated scf accuracy    <       0.51571911 Ry

     total magnetization       =    79.48 Bohr mag/cell
     absolute magnetization    =    85.78 Bohr mag/cell

     iteration # 17     ecut=    50.00 Ry     beta= 0.10
     Davidson diagonalization with overlap
     ethr =  4.78E-05,  avg # of iterations =  1.0

     negative rho (up, down):  1.330E-04 1.691E-04
 
     Adding external electric field

     Computed dipole along edir(3) : 
        Dipole               -1.0995 Ry au,         -2.7947 Debye
        Dipole field         -0.0007 Ry au, 
 
        Potential amp.        0.0738 Ry
        Total length         54.2615 bohr
 
 
     Adding external electric field

     Computed dipole along edir(3) : 
        Dipole               -1.0995 Ry au,         -2.7947 Debye
        Dipole field         -0.0007 Ry au, 
 
        Potential amp.        0.0738 Ry
        Total length         54.2615 bohr
 

     total cpu time spent up to now is      259.8 secs

     total energy              =   -7398.00642532 Ry
     estimated scf accuracy    <       0.59053010 Ry

     total magnetization       =    80.01 Bohr mag/cell
     absolute magnetization    =    85.34 Bohr mag/cell

     iteration # 18     ecut=    50.00 Ry     beta= 0.10
     Davidson diagonalization with overlap
     ethr =  4.78E-05,  avg # of iterations =  1.0

     negative rho (up, down):  3.980E-05 3.877E-06
 
     Adding external electric field

     Computed dipole along edir(3) : 
        Dipole               -0.8760 Ry au,         -2.2267 Debye
        Dipole field         -0.0005 Ry au, 
 
        Potential amp.        0.0588 Ry
        Total length         54.2615 bohr
 
 
     Adding external electric field

     Computed dipole along edir(3) : 
        Dipole               -0.8760 Ry au,         -2.2267 Debye
        Dipole field         -0.0005 Ry au, 
 
        Potential amp.        0.0588 Ry
        Total length         54.2615 bohr
 

     total cpu time spent up to now is      270.8 secs

     total energy              =   -7397.98770568 Ry
     estimated scf accuracy    <       0.74079387 Ry

     total magnetization       =    79.99 Bohr mag/cell
     absolute magnetization    =    84.09 Bohr mag/cell

     iteration # 19     ecut=    50.00 Ry     beta= 0.10
     Davidson diagonalization with overlap
     ethr =  4.78E-05,  avg # of iterations =  2.0

     negative rho (up, down):  2.481E-05 3.772E-05
 
     Adding external electric field

     Computed dipole along edir(3) : 
        Dipole               -0.8462 Ry au,         -2.1507 Debye
        Dipole field         -0.0005 Ry au, 
 
        Potential amp.        0.0568 Ry
        Total length         54.2615 bohr
 
 
     Adding external electric field

     Computed dipole along edir(3) : 
        Dipole               -0.8462 Ry au,         -2.1507 Debye
        Dipole field         -0.0005 Ry au, 
 
        Potential amp.        0.0568 Ry
        Total length         54.2615 bohr
 

     total cpu time spent up to now is      284.0 secs

     total energy              =   -7398.04041696 Ry
     estimated scf accuracy    <       0.54229581 Ry

     total magnetization       =    80.51 Bohr mag/cell
     absolute magnetization    =    83.36 Bohr mag/cell

     iteration # 20     ecut=    50.00 Ry     beta= 0.10
     Davidson diagonalization with overlap
     ethr =  4.78E-05,  avg # of iterations =  1.0

     negative rho (up, down):  1.050E-04 1.577E-04
 
     Adding external electric field

     Computed dipole along edir(3) : 
        Dipole               -0.8693 Ry au,         -2.2094 Debye
        Dipole field         -0.0005 Ry au, 
 
        Potential amp.        0.0583 Ry
        Total length         54.2615 bohr
 
 
     Adding external electric field

     Computed dipole along edir(3) : 
        Dipole               -0.8693 Ry au,         -2.2094 Debye
        Dipole field         -0.0005 Ry au, 
 
        Potential amp.        0.0583 Ry
        Total length         54.2615 bohr
 

     total cpu time spent up to now is      295.5 secs

     total energy              =   -7398.03184521 Ry
     estimated scf accuracy    <       0.28268931 Ry

     total magnetization       =    81.01 Bohr mag/cell
     absolute magnetization    =    83.57 Bohr mag/cell

     iteration # 21     ecut=    50.00 Ry     beta= 0.10
     Davidson diagonalization with overlap
     ethr =  2.62E-05,  avg # of iterations =  1.0

     negative rho (up, down):  9.061E-05 1.873E-04
 
     Adding external electric field

     Computed dipole along edir(3) : 
        Dipole               -0.8636 Ry au,         -2.1952 Debye
        Dipole field         -0.0005 Ry au, 
 
        Potential amp.        0.0580 Ry
        Total length         54.2615 bohr
 
 
     Adding external electric field

     Computed dipole along edir(3) : 
        Dipole               -0.8636 Ry au,         -2.1952 Debye
        Dipole field         -0.0005 Ry au, 
 
        Potential amp.        0.0580 Ry
        Total length         54.2615 bohr
 

     total cpu time spent up to now is      309.5 secs

     total energy              =   -7398.04000489 Ry
     estimated scf accuracy    <       0.07523188 Ry

     total magnetization       =    80.79 Bohr mag/cell
     absolute magnetization    =    82.57 Bohr mag/cell

     iteration # 22     ecut=    50.00 Ry     beta= 0.10
     Davidson diagonalization with overlap
     ethr =  6.98E-06,  avg # of iterations =  2.0

     negative rho (up, down):  9.238E-05 2.017E-04
 
     Adding external electric field

     Computed dipole along edir(3) : 
        Dipole               -0.8306 Ry au,         -2.1111 Debye
        Dipole field         -0.0005 Ry au, 
 
        Potential amp.        0.0557 Ry
        Total length         54.2615 bohr
 
 
     Adding external electric field

     Computed dipole along edir(3) : 
        Dipole               -0.8306 Ry au,         -2.1111 Debye
        Dipole field         -0.0005 Ry au, 
 
        Potential amp.        0.0557 Ry
        Total length         54.2615 bohr
 

     total cpu time spent up to now is      321.8 secs

     total energy              =   -7398.03883083 Ry
     estimated scf accuracy    <       0.07112199 Ry

     total magnetization       =    80.81 Bohr mag/cell
     absolute magnetization    =    82.54 Bohr mag/cell

     iteration # 23     ecut=    50.00 Ry     beta= 0.10
     Davidson diagonalization with overlap
     ethr =  6.60E-06,  avg # of iterations =  2.0

     negative rho (up, down):  9.442E-05 1.323E-04
 
     Adding external electric field

     Computed dipole along edir(3) : 
        Dipole               -0.8224 Ry au,         -2.0904 Debye
        Dipole field         -0.0005 Ry au, 
 
        Potential amp.        0.0552 Ry
        Total length         54.2615 bohr
 
 
     Adding external electric field

     Computed dipole along edir(3) : 
        Dipole               -0.8224 Ry au,         -2.0904 Debye
        Dipole field         -0.0005 Ry au, 
 
        Potential amp.        0.0552 Ry
        Total length         54.2615 bohr
 

     total cpu time spent up to now is      335.3 secs

     total energy              =   -7398.03610035 Ry
     estimated scf accuracy    <       0.07743358 Ry

     total magnetization       =    81.07 Bohr mag/cell
     absolute magnetization    =    82.59 Bohr mag/cell

     iteration # 24     ecut=    50.00 Ry     beta= 0.10
     Davidson diagonalization with overlap
     ethr =  6.60E-06,  avg # of iterations =  2.0

     negative rho (up, down):  7.042E-06 8.005E-06
 
     Adding external electric field

     Computed dipole along edir(3) : 
        Dipole               -0.7393 Ry au,         -1.8791 Debye
        Dipole field         -0.0005 Ry au, 
 
        Potential amp.        0.0496 Ry
        Total length         54.2615 bohr
 
 
     Adding external electric field

     Computed dipole along edir(3) : 
        Dipole               -0.7393 Ry au,         -1.8791 Debye
        Dipole field         -0.0005 Ry au, 
 
        Potential amp.        0.0496 Ry
        Total length         54.2615 bohr
 

     total cpu time spent up to now is      348.8 secs

     total energy              =   -7398.03522568 Ry
     estimated scf accuracy    <       0.08099320 Ry

     total magnetization       =    80.10 Bohr mag/cell
     absolute magnetization    =    81.61 Bohr mag/cell

     iteration # 25     ecut=    50.00 Ry     beta= 0.10
     Davidson diagonalization with overlap
     c_bands:  5 eigenvalues not converged
     ethr =  6.60E-06,  avg # of iterations = 11.0

     negative rho (up, down):  7.278E-06 1.431E-05
 
     Adding external electric field

     Computed dipole along edir(3) : 
        Dipole               -0.7420 Ry au,         -1.8859 Debye
        Dipole field         -0.0005 Ry au, 
 
        Potential amp.        0.0498 Ry
        Total length         54.2615 bohr
 
 
     Adding external electric field

     Computed dipole along edir(3) : 
        Dipole               -0.7420 Ry au,         -1.8859 Debye
        Dipole field         -0.0005 Ry au, 
 
        Potential amp.        0.0498 Ry
        Total length         54.2615 bohr
 

     total cpu time spent up to now is      367.5 secs

     total energy              =   -7398.03940715 Ry
     estimated scf accuracy    <       0.12992202 Ry

     total magnetization       =    80.32 Bohr mag/cell
     absolute magnetization    =    81.76 Bohr mag/cell

     iteration # 26     ecut=    50.00 Ry     beta= 0.10
     Davidson diagonalization with overlap
     ethr =  6.60E-06,  avg # of iterations =  2.0

     negative rho (up, down):  1.601E-05 3.490E-06
 
     Adding external electric field

     Computed dipole along edir(3) : 
        Dipole               -0.7342 Ry au,         -1.8662 Debye
        Dipole field         -0.0005 Ry au, 
 
        Potential amp.        0.0493 Ry
        Total length         54.2615 bohr
 
 
     Adding external electric field

     Computed dipole along edir(3) : 
        Dipole               -0.7342 Ry au,         -1.8662 Debye
        Dipole field         -0.0005 Ry au, 
 
        Potential amp.        0.0493 Ry
        Total length         54.2615 bohr
 

     total cpu time spent up to now is      380.0 secs

     total energy              =   -7398.04038823 Ry
     estimated scf accuracy    <       0.10632044 Ry

     total magnetization       =    80.39 Bohr mag/cell
     absolute magnetization    =    81.81 Bohr mag/cell

     iteration # 27     ecut=    50.00 Ry     beta= 0.10
     Davidson diagonalization with overlap
     ethr =  6.60E-06,  avg # of iterations =  1.5

     negative rho (up, down):  5.339E-05 7.555E-06
 
     Adding external electric field

     Computed dipole along edir(3) : 
        Dipole               -0.7387 Ry au,         -1.8775 Debye
        Dipole field         -0.0005 Ry au, 
 
        Potential amp.        0.0496 Ry
        Total length         54.2615 bohr
 
 
     Adding external electric field

     Computed dipole along edir(3) : 
        Dipole               -0.7387 Ry au,         -1.8775 Debye
        Dipole field         -0.0005 Ry au, 
 
        Potential amp.        0.0496 Ry
        Total length         54.2615 bohr
 

     total cpu time spent up to now is      392.2 secs

     total energy              =   -7398.03804380 Ry
     estimated scf accuracy    <       0.17034635 Ry

     total magnetization       =    80.48 Bohr mag/cell
     absolute magnetization    =    81.88 Bohr mag/cell

     iteration # 28     ecut=    50.00 Ry     beta= 0.10
     Davidson diagonalization with overlap
     ethr =  6.60E-06,  avg # of iterations =  2.0

     negative rho (up, down):  8.057E-05 3.944E-06
 
     Adding external electric field

     Computed dipole along edir(3) : 
        Dipole               -0.7185 Ry au,         -1.8263 Debye
        Dipole field         -0.0004 Ry au, 
 
        Potential amp.        0.0482 Ry
        Total length         54.2615 bohr
 
 
     Adding external electric field

     Computed dipole along edir(3) : 
        Dipole               -0.7185 Ry au,         -1.8263 Debye
        Dipole field         -0.0004 Ry au, 
 
        Potential amp.        0.0482 Ry
        Total length         54.2615 bohr
 

     total cpu time spent up to now is      404.7 secs

     total energy              =   -7398.03743541 Ry
     estimated scf accuracy    <       0.06517120 Ry

     total magnetization       =    80.83 Bohr mag/cell
     absolute magnetization    =    82.22 Bohr mag/cell

     iteration # 29     ecut=    50.00 Ry     beta= 0.10
     Davidson diagonalization with overlap
     ethr =  6.05E-06,  avg # of iterations =  1.5

     negative rho (up, down):  6.528E-05 1.075E-05
 
     Adding external electric field

     Computed dipole along edir(3) : 
        Dipole               -0.7176 Ry au,         -1.8240 Debye
        Dipole field         -0.0004 Ry au, 
 
        Potential amp.        0.0482 Ry
        Total length         54.2615 bohr
 
 
     Adding external electric field

     Computed dipole along edir(3) : 
        Dipole               -0.7176 Ry au,         -1.8240 Debye
        Dipole field         -0.0004 Ry au, 
 
        Potential amp.        0.0482 Ry
        Total length         54.2615 bohr
 

     total cpu time spent up to now is      418.4 secs

     total energy              =   -7398.03724405 Ry
     estimated scf accuracy    <       0.05250444 Ry

     total magnetization       =    80.81 Bohr mag/cell
     absolute magnetization    =    82.19 Bohr mag/cell

     iteration # 30     ecut=    50.00 Ry     beta= 0.10
     Davidson diagonalization with overlap
     ethr =  4.87E-06,  avg # of iterations =  2.0

     negative rho (up, down):  7.071E-05 1.182E-05
 
     Adding external electric field

     Computed dipole along edir(3) : 
        Dipole               -0.7228 Ry au,         -1.8371 Debye
        Dipole field         -0.0004 Ry au, 
 
        Potential amp.        0.0485 Ry
        Total length         54.2615 bohr
 
 
     Adding external electric field

     Computed dipole along edir(3) : 
        Dipole               -0.7228 Ry au,         -1.8371 Debye
        Dipole field         -0.0004 Ry au, 
 
        Potential amp.        0.0485 Ry
        Total length         54.2615 bohr
 

     total cpu time spent up to now is      431.2 secs

     total energy              =   -7398.03751511 Ry
     estimated scf accuracy    <       0.04270640 Ry

     total magnetization       =    80.52 Bohr mag/cell
     absolute magnetization    =    81.85 Bohr mag/cell

     iteration # 31     ecut=    50.00 Ry     beta= 0.10
     Davidson diagonalization with overlap
     ethr =  3.96E-06,  avg # of iterations =  1.5

     negative rho (up, down):  7.844E-05 1.830E-05
 
     Adding external electric field

     Computed dipole along edir(3) : 
        Dipole               -0.7335 Ry au,         -1.8645 Debye
        Dipole field         -0.0005 Ry au, 
 
        Potential amp.        0.0492 Ry
        Total length         54.2615 bohr
 
 
     Adding external electric field

     Computed dipole along edir(3) : 
        Dipole               -0.7335 Ry au,         -1.8645 Debye
        Dipole field         -0.0005 Ry au, 
 
        Potential amp.        0.0492 Ry
        Total length         54.2615 bohr
 

     total cpu time spent up to now is      443.1 secs

     total energy              =   -7398.03786505 Ry
     estimated scf accuracy    <       0.03888752 Ry

     total magnetization       =    80.52 Bohr mag/cell
     absolute magnetization    =    81.85 Bohr mag/cell

     iteration # 32     ecut=    50.00 Ry     beta= 0.10
     Davidson diagonalization with overlap
     c_bands:  2 eigenvalues not converged
     ethr =  3.61E-06,  avg # of iterations = 11.0

     negative rho (up, down):  1.240E-04 5.485E-05
 
     Adding external electric field

     Computed dipole along edir(3) : 
        Dipole               -0.7300 Ry au,         -1.8555 Debye
        Dipole field         -0.0005 Ry au, 
 
        Potential amp.        0.0490 Ry
        Total length         54.2615 bohr
 
 
     Adding external electric field

     Computed dipole along edir(3) : 
        Dipole               -0.7300 Ry au,         -1.8555 Debye
        Dipole field         -0.0005 Ry au, 
 
        Potential amp.        0.0490 Ry
        Total length         54.2615 bohr
 

     total cpu time spent up to now is      460.8 secs

     total energy              =   -7398.03803693 Ry
     estimated scf accuracy    <       0.03228877 Ry

     total magnetization       =    80.42 Bohr mag/cell
     absolute magnetization    =    81.78 Bohr mag/cell

     iteration # 33     ecut=    50.00 Ry     beta= 0.10
     Davidson diagonalization with overlap
     c_bands:  4 eigenvalues not converged
     ethr =  3.00E-06,  avg # of iterations = 11.0

     negative rho (up, down):  1.614E-04 7.130E-05
 
     Adding external electric field

     Computed dipole along edir(3) : 
        Dipole               -0.7006 Ry au,         -1.7806 Debye
        Dipole field         -0.0004 Ry au, 
 
        Potential amp.        0.0470 Ry
        Total length         54.2615 bohr
 
 
     Adding external electric field

     Computed dipole along edir(3) : 
        Dipole               -0.7006 Ry au,         -1.7806 Debye
        Dipole field         -0.0004 Ry au, 
 
        Potential amp.        0.0470 Ry
        Total length         54.2615 bohr
 

     total cpu time spent up to now is      479.5 secs

     total energy              =   -7398.03673641 Ry
     estimated scf accuracy    <       0.02517438 Ry

     total magnetization       =    80.34 Bohr mag/cell
     absolute magnetization    =    81.71 Bohr mag/cell

     iteration # 34     ecut=    50.00 Ry     beta= 0.10
     Davidson diagonalization with overlap
     c_bands:  1 eigenvalues not converged
     ethr =  2.34E-06,  avg # of iterations = 21.0

     negative rho (up, down):  2.081E-04 1.096E-04
 
     Adding external electric field

     Computed dipole along edir(3) : 
        Dipole               -0.6860 Ry au,         -1.7437 Debye
        Dipole field         -0.0004 Ry au, 
 
        Potential amp.        0.0460 Ry
        Total length         54.2615 bohr
 
 
     Adding external electric field

     Computed dipole along edir(3) : 
        Dipole               -0.6860 Ry au,         -1.7437 Debye
        Dipole field         -0.0004 Ry au, 
 
        Potential amp.        0.0460 Ry
        Total length         54.2615 bohr
 

     total cpu time spent up to now is      508.1 secs

     total energy              =   -7398.03682148 Ry
     estimated scf accuracy    <       0.02357147 Ry

     total magnetization       =    80.56 Bohr mag/cell
     absolute magnetization    =    81.87 Bohr mag/cell

     iteration # 35     ecut=    50.00 Ry     beta= 0.10
     Davidson diagonalization with overlap
     ethr =  2.19E-06,  avg # of iterations =  2.0

     negative rho (up, down):  2.401E-04 1.372E-04
 
     Adding external electric field

     Computed dipole along edir(3) : 
        Dipole               -0.6581 Ry au,         -1.6726 Debye
        Dipole field         -0.0004 Ry au, 
 
        Potential amp.        0.0442 Ry
        Total length         54.2615 bohr
 
 
     Adding external electric field

     Computed dipole along edir(3) : 
        Dipole               -0.6581 Ry au,         -1.6726 Debye
        Dipole field         -0.0004 Ry au, 
 
        Potential amp.        0.0442 Ry
        Total length         54.2615 bohr
 

     total cpu time spent up to now is      520.3 secs

     total energy              =   -7398.03687388 Ry
     estimated scf accuracy    <       0.01918517 Ry

     total magnetization       =    80.53 Bohr mag/cell
     absolute magnetization    =    81.83 Bohr mag/cell

     iteration # 36     ecut=    50.00 Ry     beta= 0.10
     Davidson diagonalization with overlap
     c_bands:  1 eigenvalues not converged
     ethr =  1.78E-06,  avg # of iterations = 10.5

     negative rho (up, down):  4.372E-04 2.608E-04
 
     Adding external electric field

     Computed dipole along edir(3) : 
        Dipole               -0.6148 Ry au,         -1.5625 Debye
        Dipole field         -0.0004 Ry au, 
 
        Potential amp.        0.0413 Ry
        Total length         54.2615 bohr
 
 
     Adding external electric field

     Computed dipole along edir(3) : 
        Dipole               -0.6148 Ry au,         -1.5625 Debye
        Dipole field         -0.0004 Ry au, 
 
        Potential amp.        0.0413 Ry
        Total length         54.2615 bohr
 

     total cpu time spent up to now is      538.0 secs

     total energy              =   -7398.03655405 Ry
     estimated scf accuracy    <       0.01820381 Ry

     total magnetization       =    80.47 Bohr mag/cell
     absolute magnetization    =    81.78 Bohr mag/cell

     iteration # 37     ecut=    50.00 Ry     beta= 0.10
     Davidson diagonalization with overlap
     c_bands:  5 eigenvalues not converged
     ethr =  1.69E-06,  avg # of iterations = 11.0

     negative rho (up, down):  9.607E-04 5.892E-04
 
     Adding external electric field

     Computed dipole along edir(3) : 
        Dipole               -0.5525 Ry au,         -1.4043 Debye
        Dipole field         -0.0003 Ry au, 
 
        Potential amp.        0.0371 Ry
        Total length         54.2615 bohr
 
 
     Adding external electric field

     Computed dipole along edir(3) : 
        Dipole               -0.5525 Ry au,         -1.4043 Debye
        Dipole field         -0.0003 Ry au, 
 
        Potential amp.        0.0371 Ry
        Total length         54.2615 bohr
 

     total cpu time spent up to now is      557.4 secs

     total energy              =   -7398.03585363 Ry
     estimated scf accuracy    <       0.01645946 Ry

     total magnetization       =    80.50 Bohr mag/cell
     absolute magnetization    =    81.83 Bohr mag/cell

     iteration # 38     ecut=    50.00 Ry     beta= 0.10
     Davidson diagonalization with overlap
     ethr =  1.53E-06,  avg # of iterations =  2.5

     negative rho (up, down):  8.561E-04 5.435E-04
 
     Adding external electric field

     Computed dipole along edir(3) : 
        Dipole               -0.5578 Ry au,         -1.4178 Debye
        Dipole field         -0.0003 Ry au, 
 
        Potential amp.        0.0374 Ry
        Total length         54.2615 bohr
 
 
     Adding external electric field

     Computed dipole along edir(3) : 
        Dipole               -0.5578 Ry au,         -1.4178 Debye
        Dipole field         -0.0003 Ry au, 
 
        Potential amp.        0.0374 Ry
        Total length         54.2615 bohr
 

     total cpu time spent up to now is      570.5 secs

     total energy              =   -7398.03630124 Ry
     estimated scf accuracy    <       0.01602656 Ry

     total magnetization       =    80.47 Bohr mag/cell
     absolute magnetization    =    81.81 Bohr mag/cell

     iteration # 39     ecut=    50.00 Ry     beta= 0.10
     Davidson diagonalization with overlap
     ethr =  1.49E-06,  avg # of iterations =  1.0

     negative rho (up, down):  8.261E-04 5.060E-04
 
     Adding external electric field

     Computed dipole along edir(3) : 
        Dipole               -0.5589 Ry au,         -1.4207 Debye
        Dipole field         -0.0003 Ry au, 
 
        Potential amp.        0.0375 Ry
        Total length         54.2615 bohr
 
 
     Adding external electric field

     Computed dipole along edir(3) : 
        Dipole               -0.5589 Ry au,         -1.4207 Debye
        Dipole field         -0.0003 Ry au, 
 
        Potential amp.        0.0375 Ry
        Total length         54.2615 bohr
 

     total cpu time spent up to now is      582.0 secs

     total energy              =   -7398.03625707 Ry
     estimated scf accuracy    <       0.01635263 Ry

     total magnetization       =    80.48 Bohr mag/cell
     absolute magnetization    =    81.84 Bohr mag/cell

     iteration # 40     ecut=    50.00 Ry     beta= 0.10
     Davidson diagonalization with overlap
     ethr =  1.49E-06,  avg # of iterations =  1.0

     negative rho (up, down):  6.586E-04 4.444E-04
 
     Adding external electric field

     Computed dipole along edir(3) : 
        Dipole               -0.5585 Ry au,         -1.4195 Debye
        Dipole field         -0.0003 Ry au, 
 
        Potential amp.        0.0375 Ry
        Total length         54.2615 bohr
 
 
     Adding external electric field

     Computed dipole along edir(3) : 
        Dipole               -0.5585 Ry au,         -1.4195 Debye
        Dipole field         -0.0003 Ry au, 
 
        Potential amp.        0.0375 Ry
        Total length         54.2615 bohr
 

     total cpu time spent up to now is      593.0 secs

     total energy              =   -7398.03660554 Ry
     estimated scf accuracy    <       0.01705184 Ry

     total magnetization       =    80.48 Bohr mag/cell
     absolute magnetization    =    81.84 Bohr mag/cell

     iteration # 41     ecut=    50.00 Ry     beta= 0.10
     Davidson diagonalization with overlap
     ethr =  1.49E-06,  avg # of iterations =  2.0

     negative rho (up, down):  6.622E-04 4.571E-04
 
     Adding external electric field

     Computed dipole along edir(3) : 
        Dipole               -0.5579 Ry au,         -1.4180 Debye
        Dipole field         -0.0003 Ry au, 
 
        Potential amp.        0.0374 Ry
        Total length         54.2615 bohr
 
 
     Adding external electric field

     Computed dipole along edir(3) : 
        Dipole               -0.5579 Ry au,         -1.4180 Debye
        Dipole field         -0.0003 Ry au, 
 
        Potential amp.        0.0374 Ry
        Total length         54.2615 bohr
 

     total cpu time spent up to now is      606.2 secs

     total energy              =   -7398.03667375 Ry
     estimated scf accuracy    <       0.01807085 Ry

     total magnetization       =    80.48 Bohr mag/cell
     absolute magnetization    =    81.84 Bohr mag/cell

     iteration # 42     ecut=    50.00 Ry     beta= 0.10
     Davidson diagonalization with overlap
     ethr =  1.49E-06,  avg # of iterations =  1.0

     negative rho (up, down):  8.832E-04 6.600E-04
 
     Adding external electric field

     Computed dipole along edir(3) : 
        Dipole               -0.5453 Ry au,         -1.3861 Debye
        Dipole field         -0.0003 Ry au, 
 
        Potential amp.        0.0366 Ry
        Total length         54.2615 bohr
 
 
     Adding external electric field

     Computed dipole along edir(3) : 
        Dipole               -0.5453 Ry au,         -1.3861 Debye
        Dipole field         -0.0003 Ry au, 
 
        Potential amp.        0.0366 Ry
        Total length         54.2615 bohr
 

     total cpu time spent up to now is      616.9 secs

     total energy              =   -7398.03620883 Ry
     estimated scf accuracy    <       0.01803856 Ry

     total magnetization       =    80.48 Bohr mag/cell
     absolute magnetization    =    81.83 Bohr mag/cell

     iteration # 43     ecut=    50.00 Ry     beta= 0.10
     Davidson diagonalization with overlap
     ethr =  1.49E-06,  avg # of iterations =  1.5

     negative rho (up, down):  6.069E-04 4.105E-04
 
     Adding external electric field

     Computed dipole along edir(3) : 
        Dipole               -0.5595 Ry au,         -1.4222 Debye
        Dipole field         -0.0003 Ry au, 
 
        Potential amp.        0.0376 Ry
        Total length         54.2615 bohr
 
 
     Adding external electric field

     Computed dipole along edir(3) : 
        Dipole               -0.5595 Ry au,         -1.4222 Debye
        Dipole field         -0.0003 Ry au, 
 
        Potential amp.        0.0376 Ry
        Total length         54.2615 bohr
 

     total cpu time spent up to now is      629.4 secs

     total energy              =   -7398.03667231 Ry
     estimated scf accuracy    <       0.01836735 Ry

     total magnetization       =    80.47 Bohr mag/cell
     absolute magnetization    =    81.79 Bohr mag/cell

     iteration # 44     ecut=    50.00 Ry     beta= 0.10
     Davidson diagonalization with overlap
     ethr =  1.49E-06,  avg # of iterations =  1.5

     negative rho (up, down):  6.058E-04 4.547E-04
 
     Adding external electric field

     Computed dipole along edir(3) : 
        Dipole               -0.5556 Ry au,         -1.4123 Debye
        Dipole field         -0.0003 Ry au, 
 
        Potential amp.        0.0373 Ry
        Total length         54.2615 bohr
 
 
     Adding external electric field

     Computed dipole along edir(3) : 
        Dipole               -0.5556 Ry au,         -1.4123 Debye
        Dipole field         -0.0003 Ry au, 
 
        Potential amp.        0.0373 Ry
        Total length         54.2615 bohr
 

     total cpu time spent up to now is      641.6 secs

     total energy              =   -7398.03696883 Ry
     estimated scf accuracy    <       0.01846577 Ry

     total magnetization       =    80.47 Bohr mag/cell
     absolute magnetization    =    81.82 Bohr mag/cell

     iteration # 45     ecut=    50.00 Ry     beta= 0.10
     Davidson diagonalization with overlap
     ethr =  1.49E-06,  avg # of iterations =  1.0

     negative rho (up, down):  5.947E-04 4.371E-04
 
     Adding external electric field

     Computed dipole along edir(3) : 
        Dipole               -0.5583 Ry au,         -1.4190 Debye
        Dipole field         -0.0003 Ry au, 
 
        Potential amp.        0.0375 Ry
        Total length         54.2615 bohr
 
 
     Adding external electric field

     Computed dipole along edir(3) : 
        Dipole               -0.5583 Ry au,         -1.4190 Debye
        Dipole field         -0.0003 Ry au, 
 
        Potential amp.        0.0375 Ry
        Total length         54.2615 bohr
 

     total cpu time spent up to now is      653.5 secs

     total energy              =   -7398.03693890 Ry
     estimated scf accuracy    <       0.01823837 Ry

     total magnetization       =    80.45 Bohr mag/cell
     absolute magnetization    =    81.82 Bohr mag/cell

     iteration # 46     ecut=    50.00 Ry     beta= 0.10
     Davidson diagonalization with overlap
     ethr =  1.49E-06,  avg # of iterations =  1.0

     negative rho (up, down):  8.043E-04 6.372E-04
 
     Adding external electric field

     Computed dipole along edir(3) : 
        Dipole               -0.5216 Ry au,         -1.3257 Debye
        Dipole field         -0.0003 Ry au, 
 
        Potential amp.        0.0350 Ry
        Total length         54.2615 bohr
 
 
     Adding external electric field

     Computed dipole along edir(3) : 
        Dipole               -0.5216 Ry au,         -1.3257 Debye
        Dipole field         -0.0003 Ry au, 
 
        Potential amp.        0.0350 Ry
        Total length         54.2615 bohr
 

     total cpu time spent up to now is      665.3 secs

     total energy              =   -7398.03698675 Ry
     estimated scf accuracy    <       0.01828637 Ry

     total magnetization       =    80.46 Bohr mag/cell
     absolute magnetization    =    81.82 Bohr mag/cell

     iteration # 47     ecut=    50.00 Ry     beta= 0.10
     Davidson diagonalization with overlap
     ethr =  1.49E-06,  avg # of iterations =  1.5

     negative rho (up, down):  1.301E-03 1.025E-03
 
     Adding external electric field

     Computed dipole along edir(3) : 
        Dipole               -0.4710 Ry au,         -1.1972 Debye
        Dipole field         -0.0003 Ry au, 
 
        Potential amp.        0.0316 Ry
        Total length         54.2615 bohr
 
 
     Adding external electric field

     Computed dipole along edir(3) : 
        Dipole               -0.4710 Ry au,         -1.1972 Debye
        Dipole field         -0.0003 Ry au, 
 
        Potential amp.        0.0316 Ry
        Total length         54.2615 bohr
 

     total cpu time spent up to now is      676.9 secs

     total energy              =   -7398.03666564 Ry
     estimated scf accuracy    <       0.01771356 Ry

     total magnetization       =    80.45 Bohr mag/cell
     absolute magnetization    =    81.84 Bohr mag/cell

     iteration # 48     ecut=    50.00 Ry     beta= 0.10
     Davidson diagonalization with overlap
     ethr =  1.49E-06,  avg # of iterations =  1.5

     negative rho (up, down):  2.800E-03 2.185E-03
 
     Adding external electric field

     Computed dipole along edir(3) : 
        Dipole               -0.3983 Ry au,         -1.0123 Debye
        Dipole field         -0.0002 Ry au, 
 
        Potential amp.        0.0267 Ry
        Total length         54.2615 bohr
 
 
     Adding external electric field

     Computed dipole along edir(3) : 
        Dipole               -0.3983 Ry au,         -1.0123 Debye
        Dipole field         -0.0002 Ry au, 
 
        Potential amp.        0.0267 Ry
        Total length         54.2615 bohr
 

     total cpu time spent up to now is      690.2 secs

     total energy              =   -7398.03584860 Ry
     estimated scf accuracy    <       0.01734148 Ry

     total magnetization       =    80.44 Bohr mag/cell
     absolute magnetization    =    81.86 Bohr mag/cell

     iteration # 49     ecut=    50.00 Ry     beta= 0.10
     Davidson diagonalization with overlap
     ethr =  1.49E-06,  avg # of iterations =  2.0

     negative rho (up, down):  3.244E-03 2.594E-03
 
     Adding external electric field

     Computed dipole along edir(3) : 
        Dipole               -0.3771 Ry au,         -0.9585 Debye
        Dipole field         -0.0002 Ry au, 
 
        Potential amp.        0.0253 Ry
        Total length         54.2615 bohr
 
 
     Adding external electric field

     Computed dipole along edir(3) : 
        Dipole               -0.3771 Ry au,         -0.9585 Debye
        Dipole field         -0.0002 Ry au, 
 
        Potential amp.        0.0253 Ry
        Total length         54.2615 bohr
 

     total cpu time spent up to now is      702.9 secs

     total energy              =   -7398.03582640 Ry
     estimated scf accuracy    <       0.01620693 Ry

     total magnetization       =    80.48 Bohr mag/cell
     absolute magnetization    =    81.93 Bohr mag/cell

     iteration # 50     ecut=    50.00 Ry     beta= 0.10
     Davidson diagonalization with overlap
     ethr =  1.49E-06,  avg # of iterations =  2.0

     negative rho (up, down):  5.873E-03 5.758E-03
 
     Adding external electric field

     Computed dipole along edir(3) : 
        Dipole               -0.3056 Ry au,         -0.7768 Debye
        Dipole field         -0.0002 Ry au, 
 
        Potential amp.        0.0205 Ry
        Total length         54.2615 bohr
 
 
     Adding external electric field

     Computed dipole along edir(3) : 
        Dipole               -0.3056 Ry au,         -0.7768 Debye
        Dipole field         -0.0002 Ry au, 
 
        Potential amp.        0.0205 Ry
        Total length         54.2615 bohr
 

     total cpu time spent up to now is      714.6 secs

     total energy              =   -7398.03605739 Ry
     estimated scf accuracy    <       0.01554596 Ry

     total magnetization       =    80.49 Bohr mag/cell
     absolute magnetization    =    81.95 Bohr mag/cell

     iteration # 51     ecut=    50.00 Ry     beta= 0.10
     Davidson diagonalization with overlap
     ethr =  1.44E-06,  avg # of iterations =  3.0

     negative rho (up, down):  8.943E-03 9.016E-03
 
     Adding external electric field

     Computed dipole along edir(3) : 
        Dipole               -0.2330 Ry au,         -0.5921 Debye
        Dipole field         -0.0001 Ry au, 
 
        Potential amp.        0.0156 Ry
        Total length         54.2615 bohr
 
 
     Adding external electric field

     Computed dipole along edir(3) : 
        Dipole               -0.2330 Ry au,         -0.5921 Debye
        Dipole field         -0.0001 Ry au, 
 
        Potential amp.        0.0156 Ry
        Total length         54.2615 bohr
 

     total cpu time spent up to now is      727.1 secs

     total energy              =   -7398.03591364 Ry
     estimated scf accuracy    <       0.01149444 Ry

     total magnetization       =    80.43 Bohr mag/cell
     absolute magnetization    =    81.93 Bohr mag/cell

     iteration # 52     ecut=    50.00 Ry     beta= 0.10
     Davidson diagonalization with overlap
     c_bands:  2 eigenvalues not converged
     ethr =  1.07E-06,  avg # of iterations = 11.0

     negative rho (up, down):  1.329E-02 1.329E-02
 
     Adding external electric field

     Computed dipole along edir(3) : 
        Dipole               -0.1456 Ry au,         -0.3702 Debye
        Dipole field         -0.0001 Ry au, 
 
        Potential amp.        0.0098 Ry
        Total length         54.2615 bohr
 
 
     Adding external electric field

     Computed dipole along edir(3) : 
        Dipole               -0.1456 Ry au,         -0.3702 Debye
        Dipole field         -0.0001 Ry au, 
 
        Potential amp.        0.0098 Ry
        Total length         54.2615 bohr
 

     total cpu time spent up to now is      743.7 secs

     total energy              =   -7398.03536502 Ry
     estimated scf accuracy    <       0.00776984 Ry

     total magnetization       =    80.42 Bohr mag/cell
     absolute magnetization    =    81.94 Bohr mag/cell

     iteration # 53     ecut=    50.00 Ry     beta= 0.10
     Davidson diagonalization with overlap
     c_bands:  2 eigenvalues not converged
     c_bands:  3 eigenvalues not converged
     ethr =  7.21E-07,  avg # of iterations = 20.0

     negative rho (up, down):  1.416E-02 1.427E-02
 
     Adding external electric field

     Computed dipole along edir(3) : 
        Dipole               -0.1013 Ry au,         -0.2576 Debye
        Dipole field         -0.0001 Ry au, 
 
        Potential amp.        0.0068 Ry
        Total length         54.2615 bohr
 
 
     Adding external electric field

     Computed dipole along edir(3) : 
        Dipole               -0.1013 Ry au,         -0.2576 Debye
        Dipole field         -0.0001 Ry au, 
 
        Potential amp.        0.0068 Ry
        Total length         54.2615 bohr
 

     total cpu time spent up to now is      768.1 secs

     total energy              =   -7398.03579770 Ry
     estimated scf accuracy    <       0.00330785 Ry

     total magnetization       =    80.46 Bohr mag/cell
     absolute magnetization    =    82.00 Bohr mag/cell

     iteration # 54     ecut=    50.00 Ry     beta= 0.10
     Davidson diagonalization with overlap
     ethr =  3.07E-07,  avg # of iterations =  2.0

     negative rho (up, down):  8.493E-03 8.497E-03
 
     Adding external electric field

     Computed dipole along edir(3) : 
        Dipole               -0.1282 Ry au,         -0.3259 Debye
        Dipole field         -0.0001 Ry au, 
 
        Potential amp.        0.0086 Ry
        Total length         54.2615 bohr
 
 
     Adding external electric field

     Computed dipole along edir(3) : 
        Dipole               -0.1282 Ry au,         -0.3259 Debye
        Dipole field         -0.0001 Ry au, 
 
        Potential amp.        0.0086 Ry
        Total length         54.2615 bohr
 

     total cpu time spent up to now is      780.8 secs

     total energy              =   -7398.03583784 Ry
     estimated scf accuracy    <       0.00206494 Ry

     total magnetization       =    80.47 Bohr mag/cell
     absolute magnetization    =    81.98 Bohr mag/cell

     iteration # 55     ecut=    50.00 Ry     beta= 0.10
     Davidson diagonalization with overlap
     ethr =  1.92E-07,  avg # of iterations =  6.0

     negative rho (up, down):  3.835E-03 3.724E-03
 
     Adding external electric field

     Computed dipole along edir(3) : 
        Dipole               -0.1658 Ry au,         -0.4214 Debye
        Dipole field         -0.0001 Ry au, 
 
        Potential amp.        0.0111 Ry
        Total length         54.2615 bohr
 
 
     Adding external electric field

     Computed dipole along edir(3) : 
        Dipole               -0.1658 Ry au,         -0.4214 Debye
        Dipole field         -0.0001 Ry au, 
 
        Potential amp.        0.0111 Ry
        Total length         54.2615 bohr
 

     total cpu time spent up to now is      795.5 secs

     total energy              =   -7398.03580144 Ry
     estimated scf accuracy    <       0.00099525 Ry

     total magnetization       =    80.46 Bohr mag/cell
     absolute magnetization    =    81.97 Bohr mag/cell

     iteration # 56     ecut=    50.00 Ry     beta= 0.10
     Davidson diagonalization with overlap
     c_bands:  2 eigenvalues not converged
     ethr =  9.23E-08,  avg # of iterations = 18.5

     negative rho (up, down):  2.692E-03 2.570E-03
 
     Adding external electric field

     Computed dipole along edir(3) : 
        Dipole               -0.1536 Ry au,         -0.3903 Debye
        Dipole field         -0.0001 Ry au, 
 
        Potential amp.        0.0103 Ry
        Total length         54.2615 bohr
 
 
     Adding external electric field

     Computed dipole along edir(3) : 
        Dipole               -0.1536 Ry au,         -0.3903 Debye
        Dipole field         -0.0001 Ry au, 
 
        Potential amp.        0.0103 Ry
        Total length         54.2615 bohr
 

     total cpu time spent up to now is      816.1 secs

     total energy              =   -7398.03586694 Ry
     estimated scf accuracy    <       0.00054747 Ry

     total magnetization       =    80.46 Bohr mag/cell
     absolute magnetization    =    81.99 Bohr mag/cell

     iteration # 57     ecut=    50.00 Ry     beta= 0.10
     Davidson diagonalization with overlap
     ethr =  5.08E-08,  avg # of iterations =  4.5

     negative rho (up, down):  1.189E-03 1.114E-03
 
     Adding external electric field

     Computed dipole along edir(3) : 
        Dipole               -0.1754 Ry au,         -0.4459 Debye
        Dipole field         -0.0001 Ry au, 
 
        Potential amp.        0.0118 Ry
        Total length         54.2615 bohr
 
 
     Adding external electric field

     Computed dipole along edir(3) : 
        Dipole               -0.1754 Ry au,         -0.4459 Debye
        Dipole field         -0.0001 Ry au, 
 
        Potential amp.        0.0118 Ry
        Total length         54.2615 bohr
 

     total cpu time spent up to now is      829.6 secs

     total energy              =   -7398.03586062 Ry
     estimated scf accuracy    <       0.00043975 Ry

     total magnetization       =    80.48 Bohr mag/cell
     absolute magnetization    =    82.01 Bohr mag/cell

     iteration # 58     ecut=    50.00 Ry     beta= 0.10
     Davidson diagonalization with overlap
[...]
    -5.9944  -5.9678  -5.9563  -5.9234  -5.9097  -5.8659  -5.8580  -5.8487
    -5.8118  -5.8051  -5.7502  -5.7350  -5.7233  -5.7073  -5.6932  -5.6789
    -5.6702  -5.6651  -5.6330  -5.6167  -5.6099  -5.5777  -5.5308  -5.5050
    -5.4701  -5.4324  -5.4062  -5.3984  -5.3849  -5.3481  -5.3064  -5.2842
    -5.2377  -5.2111  -5.1852  -5.1706  -5.1688  -5.0813  -5.0771  -5.0547
    -4.9824  -4.9748  -4.9358  -4.9113  -4.8862  -4.8747  -4.8569  -4.7944
    -4.7773  -4.7591  -4.7508  -4.7312  -4.6412  -4.6270  -4.5716  -4.5486
    -4.5178  -4.5162  -4.4991  -4.4581  -4.4070  -4.3915  -4.3771  -4.3682
    -4.3567  -4.2955  -4.2913  -4.2272  -4.1712  -4.1411  -4.1045  -4.0932
    -4.0759  -4.0439  -4.0331  -3.9937  -3.9613  -3.9525  -3.9112  -3.8954
    -3.8749  -3.8374  -3.8224  -3.8063  -3.7938  -3.7600  -3.7461  -3.7291
    -3.6975  -3.6836  -3.6632  -3.6420  -3.6399  -3.6332  -3.5913  -3.5798
    -3.5420  -3.5236  -3.5086  -3.4927  -3.4863  -3.4740  -3.4520  -3.4397
    -3.4270  -3.3965  -3.3833  -3.3455  -3.3357  -3.3122  -3.2614  -3.2501
    -3.2307  -3.2139  -3.2123  -3.1811  -3.1755  -3.1642  -3.1474  -3.1406
    -3.1271  -3.0756  -3.0350  -3.0297  -3.0029  -2.9989  -2.9662  -2.9378
    -2.9163  -2.9150  -2.8982  -2.8696  -2.8552  -2.8344  -2.8149  -2.8072
    -2.7965  -2.7839  -2.7775  -2.7658  -2.7427  -2.7354  -2.7228  -2.6974
    -2.6790  -2.6644  -2.6599  -2.6483  -2.6219  -2.6091  -2.5902  -2.5782
    -2.5494  -2.5338  -2.5251  -2.5156  -2.4920  -2.4771  -2.4655  -2.4355
    -2.4108  -2.3954  -2.3909  -2.3683  -2.3545  -2.3106  -2.2916  -2.2829
    -2.2618  -2.2388  -2.2279  -2.2076  -2.1741  -2.1555  -2.1250  -2.1195
    -2.1092  -2.0843  -2.0760  -2.0685  -2.0664  -2.0357  -2.0036  -1.9870
    -1.9732  -1.9614  -1.9549  -1.9388  -1.9246  -1.9169  -1.8904  -1.8557
    -1.8402  -1.8163  -1.7863  -1.7622  -1.7345  -1.7223  -1.6967  -1.6940
    -1.6568  -1.6517  -1.6466  -1.6270  -1.6125  -1.6060  -1.5866  -1.5457
    -1.5349  -1.5123  -1.4708  -1.4645  -1.4419  -1.4319  -1.4183  -1.4100
    -1.3865  -1.3815  -1.3405  -1.3176  -1.2954  -1.2397  -1.2338  -1.2028
    -1.1489  -1.1025  -1.0754  -1.0508  -1.0121  -0.9248  -0.9107  -0.8747
    -0.7687  -0.6749  -0.6120  -0.5960  -0.4616  -0.3652  -0.3308  -0.2575
     0.1045   0.1270   0.1557   0.1934   0.2269   0.2441   0.2614   0.2729
     0.2812   0.2977   0.3015   0.3040   0.3112   0.3322   0.3449   0.3502
     0.3561   0.3584   0.3751   0.3811   0.3856   0.3957   0.3978   0.4091
     0.4132   0.4156   0.4254   0.4386   0.4460   0.4537   0.4584   0.4623
     0.4656   0.4717   0.4751   0.4930   0.4950   0.5005   0.5131   0.5153
     0.5220   0.5447   0.5470   0.5511   0.5598   0.5655   0.5684   0.5720
     0.5783   0.5895   0.5919   0.5956   0.6101   0.6162   0.6242   0.6363
     0.6396   0.6484   0.6559   0.6677   0.6752   0.6769   0.6887   0.6922
     0.6928   0.7023   0.7119   0.7161   0.7212   0.7361   0.7411   0.7465
     0.7501   0.7557   0.7697   0.7807   0.7883   0.7992   0.8081   0.8219
     0.8293   0.8378   0.8456   0.8628   0.8655   0.8722   0.8808   0.8829
     0.8983   0.9153   0.9188   0.9277   0.9357   0.9724   0.9881   1.0429
     1.0734   1.1372   1.6073   1.6597   1.7025   1.7130   1.7156   1.7424
     1.7722   1.8353   1.8710   1.8744   1.8965   1.9321   1.9368   1.9669
     1.9785   1.9917   2.0171   2.0395   2.0517   2.0730   2.0848   2.1117
     2.1443   2.1570   2.1803   2.1908   2.1987   2.2174   2.2263   2.2451
     2.2529   2.2562   2.2693   2.2823   2.2886   2.2980   2.3079   2.3244
     2.3388   2.3447   2.3665   2.3879   2.4042   2.4204   2.4343   2.4484
     2.4567   2.4753   2.5002   2.5060   2.5149   2.5335   2.5552   2.5694
     2.5811   2.5880   2.6115   2.6391   2.6621   2.6743   2.7369   2.7625
     2.7844   2.8353   2.8441   2.9065   2.9181   3.5915   3.5923   3.6665
     3.7628   3.8272   3.8444   3.8592   3.8635   4.0013   4.0663   4.5926
     4.6465   4.7099   4.7762   4.9258   4.9503   5.0215   5.4147   6.2968
     6.3623   6.5443   6.5901   6.7782   6.8154   6.8439   6.8793   6.9260
     7.0151   7.0673   7.0980   7.1211   7.3211   7.3655   7.3784   7.4151
     7.5006   7.5557   7.6552   7.6767   7.6878   7.7550   7.7890   7.8107
     7.8627   7.9212   7.9513   7.9786   8.0217   8.0317   8.0620   8.0704
     8.0932   8.1178   8.1615   8.2020   8.2359   8.2649   8.2988   8.3285
     8.3796   8.4117   8.4179   8.4426   8.4623   8.4795   8.5014   8.5128
     8.5322   8.5580   8.5845   8.5975   8.6210   8.6440   8.6809   8.6911
     8.7219   8.7671   8.7943   8.7956   8.8217   8.8553   8.8657

     the Fermi energy is     1.5669 ev

!    total energy              =   -7398.03608790 Ry
     estimated scf accuracy    <       0.00000069 Ry
     smearing contrib. (-TS)   =      -0.01406121 Ry
     internal energy E=F+TS    =   -7398.02202669 Ry

     The total energy is F=E-TS. E is the sum of the following terms:
     one-electron contribution =  -91684.68272737 Ry
     hartree contribution      =   46490.38299714 Ry
     xc contribution           =   -2260.26848182 Ry
     ewald contribution        =   40058.37968597 Ry
     Dispersion Correction     =      -1.83351003 Ry
     electric field correction =       0.00000942 Ry

     total magnetization       =    80.47 Bohr mag/cell
     absolute magnetization    =    82.00 Bohr mag/cell

     convergence has been achieved in  72 iterations

     negative rho (up, down):  9.308E-04 5.479E-04

     Forces acting on atoms (cartesian axes, Ry/au):

     atom    1 type  2   force =     0.03095359   -0.01968182   -0.01617379
     atom    2 type  1   force =     0.00212331   -0.00400890   -0.01067827
     atom    3 type  1   force =    -0.02145659   -0.02058639    0.01816157
     atom    4 type  1   force =     0.00138917    0.01029267   -0.01261615
     atom    5 type  1   force =    -0.00474095    0.02897921   -0.01839411
     atom    6 type  1   force =     0.00583717    0.00050161   -0.00034183
     atom    7 type  1   force =     0.02681289   -0.02096577    0.01742227
     atom    8 type  1   force =    -0.00955272   -0.00308901   -0.01097914
     atom    9 type  1   force =    -0.02969832   -0.01814706    0.01617303
     atom   10 type  1   force =    -0.00115125    0.00811923   -0.01289900
     atom   11 type  1   force =    -0.01318391    0.03036811   -0.02058169
     atom   12 type  1   force =     0.00125384    0.00653880   -0.00398349
     atom   13 type  3   force =     0.05101466   -0.11002546    0.00914142
     atom   14 type  3   force =    -0.02904082    0.03593063   -0.06521122
     atom   15 type  3   force =    -0.00920147    0.17547707   -0.08320740
     atom   16 type  3   force =     0.06069008    0.00055168   -0.00441669
     atom   17 type  4   force =     0.01514680   -0.02189567   -0.00984981
     atom   18 type  4   force =    -0.00543481    0.00484940    0.02969634
     atom   19 type  4   force =     0.00218213    0.00104337    0.03079530
     atom   20 type  4   force =     0.00515957    0.00184004    0.00229133
     atom   21 type  4   force =     0.00051682   -0.01204775    0.00000805
     atom   22 type  4   force =    -0.00096664    0.00392279    0.03235508
     atom   23 type  4   force =    -0.00604656    0.01472547    0.02725087
     atom   24 type  4   force =     0.00869994    0.00319826   -0.00425102
     atom   25 type  4   force =     0.00651987   -0.00318865    0.00155514
     atom   26 type  4   force =     0.03122475   -0.17843821    0.00719675
     atom   27 type  4   force =     0.00279474    0.00100916    0.00168617
     atom   28 type  4   force =    -0.01715139    0.00166527    0.00471612
     atom   29 type  4   force =     0.09143645    0.00312788    0.00803039
     atom   30 type  4   force =     0.01300902   -0.02523994   -0.00094321
     atom   31 type  4   force =    -0.03850846    0.13343321   -0.00018080
     atom   32 type  4   force =    -0.00544393   -0.01188390    0.00651854
     atom   33 type  3   force =     0.04157316   -0.11919662    0.00959174
     atom   34 type  3   force =    -0.10168172    0.04258483   -0.07577961
     atom   35 type  3   force =    -0.01351050    0.16598188   -0.08814378
     atom   36 type  3   force =    -0.00359257    0.00255126   -0.01046072
     atom   37 type  4   force =     0.00818417   -0.01474268   -0.00245026
     atom   38 type  4   force =    -0.00589182   -0.00167344    0.02747083
     atom   39 type  4   force =    -0.00464757    0.00728428    0.03221005
     atom   40 type  4   force =     0.00132743    0.00000059    0.00239800
     atom   41 type  4   force =    -0.00156447   -0.00967534   -0.00146445
     atom   42 type  4   force =     0.00538232   -0.00046684    0.02917707
     atom   43 type  4   force =    -0.01041570    0.01355678    0.02688836
     atom   44 type  4   force =     0.00448578    0.00345873   -0.00445369
     atom   45 type  4   force =    -0.00028386   -0.00055713    0.00200869
     atom   46 type  4   force =     0.02821414   -0.17067644    0.00535635
     atom   47 type  4   force =    -0.06560522   -0.00073596   -0.00311071
     atom   48 type  4   force =    -0.01997993    0.00390118    0.00526897
     atom   49 type  4   force =     0.01415962    0.00083464    0.00201600
     atom   50 type  4   force =     0.00788721   -0.02447406   -0.00019988
     atom   51 type  4   force =    -0.03980581    0.13343068   -0.00135102
     atom   52 type  4   force =    -0.00769962   -0.01066870    0.00875982
     atom   53 type  2   force =     0.00624396   -0.00725321    0.00562245
     atom   54 type  1   force =     0.00058174   -0.00463137    0.00803471
     atom   55 type  1   force =     0.00498787   -0.00623387    0.00672322
     atom   56 type  1   force =     0.00071591    0.00593443    0.00307448
     atom   57 type  1   force =     0.00089284    0.02207418   -0.01396144
     atom   58 type  1   force =     0.00148867   -0.00343319    0.00246693
     atom   59 type  1   force =     0.00255771   -0.01022040    0.00378411
     atom   60 type  1   force =    -0.00679860   -0.00298227    0.00376160
     atom   61 type  1   force =    -0.00467374   -0.00501337    0.00665802
     atom   62 type  1   force =    -0.00357099    0.00603617   -0.00068746
     atom   63 type  1   force =    -0.01110897    0.02519188   -0.01759368
     atom   64 type  1   force =    -0.00219039    0.00112467   -0.00068310
     atom   65 type  3   force =     0.04514156   -0.11956968    0.01959815
     atom   66 type  3   force =     0.00158097   -0.00443867    0.00052687
     atom   67 type  3   force =    -0.04072764    0.12367618   -0.00688624
     atom   68 type  3   force =     0.06329397   -0.00209269    0.00751541
     atom   69 type  4   force =     0.01268161   -0.01731374   -0.00291699
     atom   70 type  4   force =    -0.00171798    0.00348630   -0.00045538
     atom   71 type  4   force =    -0.00181795    0.00341003    0.00530930
     atom   72 type  4   force =     0.00465599    0.00157353    0.00070718
     atom   73 type  4   force =     0.00871387   -0.01688456    0.01187552
     atom   74 type  4   force =    -0.00439614   -0.00337763    0.00928753
     atom   75 type  4   force =     0.00354768    0.00866055    0.00449116
     atom   76 type  4   force =     0.00590558    0.00080306   -0.00209243
     atom   77 type  4   force =     0.00611797   -0.00180581   -0.00107530
     atom   78 type  4   force =     0.04538397   -0.14096097    0.00572110
     atom   79 type  4   force =     0.00022006    0.00035674   -0.00072890
     atom   80 type  4   force =     0.00149317    0.00187856    0.00214392
     atom   81 type  4   force =     0.06744209    0.00011345    0.00645326
     atom   82 type  4   force =     0.00017657    0.00237142    0.00127611
     atom   83 type  4   force =    -0.03906122    0.13800306   -0.00269452
     atom   84 type  4   force =    -0.00102940   -0.01068282    0.00375493
     atom   85 type  3   force =     0.03947902   -0.12370954    0.02498134
     atom   86 type  3   force =    -0.06326462   -0.00171454   -0.00376378
     atom   87 type  3   force =    -0.04611053    0.12084565   -0.01046924
     atom   88 type  3   force =    -0.00011553   -0.00163219    0.00277927
     atom   89 type  4   force =     0.00858609   -0.01533582   -0.00493479
     atom   90 type  4   force =    -0.00455437    0.00103931   -0.00091480
     atom   91 type  4   force =    -0.00949692    0.00835213    0.00546891
     atom   92 type  4   force =     0.00042571   -0.00002896   -0.00002694
     atom   93 type  4   force =     0.00121547   -0.01177144    0.00079861
     atom   94 type  4   force =    -0.00908950   -0.00292487    0.00824284
     atom   95 type  4   force =    -0.00029521    0.00777521    0.00292366
     atom   96 type  4   force =    -0.00085684    0.00068921    0.00012500
     atom   97 type  4   force =    -0.00100592    0.00195215   -0.00013985
     atom   98 type  4   force =     0.04058906   -0.13926786    0.00478973
     atom   99 type  4   force =    -0.06738767   -0.00087376   -0.00601348
     atom  100 type  4   force =    -0.00052509    0.00278997    0.00287286
     atom  101 type  4   force =    -0.00117574    0.00009586    0.00140779
     atom  102 type  4   force =    -0.00687616    0.00545019    0.00152279
     atom  103 type  4   force =    -0.04035414    0.13547075   -0.00427178
     atom  104 type  4   force =    -0.00597637   -0.01005643    0.00504155
     atom  105 type  2   force =    -0.00039672    0.00015486    0.00013819
     atom  106 type  1   force =     0.00035763   -0.00055599   -0.00032610
     atom  107 type  1   force =     0.00032553    0.00013191    0.00066103
     atom  108 type  1   force =    -0.00240639    0.00126324   -0.00226641
     atom  109 type  1   force =     0.00028360   -0.00078134    0.00001033
     atom  110 type  1   force =    -0.00051414    0.00006713   -0.00019950
     atom  111 type  1   force =     0.00006232   -0.00047571    0.00045760
     atom  112 type  1   force =     0.00009615    0.00023401   -0.00027460
     atom  113 type  1   force =     0.00012563   -0.00024394   -0.00009690
     atom  114 type  1   force =     0.00012766    0.00002792    0.00015971
     atom  115 type  1   force =    -0.00000791    0.00026245    0.00001691
     atom  116 type  1   force =    -0.00032636    0.00020822   -0.00004487
     atom  117 type  3   force =    -0.00097713   -0.00088933    0.00011661
     atom  118 type  3   force =    -0.00016798   -0.00001121    0.00011891
     atom  119 type  3   force =    -0.00002790   -0.00003100   -0.00075087
     atom  120 type  3   force =     0.00005286   -0.00006204   -0.00023805
     atom  121 type  4   force =     0.00050644    0.00033596    0.00090000
     atom  122 type  4   force =    -0.00015698    0.00013986    0.00009612
     atom  123 type  4   force =     0.00000659   -0.00008674   -0.00004628
     atom  124 type  4   force =     0.00038656   -0.00037158    0.00022823
     atom  125 type  4   force =     0.00068221    0.00058244   -0.00071699
     atom  126 type  4   force =    -0.00010208   -0.00020124   -0.00015923
     atom  127 type  4   force =     0.00049009   -0.00028406    0.00000912
     atom  128 type  4   force =    -0.00010899    0.00066361   -0.00034892
     atom  129 type  4   force =     0.00029033   -0.00036970    0.00020867
     atom  130 type  4   force =    -0.00013266    0.00001964    0.00028036
     atom  131 type  4   force =    -0.00035430   -0.00041712    0.00007087
     atom  132 type  4   force =     0.00013955   -0.00008024   -0.00022945
     atom  133 type  4   force =    -0.00013438    0.00014330   -0.00019027
     atom  134 type  4   force =     0.00003009    0.00025751   -0.00027108
     atom  135 type  4   force =     0.00015800    0.00048583   -0.00060957
     atom  136 type  4   force =    -0.00035624    0.00003974   -0.00004146
     atom  137 type  3   force =    -0.00043724   -0.00014229   -0.00000743
     atom  138 type  3   force =     0.00015233    0.00002817   -0.00003585
     atom  139 type  3   force =    -0.00016631   -0.00032992    0.00000076
     atom  140 type  3   force =     0.00010950    0.00018730   -0.00005111
     atom  141 type  4   force =     0.00017899   -0.00006329    0.00024077
     atom  142 type  4   force =     0.00016486   -0.00011531    0.00005552
     atom  143 type  4   force =    -0.00014964   -0.00010808   -0.00023734
     atom  144 type  4   force =    -0.00048408   -0.00051801   -0.00038986
     atom  145 type  4   force =    -0.00009849   -0.00004679   -0.00076315
     atom  146 type  4   force =    -0.00020625    0.00008287   -0.00004810
     atom  147 type  4   force =     0.00024515   -0.00015548    0.00003503
     atom  148 type  4   force =    -0.00121622   -0.00097630    0.00008108
     atom  149 type  4   force =    -0.00011707   -0.00005818    0.00006474
     atom  150 type  4   force =    -0.00018006   -0.00017675   -0.00016030
     atom  151 type  4   force =    -0.00007368   -0.00003979    0.00035748
     atom  152 type  4   force =    -0.00004949   -0.00035465   -0.00013568
     atom  153 type  4   force =    -0.00017930    0.00022167    0.00002796
     atom  154 type  4   force =     0.00011763    0.00029117    0.00004618
     atom  155 type  4   force =    -0.00013160   -0.00001748    0.00018507
     atom  156 type  4   force =    -0.00011475    0.00022641   -0.00001921
     atom  157 type  4   force =     0.01325416    0.00688731    0.00528847
     atom  158 type  5   force =    -0.01023303   -0.00701702   -0.00264983

     Total force =     0.665369     Total SCF correction =     0.003858
 
     init_run     :      7.24s CPU      7.95s WALL (       1 calls)
     electrons    :    961.64s CPU   1008.59s WALL (       1 calls)
     forces       :      4.33s CPU      4.64s WALL (       1 calls)
     force_london :      0.10s CPU      0.10s WALL (       1 calls)

     Called by init_run:
     wfcinit      :      4.39s CPU      4.54s WALL (       1 calls)
     potinit      :      0.60s CPU      0.81s WALL (       1 calls)
     hinit0       :      1.23s CPU      1.34s WALL (       1 calls)

     Called by electrons:
     c_bands      :    769.03s CPU    795.01s WALL (      72 calls)
     sum_band     :    123.49s CPU    134.95s WALL (      72 calls)
     v_of_rho     :     13.81s CPU     14.78s WALL (      73 calls)
     newd         :     35.55s CPU     44.21s WALL (      73 calls)
     mix_rho      :     19.16s CPU     19.33s WALL (      72 calls)
     energy_londo :      0.08s CPU      0.08s WALL (       1 calls)

     Called by c_bands:
     init_us_2    :      2.20s CPU      2.25s WALL (     292 calls)
     init_us_2:cp :      2.19s CPU      2.25s WALL (     292 calls)
     regterg      :    753.09s CPU    778.88s WALL (     147 calls)

     Called by *egterg:
     rdiaghg      :    233.51s CPU    245.88s WALL (     702 calls)
     h_psi        :    286.45s CPU    292.27s WALL (     704 calls)
     s_psi        :     55.07s CPU     55.11s WALL (     704 calls)
     g_psi        :      0.36s CPU      0.37s WALL (     555 calls)

     Called by h_psi:
     h_psi:calbec :     74.52s CPU     79.18s WALL (     704 calls)
     vloc_psi     :    155.04s CPU    155.70s WALL (     704 calls)
     add_vuspsi   :     56.18s CPU     56.68s WALL (     704 calls)

     General routines
     calbec       :    109.62s CPU    116.61s WALL (     856 calls)
     fft          :     14.39s CPU     15.67s WALL (    1327 calls)
     ffts         :     11.54s CPU     11.58s WALL (    8951 calls)
     fftw         :    176.09s CPU    176.80s WALL (  245098 calls)
     interpolate  :      1.14s CPU      1.22s WALL (     146 calls)
 
     Parallel routines
 
     PWSCF        :  16m15.29s CPU  17m 3.54s WALL

 
   This run was terminated on:  19:35:24  19Nov2025            

=------------------------------------------------------------------------------=
   JOB DONE.
=------------------------------------------------------------------------------=
