
     Program PWSCF v.7.2 starts on 19Nov2025 at 21:46:15 

     This program is part of the open-source Quantum ESPRESSO suite
     for quantum simulation of materials; please cite
         "P. Giannozzi et al., J. Phys.:Condens. Matter 21 395502 (2009);
         "P. Giannozzi et al., J. Phys.:Condens. Matter 29 465901 (2017);
         "P. Giannozzi et al., J. Chem. Phys. 152 154105 (2020);
          URL http://www.quantum-espresso.org", 
     in publications or presentations arising from this work. More details at
     http://www.quantum-espresso.org/quote

     Parallel version (MPI), running on    64 processors

     MPI processes distributed on     4 nodes
     461382 MiB available memory on the printing compute node when the environment starts
 
     Reading input from PWINPUT_atm158_zp

     Current dimensions of program PWSCF are:
     Max number of different atomic species (ntypx) = 10
     Max number of k-points (npk) =  40000
     Max angular momentum in pseudopotentials (lmaxx) =  4
     Presently no symmetry can be used with electric field

     file Ni.pbe-n-rrkjus_psl.1.0.0.UPF: wavefunction(s)  3D renormalized
     file Mn.pbe-spn-rrkjus_psl.0.3.1.UPF: wavefunction(s)  3D renormalized
     file O.pbe-rrkjus.UPF: wavefunction(s)  2S renormalized
     file H.pbe-rrkjus.UPF: wavefunction(s)  1S renormalized

     gamma-point specific algorithms are used
 
     R & G space division:  proc/nbgrp/npool/nimage =      64
     Subspace diagonalization in iterative solution of the eigenvalue problem:
     one sub-group per band group will be used
     custom distributed-memory algorithm (size of sub-group:  6*  6 procs)

 
     Parallelization info
     --------------------
     sticks:   dense  smooth     PW     G-vecs:    dense   smooth      PW
     Min         208      82     20                59912    15118    1876
     Max         210      84     22                59974    15196    1926
     Sum       13399    5355   1345              3836275   970529  121367
 
     Using Slab Decomposition
 


     bravais-lattice index     =            0
     lattice parameter (alat)  =      17.7004  a.u.
     unit-cell volume          =   20319.7251 (a.u.)^3
     number of atoms/cell      =          158
     number of atomic types    =            5
     number of electrons       =      1078.00
     number of Kohn-Sham states=          647
     kinetic-energy cutoff     =      50.0000  Ry
     charge density cutoff     =     500.0000  Ry
     scf convergence threshold =      1.0E-06
     mixing beta               =       0.1000
     number of iterations used =            8  local-TF  mixing
     Exchange-correlation=  SLA  PW   PBE  PBE
                           (   1   4   3   4   0   0   0)

     celldm(1)=  17.700384  celldm(2)=   0.000000  celldm(3)=   0.000000
     celldm(4)=   0.000000  celldm(5)=   0.000000  celldm(6)=   0.000000

     crystal axes: (cart. coord. in units of alat)
               a(1) = (   1.000000   0.000000   0.000000 )  
               a(2) = (   0.000000   1.075730   0.000000 )  
               a(3) = (   0.000000   0.000000   3.406172 )  

     reciprocal axes: (cart. coord. in units 2 pi/alat)
               b(1) = (  1.000000  0.000000  0.000000 )  
               b(2) = (  0.000000  0.929602  0.000000 )  
               b(3) = (  0.000000  0.000000  0.293585 )  


     PseudoPot. # 1 for Ni read from file:
     ~/PSEUDO/Ni.pbe-n-rrkjus_psl.1.0.0.UPF
     MD5 check sum: Not computed, couldn't open file
     Pseudo is Ultrasoft + core correction, Zval = 10.0
     Generated using "atomic" code by A. Dal Corso  v.5.1.2
     Using radial grid of 1195 points,  6 beta functions with: 
                l(1) =   0
                l(2) =   0
                l(3) =   1
                l(4) =   1
                l(5) =   2
                l(6) =   2
     Q(r) pseudized with 0 coefficients 


     PseudoPot. # 2 for Mn read from file:
     ~/PSEUDO/Mn.pbe-spn-rrkjus_psl.0.3.1.UPF
     MD5 check sum: Not computed, couldn't open file
     Pseudo is Ultrasoft + core correction, Zval = 15.0
     Generated using &quot;atomic&quot; code by A. Dal Corso  v.6.2.2
     Using radial grid of 1187 points,  6 beta functions with: 
                l(1) =   0
                l(2) =   0
                l(3) =   1
                l(4) =   1
                l(5) =   2
                l(6) =   2
     Q(r) pseudized with 0 coefficients 


     PseudoPot. # 3 for P  read from file:
     ~/PSEUDO/P.pbe-n-rrkjus_psl.1.0.0.UPF
     MD5 check sum: Not computed, couldn't open file
     Pseudo is Ultrasoft + core correction, Zval =  5.0
     Generated using "atomic" code by A. Dal Corso  v.5.1
     Using radial grid of 1147 points,  6 beta functions with: 
                l(1) =   0
                l(2) =   0
                l(3) =   1
                l(4) =   1
                l(5) =   2
                l(6) =   2
     Q(r) pseudized with 0 coefficients 


     PseudoPot. # 4 for O  read from file:
     ~/PSEUDO/O.pbe-rrkjus.UPF
     MD5 check sum: Not computed, couldn't open file
     Pseudo is Ultrasoft, Zval =  6.0
     Generated by new atomic code, or converted to UPF format
     Using radial grid of 1269 points,  4 beta functions with: 
                l(1) =   0
                l(2) =   0
                l(3) =   1
                l(4) =   1
     Q(r) pseudized with 0 coefficients 


     PseudoPot. # 5 for H  read from file:
     ~/PSEUDO/H.pbe-rrkjus.UPF
     MD5 check sum: Not computed, couldn't open file
     Pseudo is Ultrasoft, Zval =  1.0
     Generated by new atomic code, or converted to UPF format
     Using radial grid of 1061 points,  2 beta functions with: 
                l(1) =   0
                l(2) =   0
     Q(r) pseudized with 0 coefficients 


     atomic species   valence    mass     pseudopotential
     Ni               10.00    58.69300     Ni( 1.00)
     Mn               15.00    54.93800     Mn( 1.00)
     P                 5.00    30.97300     P ( 1.00)
     O                 6.00    15.99900     O ( 1.00)
     H                 1.00     1.00790     H ( 1.00)

     Starting magnetic structure 
     atomic species   magnetization
     Ni              1.000
     Mn              1.000
     P               1.000
     O               1.000
     H               0.000

     No symmetry found



   Cartesian axes

     site n.     atom                  positions (alat units)
         1        Mn     tau(   1) = (   0.2404744   0.8371250   0.1168501  )
         2        Ni     tau(   2) = (   0.4968126   0.7726670   0.4415546  )
         3        Ni     tau(   3) = (   0.0066150   0.2936743   0.1241053  )
         4        Ni     tau(   4) = (   0.2585722   0.2355858   0.4448848  )
         5        Ni     tau(   5) = (   0.9987350   1.0696411   0.2854926  )
         6        Ni     tau(   6) = (   0.2517397   0.5330511   0.2829322  )
         7        Ni     tau(   7) = (   0.7451645   0.8337543   0.1221751  )
         8        Ni     tau(   8) = (   0.9939181   0.7738804   0.4407595  )
         9        Ni     tau(   9) = (   0.5111533   0.2924088   0.1251865  )
        10        Ni     tau(  10) = (   0.7606326   0.2319267   0.4451372  )
        11        Ni     tau(  11) = (   0.5024065   1.0688133   0.2870502  )
        12        Ni     tau(  12) = (   0.7529977   0.5317900   0.2845227  )
        13        P      tau(  13) = (   0.2092944   0.9731097   0.4345035  )
        14        P      tau(  14) = (   0.4655727   0.6359535   0.1274635  )
        15        P      tau(  15) = (   0.2910699   0.1027363   0.1296098  )
        16        P      tau(  16) = (   0.0396216   0.4288395   0.4398838  )
        17        O      tau(  17) = (   0.1294378   0.9013260   0.3010618  )
        18        O      tau(  18) = (   0.3874505   0.7054774   0.2637003  )
        19        O      tau(  19) = (   0.3702540   0.1714799   0.2660028  )
        20        O      tau(  20) = (   0.1184398   0.3582958   0.3038353  )
        21        O      tau(  21) = (   0.1451572   0.8850881   0.5587578  )
        22        O      tau(  22) = (   0.4048762   0.7245585   0.0017492  )
        23        O      tau(  23) = (   0.3523506   0.1900579   0.0035744  )
        24        O      tau(  24) = (   0.1017610   0.3410484   0.5656572  )
        25        O      tau(  25) = (   0.0975396   0.5849288   0.4357922  )
        26        O      tau(  26) = (   0.3483552   1.0314945   0.1270322  )
        27        O      tau(  27) = (   0.3784305   0.4225118   0.4308928  )
        28        O      tau(  28) = (   0.1268237   0.1067944   0.1392744  )
        29        O      tau(  29) = (   0.1212267   0.6424170   0.1362896  )
        30        O      tau(  30) = (   0.4053315   0.4809387   0.1300622  )
        31        O      tau(  31) = (   0.1536621   0.0446918   0.4373386  )
        32        O      tau(  32) = (   0.3732349   0.9631717   0.4256642  )
        33        P      tau(  33) = (   0.7119823   0.9695974   0.4373010  )
        34        P      tau(  34) = (   0.9615208   0.6363392   0.1262932  )
        35        P      tau(  35) = (   0.7927710   0.0970060   0.1292164  )
        36        P      tau(  36) = (   0.5426404   0.4269675   0.4410738  )
        37        O      tau(  37) = (   0.6326879   0.8991182   0.3013240  )
        38        O      tau(  38) = (   0.8842163   0.7083206   0.2625155  )
        39        O      tau(  39) = (   0.8716178   0.1677751   0.2653504  )
        40        O      tau(  40) = (   0.6212010   0.3558666   0.3051085  )
        41        O      tau(  41) = (   0.6507714   0.8812342   0.5631722  )
        42        O      tau(  42) = (   0.9014054   0.7264458   0.0010676  )
        43        O      tau(  43) = (   0.8548963   0.1847909   0.0035471  )
        44        O      tau(  44) = (   0.6044469   0.3378706   0.5660366  )
        45        O      tau(  45) = (   0.6024424   0.5823140   0.4379016  )
        46        O      tau(  46) = (   0.8498940   1.0254482   0.1275156  )
        47        O      tau(  47) = (   0.8798395   0.4205825   0.4305771  )
        48        O      tau(  48) = (   0.6286921   0.1034636   0.1397346  )
        49        O      tau(  49) = (   0.6294973   0.6427753   0.1372553  )
        50        O      tau(  50) = (   0.9024339   0.4810312   0.1296418  )
        51        O      tau(  51) = (   0.6547812   0.0410987   0.4396636  )
        52        O      tau(  52) = (   0.8760507   0.9632605   0.4264507  )
        53        Mn     tau(  53) = (   0.2404744   0.8246335   0.7367378  )
        54        Ni     tau(  54) = (   0.4968126   0.7601755   1.0614423  )
        55        Ni     tau(  55) = (   0.0066150   0.2811828   0.7439929  )
        56        Ni     tau(  56) = (   0.2585722   0.2230943   1.0647725  )
        57        Ni     tau(  57) = (   0.9987350   1.0571496   0.9053803  )
        58        Ni     tau(  58) = (   0.2517397   0.5205596   0.9028199  )
        59        Ni     tau(  59) = (   0.7451645   0.8212628   0.7420628  )
        60        Ni     tau(  60) = (   0.9939181   0.7613889   1.0606471  )
        61        Ni     tau(  61) = (   0.5111533   0.2799173   0.7450742  )
        62        Ni     tau(  62) = (   0.7606326   0.2194352   1.0650249  )
        63        Ni     tau(  63) = (   0.5024065   1.0563218   0.9069379  )
        64        Ni     tau(  64) = (   0.7529977   0.5192985   0.9044104  )
        65        P      tau(  65) = (   0.2092944   0.9606182   1.0543912  )
        66        P      tau(  66) = (   0.4655727   0.6234620   0.7473512  )
        67        P      tau(  67) = (   0.2910699   0.0902448   0.7494974  )
        68        P      tau(  68) = (   0.0396216   0.4163480   1.0597715  )
        69        O      tau(  69) = (   0.1294378   0.8888345   0.9209495  )
        70        O      tau(  70) = (   0.3874505   0.6929859   0.8835880  )
        71        O      tau(  71) = (   0.3702540   0.1589885   0.8858904  )
        72        O      tau(  72) = (   0.1184398   0.3458043   0.9237230  )
        73        O      tau(  73) = (   0.1451572   0.8725966   1.1786454  )
        74        O      tau(  74) = (   0.4048762   0.7120670   0.6216369  )
        75        O      tau(  75) = (   0.3523506   0.1775664   0.6234620  )
        76        O      tau(  76) = (   0.1017610   0.3285569   1.1855448  )
        77        O      tau(  77) = (   0.0975396   0.5724373   1.0556799  )
        78        O      tau(  78) = (   0.3483552   1.0190030   0.7469198  )
        79        O      tau(  79) = (   0.3784305   0.4100203   1.0507804  )
        80        O      tau(  80) = (   0.1268237   0.0943029   0.7591620  )
        81        O      tau(  81) = (   0.1212267   0.6299255   0.7561772  )
        82        O      tau(  82) = (   0.4053315   0.4684472   0.7499499  )
        83        O      tau(  83) = (   0.1536621   0.0322003   1.0572263  )
        84        O      tau(  84) = (   0.3732349   0.9506802   1.0455518  )
        85        P      tau(  85) = (   0.7119823   0.9571059   1.0571887  )
        86        P      tau(  86) = (   0.9615208   0.6238477   0.7461808  )
        87        P      tau(  87) = (   0.7927710   0.0845145   0.7491041  )
        88        P      tau(  88) = (   0.5426404   0.4144760   1.0609615  )
        89        O      tau(  89) = (   0.6326879   0.8866267   0.9212117  )
        90        O      tau(  90) = (   0.8842163   0.6958291   0.8824032  )
        91        O      tau(  91) = (   0.8716178   0.1552836   0.8852381  )
        92        O      tau(  92) = (   0.6212010   0.3433751   0.9249961  )
        93        O      tau(  93) = (   0.6507714   0.8687427   1.1830599  )
        94        O      tau(  94) = (   0.9014054   0.7139543   0.6209553  )
        95        O      tau(  95) = (   0.8548963   0.1722994   0.6234348  )
        96        O      tau(  96) = (   0.6044469   0.3253792   1.1859242  )
        97        O      tau(  97) = (   0.6024424   0.5698225   1.0577892  )
        98        O      tau(  98) = (   0.8498940   1.0129567   0.7474033  )
        99        O      tau(  99) = (   0.8798395   0.4080910   1.0504647  )
       100        O      tau( 100) = (   0.6286921   0.0909721   0.7596222  )
       101        O      tau( 101) = (   0.6294973   0.6302838   0.7571429  )
       102        O      tau( 102) = (   0.9024339   0.4685397   0.7495295  )
       103        O      tau( 103) = (   0.6547812   0.0286072   1.0595512  )
       104        O      tau( 104) = (   0.8760507   0.9507690   1.0463383  )
       105        Mn     tau( 105) = (   0.2366231   0.8099108   1.3652025  )
       106        Ni     tau( 106) = (   0.5054159   0.7462824   1.6760027  )
       107        Ni     tau( 107) = (   0.0089171   0.2673656   1.3686123  )
       108        Ni     tau( 108) = (   0.2644416   0.1993195   1.7084151  )
       109        Ni     tau( 109) = (   1.0061379   1.0432337   1.5350349  )
       110        Ni     tau( 110) = (   0.2518568   0.5022264   1.5321875  )
       111        Ni     tau( 111) = (   0.7428918   0.8054563   1.3680737  )
       112        Ni     tau( 112) = (   1.0041850   0.7431092   1.6780598  )
       113        Ni     tau( 113) = (   0.5112288   0.2659826   1.3709479  )
       114        Ni     tau( 114) = (   0.7532805   0.2088052   1.6753652  )
       115        Ni     tau( 115) = (   0.5047699   1.0448721   1.5373338  )
       116        Ni     tau( 116) = (   0.7503649   0.5053471   1.5308247  )
       117        P      tau( 117) = (   0.2161577   0.9302828   1.6982302  )
       118        P      tau( 118) = (   0.4629997   0.6076656   1.3708803  )
       119        P      tau( 119) = (   0.2923548   0.0759931   1.3761085  )
       120        P      tau( 120) = (   0.0403728   0.3936694   1.6855939  )
       121        O      tau( 121) = (   0.1364693   0.8668413   1.5531897  )
       122        O      tau( 122) = (   0.3862188   0.6762237   1.5077855  )
       123        O      tau( 123) = (   0.3702313   0.1459453   1.5113118  )
       124        O      tau( 124) = (   0.1164972   0.3354481   1.5416341  )
       125        O      tau( 125) = (   0.1561077   0.8312184   1.8121815  )
       126        O      tau( 126) = (   0.4024345   0.6977036   1.2456547  )
       127        O      tau( 127) = (   0.3529885   0.1608260   1.2478482  )
       128        O      tau( 128) = (   0.0988259   0.2967762   1.8028337  )
       129        O      tau( 129) = (   0.0955223   0.5521437   1.6882589  )
       130        O      tau( 130) = (   0.3501042   0.9948817   1.3794940  )
       131        O      tau( 131) = (   0.3769862   0.3955830   1.6820705  )
       132        O      tau( 132) = (   0.1282711   0.0787148   1.3850164  )
       133        O      tau( 133) = (   0.1228222   0.6171400   1.3807433  )
       134        O      tau( 134) = (   0.4031340   0.4526637   1.3730383  )
       135        O      tau( 135) = (   0.1564153   0.0102487   1.6911737  )
       136        O      tau( 136) = (   0.3803451   0.9249762   1.6777280  )
       137        P      tau( 137) = (   0.7174345   0.9334429   1.6935398  )
       138        P      tau( 138) = (   0.9584537   0.6093492   1.3691178  )
       139        P      tau( 139) = (   0.7939811   0.0700328   1.3725244  )
       140        P      tau( 140) = (   0.5416921   0.3997600   1.6930504  )
       141        O      tau( 141) = (   0.6378837   0.8729788   1.5477586  )
       142        O      tau( 142) = (   0.8828523   0.6807110   1.5061576  )
       143        O      tau( 143) = (   0.8725292   0.1417236   1.5079952  )
       144        O      tau( 144) = (   0.6175250   0.3342570   1.5484665  )
       145        O      tau( 145) = (   0.6556870   0.8369021   1.8084207  )
       146        O      tau( 146) = (   0.8987137   0.6988347   1.2434250  )
       147        O      tau( 147) = (   0.8547435   0.1573124   1.2458538  )
       148        O      tau( 148) = (   0.6058869   0.3057682   1.8100154  )
       149        O      tau( 149) = (   0.5996895   0.5564472   1.6887454  )
       150        O      tau( 150) = (   0.8537678   0.9909218   1.3764211  )
       151        O      tau( 151) = (   0.8747176   0.3908074   1.6749590  )
       152        O      tau( 152) = (   0.6300578   0.0775778   1.3854873  )
       153        O      tau( 153) = (   0.6270029   0.6154737   1.3814513  )
       154        O      tau( 154) = (   0.8992703   0.4545543   1.3717766  )
       155        O      tau( 155) = (   0.6630869   0.0162628   1.6912339  )
       156        O      tau( 156) = (   0.8822397   0.9273982   1.6791779  )
       157        O      tau( 157) = (   0.3793940   0.1173447   1.8413832  )
       158        H      tau( 158) = (   0.4636452   0.1772953   1.8653893  )

     -------------------------------------------------
     Parameters for Dispersion (Grimme-D2) Correction:
     -------------------------------------------------
       atom      VdW radius       C_6     

        Ni         2.952        374.666
        Mn         2.952        374.666
        P          3.222        271.980
        O          2.536         24.284
        H          1.892          4.857

     number of k points=     1  Gaussian smearing, width (Ry)=  0.0100
                       cart. coord. in units 2pi/alat
        k(    1) = (   0.0000000   0.0000000   0.0000000), wk =   1.0000000

     Dense  grid:  1918138 G-vectors     FFT dimensions: ( 125, 135, 432)

     Smooth grid:   485265 G-vectors     FFT dimensions: (  80,  90, 288)

     Estimated max dynamical RAM per process >     320.12 MB

     Estimated total dynamical RAM >      20.01 GB
     Generating pointlists ...
     new r_m :   0.0800 (alat units)  1.4161 (a.u.) for type    1
     new r_m :   0.0869 (alat units)  1.5388 (a.u.) for type    2
     new r_m :   0.0650 (alat units)  1.1499 (a.u.) for type    3
     new r_m :   0.0438 (alat units)  0.7751 (a.u.) for type    4
     new r_m :   0.0438 (alat units)  0.7751 (a.u.) for type    5

     Initial potential from superposition of free atoms

     starting charge    1077.8900, renormalised to    1078.0000

     negative rho (up, down):  1.236E-03 4.538E-04
 
     Adding external electric field

     Computed dipole along edir(3) : 
        Dipole                1.6254 Ry au,          4.1314 Debye
        Dipole field          0.0010 Ry au, 
 
        Potential amp.       -0.1091 Ry
        Total length         54.2615 bohr
 
 
     Adding external electric field

     Computed dipole along edir(3) : 
        Dipole                1.6254 Ry au,          4.1314 Debye
        Dipole field          0.0010 Ry au, 
 
        Potential amp.       -0.1091 Ry
        Total length         54.2615 bohr
 
     Starting wfcs are  812 randomized atomic wfcs

     total cpu time spent up to now is        9.9 secs

     Self-consistent Calculation

     iteration #  1     ecut=    50.00 Ry     beta= 0.10
     Davidson diagonalization with overlap
     ethr =  1.00E-02,  avg # of iterations =  6.0

     negative rho (up, down):  3.305E-01 1.394E-06
 
     Adding external electric field

     Computed dipole along edir(3) : 
        Dipole               -3.5851 Ry au,         -9.1125 Debye
        Dipole field         -0.0022 Ry au, 
 
        Potential amp.        0.2406 Ry
        Total length         54.2615 bohr
 
 
     Adding external electric field

     Computed dipole along edir(3) : 
        Dipole               -3.5851 Ry au,         -9.1125 Debye
        Dipole field         -0.0022 Ry au, 
 
        Potential amp.        0.2406 Ry
        Total length         54.2615 bohr
 

     total cpu time spent up to now is       35.2 secs

     total energy              =   -7178.44490041 Ry
     estimated scf accuracy    <     756.16898418 Ry

     total magnetization       =   216.00 Bohr mag/cell
     absolute magnetization    =   296.80 Bohr mag/cell

     iteration #  2     ecut=    50.00 Ry     beta= 0.10
     Davidson diagonalization with overlap
     ethr =  1.00E-02,  avg # of iterations =  2.0

     negative rho (up, down):  3.143E-01 1.042E-06
 
     Adding external electric field

     Computed dipole along edir(3) : 
        Dipole               -2.3542 Ry au,         -5.9838 Debye
        Dipole field         -0.0015 Ry au, 
 
        Potential amp.        0.1580 Ry
        Total length         54.2615 bohr
 
 
     Adding external electric field

     Computed dipole along edir(3) : 
        Dipole               -2.3542 Ry au,         -5.9838 Debye
        Dipole field         -0.0015 Ry au, 
 
        Potential amp.        0.1580 Ry
        Total length         54.2615 bohr
 

     total cpu time spent up to now is       50.8 secs

     total energy              =   -7261.99091422 Ry
     estimated scf accuracy    <     212.88221257 Ry

     total magnetization       =   150.68 Bohr mag/cell
     absolute magnetization    =   200.28 Bohr mag/cell

     iteration #  3     ecut=    50.00 Ry     beta= 0.10
     Davidson diagonalization with overlap
     ethr =  1.00E-02,  avg # of iterations =  1.5

     negative rho (up, down):  2.774E-01 8.356E-07
 
     Adding external electric field

     Computed dipole along edir(3) : 
        Dipole               -2.0360 Ry au,         -5.1751 Debye
        Dipole field         -0.0013 Ry au, 
 
        Potential amp.        0.1366 Ry
        Total length         54.2615 bohr
 
 
     Adding external electric field

     Computed dipole along edir(3) : 
        Dipole               -2.0360 Ry au,         -5.1751 Debye
        Dipole field         -0.0013 Ry au, 
 
        Potential amp.        0.1366 Ry
        Total length         54.2615 bohr
 

     total cpu time spent up to now is       62.6 secs

     total energy              =   -7292.12788695 Ry
     estimated scf accuracy    <      97.58938569 Ry

     total magnetization       =   125.80 Bohr mag/cell
     absolute magnetization    =   179.51 Bohr mag/cell

     iteration #  4     ecut=    50.00 Ry     beta= 0.10
     Davidson diagonalization with overlap
     ethr =  9.05E-03,  avg # of iterations =  1.5

     negative rho (up, down):  2.061E-01 1.829E-07
 
     Adding external electric field

     Computed dipole along edir(3) : 
        Dipole               -1.9401 Ry au,         -4.9311 Debye
        Dipole field         -0.0012 Ry au, 
 
        Potential amp.        0.1302 Ry
        Total length         54.2615 bohr
 
 
     Adding external electric field

     Computed dipole along edir(3) : 
        Dipole               -1.9401 Ry au,         -4.9311 Debye
        Dipole field         -0.0012 Ry au, 
 
        Potential amp.        0.1302 Ry
        Total length         54.2615 bohr
 

     total cpu time spent up to now is       74.1 secs

     total energy              =   -7327.29592135 Ry
     estimated scf accuracy    <      78.74443875 Ry

     total magnetization       =   111.01 Bohr mag/cell
     absolute magnetization    =   165.33 Bohr mag/cell

     iteration #  5     ecut=    50.00 Ry     beta= 0.10
     Davidson diagonalization with overlap
     ethr =  7.30E-03,  avg # of iterations =  1.5

     negative rho (up, down):  8.790E-03 1.146E-06
 
     Adding external electric field

     Computed dipole along edir(3) : 
        Dipole               -1.5078 Ry au,         -3.8326 Debye
        Dipole field         -0.0009 Ry au, 
 
        Potential amp.        0.1012 Ry
        Total length         54.2615 bohr
 
 
     Adding external electric field

     Computed dipole along edir(3) : 
        Dipole               -1.5078 Ry au,         -3.8326 Debye
        Dipole field         -0.0009 Ry au, 
 
        Potential amp.        0.1012 Ry
        Total length         54.2615 bohr
 

     total cpu time spent up to now is       85.6 secs

     total energy              =   -7386.07745382 Ry
     estimated scf accuracy    <      60.79316313 Ry

     total magnetization       =    88.01 Bohr mag/cell
     absolute magnetization    =   145.89 Bohr mag/cell

     iteration #  6     ecut=    50.00 Ry     beta= 0.10
     Davidson diagonalization with overlap
     ethr =  5.64E-03,  avg # of iterations =  1.5

     negative rho (up, down):  3.590E-04 4.597E-04
 
     Adding external electric field

     Computed dipole along edir(3) : 
        Dipole               -1.1993 Ry au,         -3.0484 Debye
        Dipole field         -0.0007 Ry au, 
 
        Potential amp.        0.0805 Ry
        Total length         54.2615 bohr
 
 
     Adding external electric field

     Computed dipole along edir(3) : 
        Dipole               -1.1993 Ry au,         -3.0484 Debye
        Dipole field         -0.0007 Ry au, 
 
        Potential amp.        0.0805 Ry
        Total length         54.2615 bohr
 

     total cpu time spent up to now is       99.0 secs

     total energy              =   -7395.45927749 Ry
     estimated scf accuracy    <       9.91905862 Ry

     total magnetization       =    81.94 Bohr mag/cell
     absolute magnetization    =   115.59 Bohr mag/cell

     iteration #  7     ecut=    50.00 Ry     beta= 0.10
     Davidson diagonalization with overlap
     ethr =  9.20E-04,  avg # of iterations =  6.5

     negative rho (up, down):  3.472E-04 4.541E-04
 
     Adding external electric field

     Computed dipole along edir(3) : 
        Dipole               -1.1920 Ry au,         -3.0297 Debye
        Dipole field         -0.0007 Ry au, 
 
        Potential amp.        0.0800 Ry
        Total length         54.2615 bohr
 
 
     Adding external electric field

     Computed dipole along edir(3) : 
        Dipole               -1.1920 Ry au,         -3.0297 Debye
        Dipole field         -0.0007 Ry au, 
 
        Potential amp.        0.0800 Ry
        Total length         54.2615 bohr
 

     total cpu time spent up to now is      121.8 secs

     total energy              =   -7397.64405752 Ry
     estimated scf accuracy    <      11.62250656 Ry

     total magnetization       =    71.05 Bohr mag/cell
     absolute magnetization    =    88.48 Bohr mag/cell

     iteration #  8     ecut=    50.00 Ry     beta= 0.10
     Davidson diagonalization with overlap
     ethr =  9.20E-04,  avg # of iterations =  1.0

     negative rho (up, down):  3.089E-04 4.042E-04
 
     Adding external electric field

     Computed dipole along edir(3) : 
        Dipole               -1.1665 Ry au,         -2.9649 Debye
        Dipole field         -0.0007 Ry au, 
 
        Potential amp.        0.0783 Ry
        Total length         54.2615 bohr
 
 
     Adding external electric field

     Computed dipole along edir(3) : 
        Dipole               -1.1665 Ry au,         -2.9649 Debye
        Dipole field         -0.0007 Ry au, 
 
        Potential amp.        0.0783 Ry
        Total length         54.2615 bohr
 

     total cpu time spent up to now is      132.5 secs

     total energy              =   -7397.63951952 Ry
     estimated scf accuracy    <      11.08526714 Ry

     total magnetization       =    71.31 Bohr mag/cell
     absolute magnetization    =    88.31 Bohr mag/cell

     iteration #  9     ecut=    50.00 Ry     beta= 0.10
     Davidson diagonalization with overlap
     ethr =  9.20E-04,  avg # of iterations =  1.0

     negative rho (up, down):  6.052E-05 1.795E-04
 
     Adding external electric field

     Computed dipole along edir(3) : 
        Dipole               -0.9196 Ry au,         -2.3374 Debye
        Dipole field         -0.0006 Ry au, 
 
        Potential amp.        0.0617 Ry
        Total length         54.2615 bohr
 
 
     Adding external electric field

     Computed dipole along edir(3) : 
        Dipole               -0.9196 Ry au,         -2.3374 Debye
        Dipole field         -0.0006 Ry au, 
 
        Potential amp.        0.0617 Ry
        Total length         54.2615 bohr
 

     total cpu time spent up to now is      143.7 secs

     total energy              =   -7397.49949463 Ry
     estimated scf accuracy    <       9.83053800 Ry

     total magnetization       =    71.86 Bohr mag/cell
     absolute magnetization    =    88.29 Bohr mag/cell

     iteration # 10     ecut=    50.00 Ry     beta= 0.10
     Davidson diagonalization with overlap
     ethr =  9.12E-04,  avg # of iterations =  1.0

     negative rho (up, down):  4.798E-05 2.052E-04
 
     Adding external electric field

     Computed dipole along edir(3) : 
        Dipole               -0.9384 Ry au,         -2.3852 Debye
        Dipole field         -0.0006 Ry au, 
 
        Potential amp.        0.0630 Ry
        Total length         54.2615 bohr
 
 
     Adding external electric field

     Computed dipole along edir(3) : 
        Dipole               -0.9384 Ry au,         -2.3852 Debye
        Dipole field         -0.0006 Ry au, 
 
        Potential amp.        0.0630 Ry
        Total length         54.2615 bohr
 

     total cpu time spent up to now is      154.0 secs

     total energy              =   -7397.66355739 Ry
     estimated scf accuracy    <       5.52601341 Ry

     total magnetization       =    75.08 Bohr mag/cell
     absolute magnetization    =    87.42 Bohr mag/cell

     iteration # 11     ecut=    50.00 Ry     beta= 0.10
     Davidson diagonalization with overlap
     ethr =  5.13E-04,  avg # of iterations =  1.5

     negative rho (up, down):  3.467E-05 2.148E-04
 
     Adding external electric field

     Computed dipole along edir(3) : 
        Dipole               -0.9220 Ry au,         -2.3436 Debye
        Dipole field         -0.0006 Ry au, 
 
        Potential amp.        0.0619 Ry
        Total length         54.2615 bohr
 
 
     Adding external electric field

     Computed dipole along edir(3) : 
        Dipole               -0.9220 Ry au,         -2.3436 Debye
        Dipole field         -0.0006 Ry au, 
 
        Potential amp.        0.0619 Ry
        Total length         54.2615 bohr
 

     total cpu time spent up to now is      166.3 secs

     total energy              =   -7397.68070055 Ry
     estimated scf accuracy    <       3.69230082 Ry

     total magnetization       =    76.15 Bohr mag/cell
     absolute magnetization    =    87.37 Bohr mag/cell

     iteration # 12     ecut=    50.00 Ry     beta= 0.10
     Davidson diagonalization with overlap
     ethr =  3.43E-04,  avg # of iterations =  1.0

     negative rho (up, down):  2.170E-05 3.263E-04
 
     Adding external electric field

     Computed dipole along edir(3) : 
        Dipole               -0.9391 Ry au,         -2.3869 Debye
        Dipole field         -0.0006 Ry au, 
 
        Potential amp.        0.0630 Ry
        Total length         54.2615 bohr
 
 
     Adding external electric field

     Computed dipole along edir(3) : 
        Dipole               -0.9391 Ry au,         -2.3869 Debye
        Dipole field         -0.0006 Ry au, 
 
        Potential amp.        0.0630 Ry
        Total length         54.2615 bohr
 

     total cpu time spent up to now is      178.6 secs

     total energy              =   -7397.71808921 Ry
     estimated scf accuracy    <       2.44485281 Ry

     total magnetization       =    77.18 Bohr mag/cell
     absolute magnetization    =    87.30 Bohr mag/cell

     iteration # 13     ecut=    50.00 Ry     beta= 0.10
     Davidson diagonalization with overlap
     ethr =  2.27E-04,  avg # of iterations =  1.5

     negative rho (up, down):  2.058E-04 8.402E-04
 
     Adding external electric field

     Computed dipole along edir(3) : 
        Dipole               -1.0131 Ry au,         -2.5752 Debye
        Dipole field         -0.0006 Ry au, 
 
        Potential amp.        0.0680 Ry
        Total length         54.2615 bohr
 
 
     Adding external electric field

     Computed dipole along edir(3) : 
        Dipole               -1.0131 Ry au,         -2.5752 Debye
        Dipole field         -0.0006 Ry au, 
 
        Potential amp.        0.0680 Ry
        Total length         54.2615 bohr
 

     total cpu time spent up to now is      191.8 secs

     total energy              =   -7397.87686316 Ry
     estimated scf accuracy    <       1.12702402 Ry

     total magnetization       =    78.60 Bohr mag/cell
     absolute magnetization    =    86.84 Bohr mag/cell

     iteration # 14     ecut=    50.00 Ry     beta= 0.10
     Davidson diagonalization with overlap
     ethr =  1.05E-04,  avg # of iterations = 12.0

     negative rho (up, down):  2.682E-05 5.811E-04
 
     Adding external electric field

     Computed dipole along edir(3) : 
        Dipole               -0.9624 Ry au,         -2.4462 Debye
        Dipole field         -0.0006 Ry au, 
 
        Potential amp.        0.0646 Ry
        Total length         54.2615 bohr
 
 
     Adding external electric field

     Computed dipole along edir(3) : 
        Dipole               -0.9624 Ry au,         -2.4462 Debye
        Dipole field         -0.0006 Ry au, 
 
        Potential amp.        0.0646 Ry
        Total length         54.2615 bohr
 

     total cpu time spent up to now is      218.5 secs

     total energy              =   -7397.88323800 Ry
     estimated scf accuracy    <       0.62120332 Ry

     total magnetization       =    81.72 Bohr mag/cell
     absolute magnetization    =    86.35 Bohr mag/cell

     iteration # 15     ecut=    50.00 Ry     beta= 0.10
     Davidson diagonalization with overlap
     ethr =  5.76E-05,  avg # of iterations =  1.5

     negative rho (up, down):  9.596E-06 2.167E-04
 
     Adding external electric field

     Computed dipole along edir(3) : 
        Dipole               -0.9664 Ry au,         -2.4563 Debye
        Dipole field         -0.0006 Ry au, 
 
        Potential amp.        0.0649 Ry
        Total length         54.2615 bohr
 
 
     Adding external electric field

     Computed dipole along edir(3) : 
        Dipole               -0.9664 Ry au,         -2.4563 Debye
        Dipole field         -0.0006 Ry au, 
 
        Potential amp.        0.0649 Ry
        Total length         54.2615 bohr
 

     total cpu time spent up to now is      231.5 secs

     total energy              =   -7397.91870332 Ry
     estimated scf accuracy    <       0.43300665 Ry

     total magnetization       =    81.03 Bohr mag/cell
     absolute magnetization    =    85.98 Bohr mag/cell

     iteration # 16     ecut=    50.00 Ry     beta= 0.10
     Davidson diagonalization with overlap
     ethr =  4.02E-05,  avg # of iterations =  2.0

     negative rho (up, down):  1.627E-04 2.545E-04
 
     Adding external electric field

     Computed dipole along edir(3) : 
        Dipole               -1.0318 Ry au,         -2.6226 Debye
        Dipole field         -0.0006 Ry au, 
 
        Potential amp.        0.0692 Ry
        Total length         54.2615 bohr
 
 
     Adding external electric field

     Computed dipole along edir(3) : 
        Dipole               -1.0318 Ry au,         -2.6226 Debye
        Dipole field         -0.0006 Ry au, 
 
        Potential amp.        0.0692 Ry
        Total length         54.2615 bohr
 

     total cpu time spent up to now is      245.0 secs

     total energy              =   -7398.00125374 Ry
     estimated scf accuracy    <       0.49208802 Ry

     total magnetization       =    79.75 Bohr mag/cell
     absolute magnetization    =    84.66 Bohr mag/cell

     iteration # 17     ecut=    50.00 Ry     beta= 0.10
     Davidson diagonalization with overlap
     ethr =  4.02E-05,  avg # of iterations =  1.5

     negative rho (up, down):  5.598E-05 4.751E-05
 
     Adding external electric field

     Computed dipole along edir(3) : 
        Dipole               -0.9999 Ry au,         -2.5416 Debye
        Dipole field         -0.0006 Ry au, 
 
        Potential amp.        0.0671 Ry
        Total length         54.2615 bohr
 
 
     Adding external electric field

     Computed dipole along edir(3) : 
        Dipole               -0.9999 Ry au,         -2.5416 Debye
        Dipole field         -0.0006 Ry au, 
 
        Potential amp.        0.0671 Ry
        Total length         54.2615 bohr
 

     total cpu time spent up to now is      257.9 secs

     total energy              =   -7398.02188741 Ry
     estimated scf accuracy    <       0.22718892 Ry

     total magnetization       =    81.10 Bohr mag/cell
     absolute magnetization    =    84.43 Bohr mag/cell

     iteration # 18     ecut=    50.00 Ry     beta= 0.10
     Davidson diagonalization with overlap
     ethr =  2.11E-05,  avg # of iterations =  2.0

     negative rho (up, down):  6.780E-05 1.532E-05
 
     Adding external electric field

     Computed dipole along edir(3) : 
        Dipole               -0.9803 Ry au,         -2.4916 Debye
        Dipole field         -0.0006 Ry au, 
 
        Potential amp.        0.0658 Ry
        Total length         54.2615 bohr
 
 
     Adding external electric field

     Computed dipole along edir(3) : 
        Dipole               -0.9803 Ry au,         -2.4916 Debye
        Dipole field         -0.0006 Ry au, 
 
        Potential amp.        0.0658 Ry
        Total length         54.2615 bohr
 

     total cpu time spent up to now is      271.1 secs

     total energy              =   -7398.03018604 Ry
     estimated scf accuracy    <       0.10998716 Ry

     total magnetization       =    80.43 Bohr mag/cell
     absolute magnetization    =    83.25 Bohr mag/cell

     iteration # 19     ecut=    50.00 Ry     beta= 0.10
     Davidson diagonalization with overlap
     ethr =  1.02E-05,  avg # of iterations =  3.0

     negative rho (up, down):  4.429E-05 3.221E-06
 
     Adding external electric field

     Computed dipole along edir(3) : 
        Dipole               -0.8991 Ry au,         -2.2853 Debye
        Dipole field         -0.0006 Ry au, 
 
        Potential amp.        0.0603 Ry
        Total length         54.2615 bohr
 
 
     Adding external electric field

     Computed dipole along edir(3) : 
        Dipole               -0.8991 Ry au,         -2.2853 Debye
        Dipole field         -0.0006 Ry au, 
 
        Potential amp.        0.0603 Ry
        Total length         54.2615 bohr
 

     total cpu time spent up to now is      286.0 secs

     total energy              =   -7398.02898162 Ry
     estimated scf accuracy    <       0.05157056 Ry

     total magnetization       =    80.74 Bohr mag/cell
     absolute magnetization    =    83.15 Bohr mag/cell

     iteration # 20     ecut=    50.00 Ry     beta= 0.10
     Davidson diagonalization with overlap
     c_bands:  1 eigenvalues not converged
     ethr =  4.78E-06,  avg # of iterations = 19.5

     negative rho (up, down):  2.794E-05 5.325E-06
 
     Adding external electric field

     Computed dipole along edir(3) : 
        Dipole               -0.8703 Ry au,         -2.2122 Debye
        Dipole field         -0.0005 Ry au, 
 
        Potential amp.        0.0584 Ry
        Total length         54.2615 bohr
 
 
     Adding external electric field

     Computed dipole along edir(3) : 
        Dipole               -0.8703 Ry au,         -2.2122 Debye
        Dipole field         -0.0005 Ry au, 
 
        Potential amp.        0.0584 Ry
        Total length         54.2615 bohr
 

     total cpu time spent up to now is      325.5 secs

     total energy              =   -7398.03856243 Ry
     estimated scf accuracy    <       0.07414466 Ry

     total magnetization       =    79.96 Bohr mag/cell
     absolute magnetization    =    81.70 Bohr mag/cell

     iteration # 21     ecut=    50.00 Ry     beta= 0.10
     Davidson diagonalization with overlap
     ethr =  4.78E-06,  avg # of iterations =  1.5

     negative rho (up, down):  3.730E-05 5.545E-06
 
     Adding external electric field

     Computed dipole along edir(3) : 
        Dipole               -0.8702 Ry au,         -2.2118 Debye
        Dipole field         -0.0005 Ry au, 
 
        Potential amp.        0.0584 Ry
        Total length         54.2615 bohr
 
 
     Adding external electric field

     Computed dipole along edir(3) : 
        Dipole               -0.8702 Ry au,         -2.2118 Debye
        Dipole field         -0.0005 Ry au, 
 
        Potential amp.        0.0584 Ry
        Total length         54.2615 bohr
 

     total cpu time spent up to now is      338.0 secs

     total energy              =   -7398.03905716 Ry
     estimated scf accuracy    <       0.04974061 Ry

     total magnetization       =    80.31 Bohr mag/cell
     absolute magnetization    =    81.89 Bohr mag/cell

     iteration # 22     ecut=    50.00 Ry     beta= 0.10
     Davidson diagonalization with overlap
     ethr =  4.61E-06,  avg # of iterations =  1.0

     negative rho (up, down):  1.801E-05 1.488E-06
 
     Adding external electric field

     Computed dipole along edir(3) : 
        Dipole               -0.8205 Ry au,         -2.0856 Debye
        Dipole field         -0.0005 Ry au, 
 
        Potential amp.        0.0551 Ry
        Total length         54.2615 bohr
 
 
     Adding external electric field

     Computed dipole along edir(3) : 
        Dipole               -0.8205 Ry au,         -2.0856 Debye
        Dipole field         -0.0005 Ry au, 
 
        Potential amp.        0.0551 Ry
        Total length         54.2615 bohr
 

     total cpu time spent up to now is      349.5 secs

     total energy              =   -7398.03924993 Ry
     estimated scf accuracy    <       0.03995269 Ry

     total magnetization       =    80.46 Bohr mag/cell
     absolute magnetization    =    81.99 Bohr mag/cell

     iteration # 23     ecut=    50.00 Ry     beta= 0.10
     Davidson diagonalization with overlap
     ethr =  3.71E-06,  avg # of iterations =  1.0

     negative rho (up, down):  8.787E-06 6.583E-07
 
     Adding external electric field

     Computed dipole along edir(3) : 
        Dipole               -0.8052 Ry au,         -2.0466 Debye
        Dipole field         -0.0005 Ry au, 
 
        Potential amp.        0.0540 Ry
        Total length         54.2615 bohr
 
 
     Adding external electric field

     Computed dipole along edir(3) : 
        Dipole               -0.8052 Ry au,         -2.0466 Debye
        Dipole field         -0.0005 Ry au, 
 
        Potential amp.        0.0540 Ry
        Total length         54.2615 bohr
 

     total cpu time spent up to now is      361.5 secs

     total energy              =   -7398.03865746 Ry
     estimated scf accuracy    <       0.05110680 Ry

     total magnetization       =    80.62 Bohr mag/cell
     absolute magnetization    =    82.13 Bohr mag/cell

     iteration # 24     ecut=    50.00 Ry     beta= 0.10
     Davidson diagonalization with overlap
     ethr =  3.71E-06,  avg # of iterations =  1.5

     negative rho (up, down):  3.043E-05 3.863E-07
 
     Adding external electric field

     Computed dipole along edir(3) : 
        Dipole               -0.8200 Ry au,         -2.0842 Debye
        Dipole field         -0.0005 Ry au, 
 
        Potential amp.        0.0550 Ry
        Total length         54.2615 bohr
 
 
     Adding external electric field

     Computed dipole along edir(3) : 
        Dipole               -0.8200 Ry au,         -2.0842 Debye
        Dipole field         -0.0005 Ry au, 
 
        Potential amp.        0.0550 Ry
        Total length         54.2615 bohr
 

     total cpu time spent up to now is      373.8 secs

     total energy              =   -7398.03402939 Ry
     estimated scf accuracy    <       0.09763355 Ry

     total magnetization       =    80.10 Bohr mag/cell
     absolute magnetization    =    81.71 Bohr mag/cell

     iteration # 25     ecut=    50.00 Ry     beta= 0.10
     Davidson diagonalization with overlap
     ethr =  3.71E-06,  avg # of iterations =  1.0

     negative rho (up, down):  3.842E-05 1.091E-05
 
     Adding external electric field

     Computed dipole along edir(3) : 
        Dipole               -0.8022 Ry au,         -2.0390 Debye
        Dipole field         -0.0005 Ry au, 
 
        Potential amp.        0.0538 Ry
        Total length         54.2615 bohr
 
 
     Adding external electric field

     Computed dipole along edir(3) : 
        Dipole               -0.8022 Ry au,         -2.0390 Debye
        Dipole field         -0.0005 Ry au, 
 
        Potential amp.        0.0538 Ry
        Total length         54.2615 bohr
 

     total cpu time spent up to now is      385.5 secs

     total energy              =   -7398.03908945 Ry
     estimated scf accuracy    <       0.04477917 Ry

     total magnetization       =    80.49 Bohr mag/cell
     absolute magnetization    =    82.03 Bohr mag/cell

     iteration # 26     ecut=    50.00 Ry     beta= 0.10
     Davidson diagonalization with overlap
     ethr =  3.71E-06,  avg # of iterations =  1.0

     negative rho (up, down):  5.167E-05 1.968E-05
 
     Adding external electric field

     Computed dipole along edir(3) : 
        Dipole               -0.7696 Ry au,         -1.9561 Debye
        Dipole field         -0.0005 Ry au, 
 
        Potential amp.        0.0516 Ry
        Total length         54.2615 bohr
 
 
     Adding external electric field

     Computed dipole along edir(3) : 
        Dipole               -0.7696 Ry au,         -1.9561 Debye
        Dipole field         -0.0005 Ry au, 
 
        Potential amp.        0.0516 Ry
        Total length         54.2615 bohr
 

     total cpu time spent up to now is      397.9 secs

     total energy              =   -7398.03910284 Ry
     estimated scf accuracy    <       0.03569884 Ry

     total magnetization       =    80.38 Bohr mag/cell
     absolute magnetization    =    81.83 Bohr mag/cell

     iteration # 27     ecut=    50.00 Ry     beta= 0.10
     Davidson diagonalization with overlap
     ethr =  3.31E-06,  avg # of iterations =  1.0

     negative rho (up, down):  5.670E-05 2.162E-05
 
     Adding external electric field

     Computed dipole along edir(3) : 
        Dipole               -0.7723 Ry au,         -1.9630 Debye
        Dipole field         -0.0005 Ry au, 
 
        Potential amp.        0.0518 Ry
        Total length         54.2615 bohr
 
 
     Adding external electric field

     Computed dipole along edir(3) : 
        Dipole               -0.7723 Ry au,         -1.9630 Debye
        Dipole field         -0.0005 Ry au, 
 
        Potential amp.        0.0518 Ry
        Total length         54.2615 bohr
 

     total cpu time spent up to now is      409.5 secs

     total energy              =   -7398.03926454 Ry
     estimated scf accuracy    <       0.02568464 Ry

     total magnetization       =    80.45 Bohr mag/cell
     absolute magnetization    =    81.89 Bohr mag/cell

     iteration # 28     ecut=    50.00 Ry     beta= 0.10
     Davidson diagonalization with overlap
     ethr =  2.38E-06,  avg # of iterations =  1.0

     negative rho (up, down):  8.051E-05 3.224E-05
 
     Adding external electric field

     Computed dipole along edir(3) : 
        Dipole               -0.7712 Ry au,         -1.9601 Debye
        Dipole field         -0.0005 Ry au, 
 
        Potential amp.        0.0518 Ry
        Total length         54.2615 bohr
 
 
     Adding external electric field

     Computed dipole along edir(3) : 
        Dipole               -0.7712 Ry au,         -1.9601 Debye
        Dipole field         -0.0005 Ry au, 
 
        Potential amp.        0.0518 Ry
        Total length         54.2615 bohr
 

     total cpu time spent up to now is      421.0 secs

     total energy              =   -7398.03883148 Ry
     estimated scf accuracy    <       0.02523570 Ry

     total magnetization       =    80.44 Bohr mag/cell
     absolute magnetization    =    81.88 Bohr mag/cell

     iteration # 29     ecut=    50.00 Ry     beta= 0.10
     Davidson diagonalization with overlap
     ethr =  2.34E-06,  avg # of iterations =  1.0

     negative rho (up, down):  6.845E-05 3.198E-05
 
     Adding external electric field

     Computed dipole along edir(3) : 
        Dipole               -0.7762 Ry au,         -1.9728 Debye
        Dipole field         -0.0005 Ry au, 
 
        Potential amp.        0.0521 Ry
        Total length         54.2615 bohr
 
 
     Adding external electric field

     Computed dipole along edir(3) : 
        Dipole               -0.7762 Ry au,         -1.9728 Debye
        Dipole field         -0.0005 Ry au, 
 
        Potential amp.        0.0521 Ry
        Total length         54.2615 bohr
 

     total cpu time spent up to now is      432.9 secs

     total energy              =   -7398.03948178 Ry
     estimated scf accuracy    <       0.02539480 Ry

     total magnetization       =    80.44 Bohr mag/cell
     absolute magnetization    =    81.83 Bohr mag/cell

     iteration # 30     ecut=    50.00 Ry     beta= 0.10
     Davidson diagonalization with overlap
     ethr =  2.34E-06,  avg # of iterations =  1.0

     negative rho (up, down):  8.157E-05 4.404E-05
 
     Adding external electric field

     Computed dipole along edir(3) : 
        Dipole               -0.7841 Ry au,         -1.9930 Debye
        Dipole field         -0.0005 Ry au, 
 
        Potential amp.        0.0526 Ry
        Total length         54.2615 bohr
 
 
     Adding external electric field

     Computed dipole along edir(3) : 
        Dipole               -0.7841 Ry au,         -1.9930 Debye
        Dipole field         -0.0005 Ry au, 
 
        Potential amp.        0.0526 Ry
        Total length         54.2615 bohr
 

     total cpu time spent up to now is      444.8 secs

     total energy              =   -7398.03967390 Ry
     estimated scf accuracy    <       0.02520761 Ry

     total magnetization       =    80.43 Bohr mag/cell
     absolute magnetization    =    81.87 Bohr mag/cell

     iteration # 31     ecut=    50.00 Ry     beta= 0.10
     Davidson diagonalization with overlap
     ethr =  2.34E-06,  avg # of iterations =  1.0

     negative rho (up, down):  8.240E-05 4.756E-05
 
     Adding external electric field

     Computed dipole along edir(3) : 
        Dipole               -0.7931 Ry au,         -2.0158 Debye
        Dipole field         -0.0005 Ry au, 
 
        Potential amp.        0.0532 Ry
        Total length         54.2615 bohr
 
 
     Adding external electric field

     Computed dipole along edir(3) : 
        Dipole               -0.7931 Ry au,         -2.0158 Debye
        Dipole field         -0.0005 Ry au, 
 
        Potential amp.        0.0532 Ry
        Total length         54.2615 bohr
 

     total cpu time spent up to now is      456.7 secs

     total energy              =   -7398.03984794 Ry
     estimated scf accuracy    <       0.02586626 Ry

     total magnetization       =    80.46 Bohr mag/cell
     absolute magnetization    =    81.91 Bohr mag/cell

     iteration # 32     ecut=    50.00 Ry     beta= 0.10
     Davidson diagonalization with overlap
     ethr =  2.34E-06,  avg # of iterations =  1.0

     negative rho (up, down):  9.774E-05 3.720E-05
 
     Adding external electric field

     Computed dipole along edir(3) : 
        Dipole               -0.7583 Ry au,         -1.9273 Debye
        Dipole field         -0.0005 Ry au, 
 
        Potential amp.        0.0509 Ry
        Total length         54.2615 bohr
 
 
     Adding external electric field

     Computed dipole along edir(3) : 
        Dipole               -0.7583 Ry au,         -1.9273 Debye
        Dipole field         -0.0005 Ry au, 
 
        Potential amp.        0.0509 Ry
        Total length         54.2615 bohr
 

     total cpu time spent up to now is      468.9 secs

     total energy              =   -7398.03879124 Ry
     estimated scf accuracy    <       0.02564584 Ry

     total magnetization       =    80.46 Bohr mag/cell
     absolute magnetization    =    81.90 Bohr mag/cell

     iteration # 33     ecut=    50.00 Ry     beta= 0.10
     Davidson diagonalization with overlap
     ethr =  2.34E-06,  avg # of iterations =  1.0

     negative rho (up, down):  7.324E-05 3.406E-05
 
     Adding external electric field

     Computed dipole along edir(3) : 
        Dipole               -0.7304 Ry au,         -1.8565 Debye
        Dipole field         -0.0005 Ry au, 
 
        Potential amp.        0.0490 Ry
        Total length         54.2615 bohr
 
 
     Adding external electric field

     Computed dipole along edir(3) : 
        Dipole               -0.7304 Ry au,         -1.8565 Debye
        Dipole field         -0.0005 Ry au, 
 
        Potential amp.        0.0490 Ry
        Total length         54.2615 bohr
 

     total cpu time spent up to now is      481.9 secs

     total energy              =   -7398.03915220 Ry
     estimated scf accuracy    <       0.02492297 Ry

     total magnetization       =    80.48 Bohr mag/cell
     absolute magnetization    =    81.92 Bohr mag/cell

     iteration # 34     ecut=    50.00 Ry     beta= 0.10
     Davidson diagonalization with overlap
     ethr =  2.31E-06,  avg # of iterations =  1.0

     negative rho (up, down):  7.096E-05 1.141E-05
 
     Adding external electric field

     Computed dipole along edir(3) : 
        Dipole               -0.7432 Ry au,         -1.8891 Debye
        Dipole field         -0.0005 Ry au, 
 
        Potential amp.        0.0499 Ry
        Total length         54.2615 bohr
 
 
     Adding external electric field

     Computed dipole along edir(3) : 
        Dipole               -0.7432 Ry au,         -1.8891 Debye
        Dipole field         -0.0005 Ry au, 
 
        Potential amp.        0.0499 Ry
        Total length         54.2615 bohr
 

     total cpu time spent up to now is      493.6 secs

     total energy              =   -7398.03767445 Ry
     estimated scf accuracy    <       0.02618331 Ry

     total magnetization       =    80.45 Bohr mag/cell
     absolute magnetization    =    81.90 Bohr mag/cell

     iteration # 35     ecut=    50.00 Ry     beta= 0.10
     Davidson diagonalization with overlap
     ethr =  2.31E-06,  avg # of iterations =  1.0

     negative rho (up, down):  7.131E-05 5.074E-05
 
     Adding external electric field

     Computed dipole along edir(3) : 
        Dipole               -0.7430 Ry au,         -1.8885 Debye
        Dipole field         -0.0005 Ry au, 
 
        Potential amp.        0.0499 Ry
        Total length         54.2615 bohr
 
 
     Adding external electric field

     Computed dipole along edir(3) : 
        Dipole               -0.7430 Ry au,         -1.8885 Debye
        Dipole field         -0.0005 Ry au, 
 
        Potential amp.        0.0499 Ry
        Total length         54.2615 bohr
 

     total cpu time spent up to now is      505.2 secs

     total energy              =   -7398.03941870 Ry
     estimated scf accuracy    <       0.02743549 Ry

     total magnetization       =    80.47 Bohr mag/cell
     absolute magnetization    =    81.94 Bohr mag/cell

     iteration # 36     ecut=    50.00 Ry     beta= 0.10
     Davidson diagonalization with overlap
     ethr =  2.31E-06,  avg # of iterations =  1.0

     negative rho (up, down):  9.789E-05 8.260E-05
 
     Adding external electric field

     Computed dipole along edir(3) : 
        Dipole               -0.7356 Ry au,         -1.8698 Debye
        Dipole field         -0.0005 Ry au, 
 
        Potential amp.        0.0494 Ry
        Total length         54.2615 bohr
 
 
     Adding external electric field

     Computed dipole along edir(3) : 
        Dipole               -0.7356 Ry au,         -1.8698 Debye
        Dipole field         -0.0005 Ry au, 
 
        Potential amp.        0.0494 Ry
        Total length         54.2615 bohr
 

     total cpu time spent up to now is      517.1 secs

     total energy              =   -7398.03951251 Ry
     estimated scf accuracy    <       0.02418339 Ry

     total magnetization       =    80.47 Bohr mag/cell
     absolute magnetization    =    81.92 Bohr mag/cell

     iteration # 37     ecut=    50.00 Ry     beta= 0.10
     Davidson diagonalization with overlap
     ethr =  2.24E-06,  avg # of iterations =  1.0

     negative rho (up, down):  1.079E-04 9.583E-05
 
     Adding external electric field

     Computed dipole along edir(3) : 
        Dipole               -0.7398 Ry au,         -1.8804 Debye
        Dipole field         -0.0005 Ry au, 
 
        Potential amp.        0.0497 Ry
        Total length         54.2615 bohr
 
 
     Adding external electric field

     Computed dipole along edir(3) : 
        Dipole               -0.7398 Ry au,         -1.8804 Debye
        Dipole field         -0.0005 Ry au, 
 
        Potential amp.        0.0497 Ry
        Total length         54.2615 bohr
 

     total cpu time spent up to now is      529.0 secs

     total energy              =   -7398.03957697 Ry
     estimated scf accuracy    <       0.02298972 Ry

     total magnetization       =    80.48 Bohr mag/cell
     absolute magnetization    =    81.94 Bohr mag/cell

     iteration # 38     ecut=    50.00 Ry     beta= 0.10
     Davidson diagonalization with overlap
     ethr =  2.13E-06,  avg # of iterations =  1.0

     negative rho (up, down):  9.636E-05 7.886E-05
 
     Adding external electric field

     Computed dipole along edir(3) : 
        Dipole               -0.7385 Ry au,         -1.8770 Debye
        Dipole field         -0.0005 Ry au, 
 
        Potential amp.        0.0496 Ry
        Total length         54.2615 bohr
 
 
     Adding external electric field

     Computed dipole along edir(3) : 
        Dipole               -0.7385 Ry au,         -1.8770 Debye
        Dipole field         -0.0005 Ry au, 
 
        Potential amp.        0.0496 Ry
        Total length         54.2615 bohr
 

     total cpu time spent up to now is      540.7 secs

     total energy              =   -7398.03945589 Ry
     estimated scf accuracy    <       0.02327145 Ry

     total magnetization       =    80.46 Bohr mag/cell
     absolute magnetization    =    81.91 Bohr mag/cell

     iteration # 39     ecut=    50.00 Ry     beta= 0.10
     Davidson diagonalization with overlap
     ethr =  2.13E-06,  avg # of iterations =  1.0

     negative rho (up, down):  1.074E-04 9.494E-05
 
     Adding external electric field

     Computed dipole along edir(3) : 
        Dipole               -0.7555 Ry au,         -1.9202 Debye
        Dipole field         -0.0005 Ry au, 
 
        Potential amp.        0.0507 Ry
        Total length         54.2615 bohr
 
 
     Adding external electric field

     Computed dipole along edir(3) : 
        Dipole               -0.7555 Ry au,         -1.9202 Debye
        Dipole field         -0.0005 Ry au, 
 
        Potential amp.        0.0507 Ry
        Total length         54.2615 bohr
 

     total cpu time spent up to now is      552.9 secs

     total energy              =   -7398.03967741 Ry
     estimated scf accuracy    <       0.02302820 Ry

     total magnetization       =    80.48 Bohr mag/cell
     absolute magnetization    =    81.91 Bohr mag/cell

     iteration # 40     ecut=    50.00 Ry     beta= 0.10
     Davidson diagonalization with overlap
     ethr =  2.13E-06,  avg # of iterations =  1.0

     negative rho (up, down):  2.131E-04 1.622E-04
 
     Adding external electric field

     Computed dipole along edir(3) : 
        Dipole               -0.7489 Ry au,         -1.9035 Debye
        Dipole field         -0.0005 Ry au, 
 
        Potential amp.        0.0503 Ry
        Total length         54.2615 bohr
 
 
     Adding external electric field

     Computed dipole along edir(3) : 
        Dipole               -0.7489 Ry au,         -1.9035 Debye
        Dipole field         -0.0005 Ry au, 
 
        Potential amp.        0.0503 Ry
        Total length         54.2615 bohr
 

     total cpu time spent up to now is      564.0 secs

     total energy              =   -7398.03924302 Ry
     estimated scf accuracy    <       0.02240224 Ry

     total magnetization       =    80.49 Bohr mag/cell
     absolute magnetization    =    81.99 Bohr mag/cell

     iteration # 41     ecut=    50.00 Ry     beta= 0.10
     Davidson diagonalization with overlap
     ethr =  2.08E-06,  avg # of iterations =  1.0

     negative rho (up, down):  3.629E-05 3.979E-05
 
     Adding external electric field

     Computed dipole along edir(3) : 
        Dipole               -0.7969 Ry au,         -2.0256 Debye
        Dipole field         -0.0005 Ry au, 
 
        Potential amp.        0.0535 Ry
        Total length         54.2615 bohr
 
 
     Adding external electric field

     Computed dipole along edir(3) : 
        Dipole               -0.7969 Ry au,         -2.0256 Debye
        Dipole field         -0.0005 Ry au, 
 
        Potential amp.        0.0535 Ry
        Total length         54.2615 bohr
 

     total cpu time spent up to now is      575.5 secs

     total energy              =   -7398.04017720 Ry
     estimated scf accuracy    <       0.02387530 Ry

     total magnetization       =    80.54 Bohr mag/cell
     absolute magnetization    =    82.01 Bohr mag/cell

     iteration # 42     ecut=    50.00 Ry     beta= 0.10
     Davidson diagonalization with overlap
     ethr =  2.08E-06,  avg # of iterations =  1.5

     negative rho (up, down):  2.322E-04 1.874E-04
 
     Adding external electric field

     Computed dipole along edir(3) : 
        Dipole               -0.6982 Ry au,         -1.7746 Debye
        Dipole field         -0.0004 Ry au, 
 
        Potential amp.        0.0469 Ry
        Total length         54.2615 bohr
 
 
     Adding external electric field

     Computed dipole along edir(3) : 
        Dipole               -0.6982 Ry au,         -1.7746 Debye
        Dipole field         -0.0004 Ry au, 
 
        Potential amp.        0.0469 Ry
        Total length         54.2615 bohr
 

     total cpu time spent up to now is      587.2 secs

     total energy              =   -7398.03856785 Ry
     estimated scf accuracy    <       0.02586492 Ry

     total magnetization       =    80.47 Bohr mag/cell
     absolute magnetization    =    82.02 Bohr mag/cell

     iteration # 43     ecut=    50.00 Ry     beta= 0.10
     Davidson diagonalization with overlap
     ethr =  2.08E-06,  avg # of iterations =  3.0

     negative rho (up, down):  1.818E-04 1.257E-04
 
     Adding external electric field

     Computed dipole along edir(3) : 
        Dipole               -0.7453 Ry au,         -1.8943 Debye
        Dipole field         -0.0005 Ry au, 
 
        Potential amp.        0.0500 Ry
        Total length         54.2615 bohr
 
 
     Adding external electric field

     Computed dipole along edir(3) : 
        Dipole               -0.7453 Ry au,         -1.8943 Debye
        Dipole field         -0.0005 Ry au, 
 
        Potential amp.        0.0500 Ry
        Total length         54.2615 bohr
 

     total cpu time spent up to now is      600.5 secs

     total energy              =   -7398.03889344 Ry
     estimated scf accuracy    <       0.02301405 Ry

     total magnetization       =    80.52 Bohr mag/cell
     absolute magnetization    =    82.03 Bohr mag/cell

     iteration # 44     ecut=    50.00 Ry     beta= 0.10
     Davidson diagonalization with overlap
     ethr =  2.08E-06,  avg # of iterations =  1.0

     negative rho (up, down):  2.260E-04 2.215E-04
 
     Adding external electric field

     Computed dipole along edir(3) : 
        Dipole               -0.7033 Ry au,         -1.7877 Debye
        Dipole field         -0.0004 Ry au, 
 
        Potential amp.        0.0472 Ry
        Total length         54.2615 bohr
 
 
     Adding external electric field

     Computed dipole along edir(3) : 
        Dipole               -0.7033 Ry au,         -1.7877 Debye
        Dipole field         -0.0004 Ry au, 
 
        Potential amp.        0.0472 Ry
        Total length         54.2615 bohr
 

     total cpu time spent up to now is      611.2 secs

     total energy              =   -7398.03899195 Ry
     estimated scf accuracy    <       0.02315034 Ry

     total magnetization       =    80.53 Bohr mag/cell
     absolute magnetization    =    82.04 Bohr mag/cell

     iteration # 45     ecut=    50.00 Ry     beta= 0.10
     Davidson diagonalization with overlap
     ethr =  2.08E-06,  avg # of iterations =  1.0

     negative rho (up, down):  1.453E-04 1.726E-04
 
     Adding external electric field

     Computed dipole along edir(3) : 
        Dipole               -0.7059 Ry au,         -1.7941 Debye
        Dipole field         -0.0004 Ry au, 
 
        Potential amp.        0.0474 Ry
        Total length         54.2615 bohr
 
 
     Adding external electric field

     Computed dipole along edir(3) : 
        Dipole               -0.7059 Ry au,         -1.7941 Debye
        Dipole field         -0.0004 Ry au, 
 
        Potential amp.        0.0474 Ry
        Total length         54.2615 bohr
 

     total cpu time spent up to now is      622.3 secs

     total energy              =   -7398.03880658 Ry
     estimated scf accuracy    <       0.02071096 Ry

     total magnetization       =    80.50 Bohr mag/cell
     absolute magnetization    =    81.99 Bohr mag/cell

     iteration # 46     ecut=    50.00 Ry     beta= 0.10
     Davidson diagonalization with overlap
     ethr =  1.92E-06,  avg # of iterations =  1.0

     negative rho (up, down):  1.497E-04 1.838E-04
 
     Adding external electric field

     Computed dipole along edir(3) : 
        Dipole               -0.6912 Ry au,         -1.7568 Debye
        Dipole field         -0.0004 Ry au, 
 
        Potential amp.        0.0464 Ry
        Total length         54.2615 bohr
 
 
     Adding external electric field

     Computed dipole along edir(3) : 
        Dipole               -0.6912 Ry au,         -1.7568 Debye
        Dipole field         -0.0004 Ry au, 
 
        Potential amp.        0.0464 Ry
        Total length         54.2615 bohr
 

     total cpu time spent up to now is      633.5 secs

     total energy              =   -7398.03862471 Ry
     estimated scf accuracy    <       0.01971617 Ry

     total magnetization       =    80.50 Bohr mag/cell
     absolute magnetization    =    81.98 Bohr mag/cell

     iteration # 47     ecut=    50.00 Ry     beta= 0.10
     Davidson diagonalization with overlap
     ethr =  1.83E-06,  avg # of iterations =  1.0

     negative rho (up, down):  8.619E-05 1.204E-04
 
     Adding external electric field

     Computed dipole along edir(3) : 
        Dipole               -0.5861 Ry au,         -1.4898 Debye
        Dipole field         -0.0004 Ry au, 
 
        Potential amp.        0.0393 Ry
        Total length         54.2615 bohr
 
 
     Adding external electric field

     Computed dipole along edir(3) : 
        Dipole               -0.5861 Ry au,         -1.4898 Debye
        Dipole field         -0.0004 Ry au, 
 
        Potential amp.        0.0393 Ry
        Total length         54.2615 bohr
 

     total cpu time spent up to now is      645.6 secs

     total energy              =   -7398.03753883 Ry
     estimated scf accuracy    <       0.01924423 Ry

     total magnetization       =    80.51 Bohr mag/cell
     absolute magnetization    =    81.99 Bohr mag/cell

     iteration # 48     ecut=    50.00 Ry     beta= 0.10
     Davidson diagonalization with overlap
     ethr =  1.79E-06,  avg # of iterations =  2.5

     negative rho (up, down):  2.178E-04 3.264E-04
 
     Adding external electric field

     Computed dipole along edir(3) : 
        Dipole               -0.6006 Ry au,         -1.5265 Debye
        Dipole field         -0.0004 Ry au, 
 
        Potential amp.        0.0403 Ry
        Total length         54.2615 bohr
 
 
     Adding external electric field

     Computed dipole along edir(3) : 
        Dipole               -0.6006 Ry au,         -1.5265 Debye
        Dipole field         -0.0004 Ry au, 
 
        Potential amp.        0.0403 Ry
        Total length         54.2615 bohr
 

     total cpu time spent up to now is      658.4 secs

     total energy              =   -7398.03692005 Ry
     estimated scf accuracy    <       0.01917506 Ry

     total magnetization       =    80.45 Bohr mag/cell
     absolute magnetization    =    82.03 Bohr mag/cell

     iteration # 49     ecut=    50.00 Ry     beta= 0.10
     Davidson diagonalization with overlap
     ethr =  1.78E-06,  avg # of iterations =  2.0

     negative rho (up, down):  1.403E-04 1.758E-04
 
     Adding external electric field

     Computed dipole along edir(3) : 
        Dipole               -0.5641 Ry au,         -1.4338 Debye
        Dipole field         -0.0003 Ry au, 
 
        Potential amp.        0.0379 Ry
        Total length         54.2615 bohr
 
 
     Adding external electric field

     Computed dipole along edir(3) : 
        Dipole               -0.5641 Ry au,         -1.4338 Debye
        Dipole field         -0.0003 Ry au, 
 
        Potential amp.        0.0379 Ry
        Total length         54.2615 bohr
 

     total cpu time spent up to now is      670.8 secs

     total energy              =   -7398.03768508 Ry
     estimated scf accuracy    <       0.01952391 Ry

     total magnetization       =    80.46 Bohr mag/cell
     absolute magnetization    =    82.10 Bohr mag/cell

     iteration # 50     ecut=    50.00 Ry     beta= 0.10
     Davidson diagonalization with overlap
     ethr =  1.78E-06,  avg # of iterations =  1.5

     negative rho (up, down):  5.397E-04 6.155E-04
 
     Adding external electric field

     Computed dipole along edir(3) : 
        Dipole               -0.5693 Ry au,         -1.4470 Debye
        Dipole field         -0.0004 Ry au, 
 
        Potential amp.        0.0382 Ry
        Total length         54.2615 bohr
 
 
     Adding external electric field

     Computed dipole along edir(3) : 
        Dipole               -0.5693 Ry au,         -1.4470 Debye
        Dipole field         -0.0004 Ry au, 
 
        Potential amp.        0.0382 Ry
        Total length         54.2615 bohr
 

     total cpu time spent up to now is      682.5 secs

     total energy              =   -7398.03741792 Ry
     estimated scf accuracy    <       0.01905136 Ry

     total magnetization       =    80.47 Bohr mag/cell
     absolute magnetization    =    82.00 Bohr mag/cell

     iteration # 51     ecut=    50.00 Ry     beta= 0.10
     Davidson diagonalization with overlap
     ethr =  1.77E-06,  avg # of iterations =  2.0

     negative rho (up, down):  1.037E-04 1.266E-04
 
     Adding external electric field

     Computed dipole along edir(3) : 
        Dipole               -0.5877 Ry au,         -1.4937 Debye
        Dipole field         -0.0004 Ry au, 
 
        Potential amp.        0.0394 Ry
        Total length         54.2615 bohr
 
 
     Adding external electric field

     Computed dipole along edir(3) : 
        Dipole               -0.5877 Ry au,         -1.4937 Debye
        Dipole field         -0.0004 Ry au, 
 
        Potential amp.        0.0394 Ry
        Total length         54.2615 bohr
 

     total cpu time spent up to now is      695.1 secs

     total energy              =   -7398.03786690 Ry
     estimated scf accuracy    <       0.01986435 Ry

     total magnetization       =    80.52 Bohr mag/cell
     absolute magnetization    =    81.99 Bohr mag/cell

     iteration # 52     ecut=    50.00 Ry     beta= 0.10
     Davidson diagonalization with overlap
     ethr =  1.77E-06,  avg # of iterations =  1.5

     negative rho (up, down):  5.954E-04 7.401E-04
 
     Adding external electric field

     Computed dipole along edir(3) : 
        Dipole               -0.5337 Ry au,         -1.3564 Debye
        Dipole field         -0.0003 Ry au, 
 
        Potential amp.        0.0358 Ry
        Total length         54.2615 bohr
 
 
     Adding external electric field

     Computed dipole along edir(3) : 
        Dipole               -0.5337 Ry au,         -1.3564 Debye
        Dipole field         -0.0003 Ry au, 
 
        Potential amp.        0.0358 Ry
        Total length         54.2615 bohr
 

     total cpu time spent up to now is      706.6 secs

     total energy              =   -7398.03729997 Ry
     estimated scf accuracy    <       0.01933669 Ry

     total magnetization       =    80.51 Bohr mag/cell
     absolute magnetization    =    82.07 Bohr mag/cell

     iteration # 53     ecut=    50.00 Ry     beta= 0.10
     Davidson diagonalization with overlap
     ethr =  1.77E-06,  avg # of iterations =  2.0

     negative rho (up, down):  1.999E-04 1.738E-04
 
     Adding external electric field

     Computed dipole along edir(3) : 
        Dipole               -0.5937 Ry au,         -1.5092 Debye
        Dipole field         -0.0004 Ry au, 
 
        Potential amp.        0.0398 Ry
        Total length         54.2615 bohr
 
 
     Adding external electric field

     Computed dipole along edir(3) : 
        Dipole               -0.5937 Ry au,         -1.5092 Debye
        Dipole field         -0.0004 Ry au, 
 
        Potential amp.        0.0398 Ry
        Total length         54.2615 bohr
 

     total cpu time spent up to now is      719.5 secs

     total energy              =   -7398.03754112 Ry
     estimated scf accuracy    <       0.02233452 Ry

     total magnetization       =    80.47 Bohr mag/cell
     absolute magnetization    =    82.04 Bohr mag/cell

     iteration # 54     ecut=    50.00 Ry     beta= 0.10
     Davidson diagonalization with overlap
     ethr =  1.77E-06,  avg # of iterations =  2.0

     negative rho (up, down):  9.960E-05 1.361E-04
 
     Adding external electric field

     Computed dipole along edir(3) : 
        Dipole               -0.6109 Ry au,         -1.5526 Debye
        Dipole field         -0.0004 Ry au, 
 
        Potential amp.        0.0410 Ry
        Total length         54.2615 bohr
 
 
     Adding external electric field

     Computed dipole along edir(3) : 
        Dipole               -0.6109 Ry au,         -1.5526 Debye
        Dipole field         -0.0004 Ry au, 
 
        Potential amp.        0.0410 Ry
        Total length         54.2615 bohr
 

     total cpu time spent up to now is      731.5 secs

     total energy              =   -7398.03782002 Ry
     estimated scf accuracy    <       0.02078879 Ry

     total magnetization       =    80.52 Bohr mag/cell
     absolute magnetization    =    82.05 Bohr mag/cell

     iteration # 55     ecut=    50.00 Ry     beta= 0.10
     Davidson diagonalization with overlap
     ethr =  1.77E-06,  avg # of iterations =  1.5

     negative rho (up, down):  3.618E-04 3.945E-04
 
     Adding external electric field

     Computed dipole along edir(3) : 
        Dipole               -0.5617 Ry au,         -1.4277 Debye
        Dipole field         -0.0003 Ry au, 
 
        Potential amp.        0.0377 Ry
        Total length         54.2615 bohr
 
 
     Adding external electric field

     Computed dipole along edir(3) : 
        Dipole               -0.5617 Ry au,         -1.4277 Debye
        Dipole field         -0.0003 Ry au, 
 
        Potential amp.        0.0377 Ry
        Total length         54.2615 bohr
 

     total cpu time spent up to now is      743.6 secs

     total energy              =   -7398.03792810 Ry
     estimated scf accuracy    <       0.02186228 Ry

     total magnetization       =    80.48 Bohr mag/cell
     absolute magnetization    =    81.96 Bohr mag/cell

     iteration # 56     ecut=    50.00 Ry     beta= 0.10
     Davidson diagonalization with overlap
     ethr =  1.77E-06,  avg # of iterations =  2.0

     negative rho (up, down):  7.863E-04 9.097E-04
 
     Adding external electric field

     Computed dipole along edir(3) : 
        Dipole               -0.4863 Ry au,         -1.2361 Debye
        Dipole field         -0.0003 Ry au, 
 
        Potential amp.        0.0326 Ry
        Total length         54.2615 bohr
 
 
     Adding external electric field

     Computed dipole along edir(3) : 
        Dipole               -0.4863 Ry au,         -1.2361 Debye
        Dipole field         -0.0003 Ry au, 
 
        Potential amp.        0.0326 Ry
        Total length         54.2615 bohr
 

     total cpu time spent up to now is      756.1 secs

     total energy              =   -7398.03670341 Ry
     estimated scf accuracy    <       0.02343008 Ry

     total magnetization       =    80.47 Bohr mag/cell
     absolute magnetization    =    82.00 Bohr mag/cell

     iteration # 57     ecut=    50.00 Ry     beta= 0.10
     Davidson diagonalization with overlap
     ethr =  1.77E-06,  avg # of iterations =  3.5

     negative rho (up, down):  1.389E-03 1.585E-03
 
     Adding external electric field

     Computed dipole along edir(3) : 
        Dipole               -0.4567 Ry au,         -1.1608 Debye
        Dipole field         -0.0003 Ry au, 
 
        Potential amp.        0.0307 Ry
        Total length         54.2615 bohr
 
 
     Adding external electric field

     Computed dipole along edir(3) : 
        Dipole               -0.4567 Ry au,         -1.1608 Debye
        Dipole field         -0.0003 Ry au, 
 
        Potential amp.        0.0307 Ry
        Total length         54.2615 bohr
 

     total cpu time spent up to now is      769.7 secs

     total energy              =   -7398.03670774 Ry
     estimated scf accuracy    <       0.01598378 Ry

     total magnetization       =    80.47 Bohr mag/cell
     absolute magnetization    =    82.01 Bohr mag/cell

     iteration # 58     ecut=    50.00 Ry     beta= 0.10
     Davidson diagonalization with overlap
     ethr =  1.48E-06,  avg # of iterations =  2.0

     negative rho (up, down):  2.160E-03 2.323E-03
 
     Adding external electric field

     Computed dipole along edir(3) : 
        Dipole               -0.4227 Ry au,         -1.0745 Debye
        Dipole field         -0.0003 Ry au, 
 
        Potential amp.        0.0284 Ry
        Total length         54.2615 bohr
 
 
     Adding external electric field

[...]
    -5.9945  -5.9678  -5.9564  -5.9233  -5.9097  -5.8659  -5.8579  -5.8487
    -5.8120  -5.8052  -5.7503  -5.7350  -5.7236  -5.7068  -5.6933  -5.6790
    -5.6700  -5.6652  -5.6331  -5.6170  -5.6098  -5.5772  -5.5305  -5.5051
    -5.4697  -5.4325  -5.4056  -5.3982  -5.3851  -5.3487  -5.3062  -5.2845
    -5.2378  -5.2114  -5.1855  -5.1696  -5.1686  -5.0809  -5.0776  -5.0549
    -4.9826  -4.9746  -4.9355  -4.9110  -4.8863  -4.8745  -4.8570  -4.7946
    -4.7777  -4.7595  -4.7495  -4.7317  -4.6413  -4.6266  -4.5716  -4.5484
    -4.5175  -4.5162  -4.4980  -4.4580  -4.4063  -4.3905  -4.3773  -4.3683
    -4.3564  -4.2941  -4.2917  -4.2271  -4.1714  -4.1410  -4.1041  -4.0925
    -4.0761  -4.0444  -4.0331  -3.9930  -3.9611  -3.9526  -3.9111  -3.8958
    -3.8749  -3.8375  -3.8225  -3.8057  -3.7940  -3.7600  -3.7461  -3.7296
    -3.6978  -3.6837  -3.6630  -3.6420  -3.6400  -3.6334  -3.5909  -3.5798
    -3.5421  -3.5240  -3.5089  -3.4925  -3.4859  -3.4738  -3.4518  -3.4395
    -3.4272  -3.3967  -3.3833  -3.3459  -3.3355  -3.3123  -3.2616  -3.2497
    -3.2309  -3.2137  -3.2121  -3.1815  -3.1755  -3.1643  -3.1476  -3.1407
    -3.1265  -3.0758  -3.0351  -3.0295  -3.0029  -2.9988  -2.9660  -2.9378
    -2.9161  -2.9152  -2.8983  -2.8698  -2.8554  -2.8344  -2.8151  -2.8072
    -2.7963  -2.7841  -2.7776  -2.7656  -2.7430  -2.7355  -2.7227  -2.6973
    -2.6791  -2.6642  -2.6600  -2.6486  -2.6219  -2.6091  -2.5903  -2.5780
    -2.5491  -2.5342  -2.5253  -2.5161  -2.4921  -2.4775  -2.4657  -2.4350
    -2.4112  -2.3958  -2.3912  -2.3680  -2.3546  -2.3108  -2.2916  -2.2828
    -2.2618  -2.2389  -2.2276  -2.2070  -2.1740  -2.1558  -2.1247  -2.1193
    -2.1089  -2.0842  -2.0760  -2.0686  -2.0667  -2.0358  -2.0036  -1.9874
    -1.9734  -1.9613  -1.9544  -1.9386  -1.9247  -1.9173  -1.8899  -1.8555
    -1.8403  -1.8168  -1.7864  -1.7624  -1.7347  -1.7219  -1.6967  -1.6927
    -1.6553  -1.6515  -1.6456  -1.6273  -1.6125  -1.6056  -1.5838  -1.5459
    -1.5338  -1.5119  -1.4707  -1.4641  -1.4415  -1.4320  -1.4182  -1.4104
    -1.3858  -1.3815  -1.3387  -1.3179  -1.2959  -1.2368  -1.2330  -1.2025
    -1.1477  -1.0990  -1.0727  -1.0515  -1.0126  -0.9255  -0.8996  -0.8753
    -0.7659  -0.6658  -0.6127  -0.5957  -0.4624  -0.3658  -0.3099  -0.2580
     0.1043   0.1269   0.1554   0.1931   0.2267   0.2439   0.2610   0.2726
     0.2810   0.2979   0.3015   0.3038   0.3109   0.3320   0.3445   0.3501
     0.3559   0.3581   0.3750   0.3809   0.3852   0.3956   0.3977   0.4089
     0.4130   0.4156   0.4251   0.4383   0.4457   0.4535   0.4583   0.4622
     0.4655   0.4717   0.4747   0.4930   0.4944   0.5005   0.5128   0.5152
     0.5219   0.5444   0.5468   0.5508   0.5599   0.5655   0.5681   0.5728
     0.5781   0.5891   0.5928   0.5952   0.6096   0.6162   0.6241   0.6363
     0.6397   0.6485   0.6555   0.6672   0.6753   0.6763   0.6882   0.6925
     0.6932   0.7025   0.7117   0.7155   0.7207   0.7364   0.7412   0.7461
     0.7496   0.7559   0.7697   0.7809   0.7877   0.7986   0.8084   0.8221
     0.8286   0.8379   0.8449   0.8623   0.8650   0.8724   0.8805   0.8825
     0.8980   0.9147   0.9198   0.9271   0.9361   0.9724   0.9873   1.0435
     1.0726   1.1363   1.6057   1.6590   1.7018   1.7129   1.7149   1.7423
     1.7718   1.8351   1.8708   1.8742   1.8962   1.9321   1.9366   1.9667
     1.9789   1.9915   2.0169   2.0393   2.0522   2.0728   2.0846   2.1115
     2.1441   2.1566   2.1802   2.1908   2.1983   2.2170   2.2257   2.2452
     2.2525   2.2558   2.2689   2.2821   2.2884   2.2976   2.3076   2.3242
     2.3386   2.3443   2.3661   2.3878   2.4040   2.4201   2.4344   2.4479
     2.4567   2.4749   2.4995   2.5060   2.5145   2.5330   2.5553   2.5687
     2.5805   2.5876   2.6115   2.6387   2.6606   2.6739   2.7363   2.7623
     2.7840   2.8343   2.8429   2.9057   2.9181   3.5907   3.5916   3.6659
     3.7619   3.8266   3.8437   3.8580   3.8628   4.0008   4.0658   4.5911
     4.6466   4.7097   4.7757   4.9259   4.9498   5.0211   5.4150   6.2967
     6.3619   6.5437   6.5902   6.7787   6.8160   6.8440   6.8798   6.9256
     7.0151   7.0674   7.0982   7.1210   7.3212   7.3655   7.3784   7.4153
     7.5004   7.5559   7.6546   7.6769   7.6879   7.7554   7.7888   7.8105
     7.8632   7.9214   7.9516   7.9788   8.0221   8.0317   8.0619   8.0707
     8.0938   8.1178   8.1615   8.2021   8.2356   8.2651   8.2998   8.3286
     8.3802   8.4115   8.4183   8.4429   8.4622   8.4794   8.5015   8.5126
     8.5322   8.5583   8.5845   8.5979   8.6210   8.6440   8.6806   8.6913
     8.7221   8.7670   8.7945   8.7965   8.8229   8.8598   8.8686

     the Fermi energy is     1.5661 ev

!    total energy              =   -7398.03619960 Ry
     estimated scf accuracy    <       0.00000071 Ry
     smearing contrib. (-TS)   =      -0.01405223 Ry
     internal energy E=F+TS    =   -7398.02214737 Ry

     The total energy is F=E-TS. E is the sum of the following terms:
     one-electron contribution =  -91683.91463107 Ry
     hartree contribution      =   46489.97546477 Ry
     xc contribution           =   -2260.26875188 Ry
     ewald contribution        =   40058.01928222 Ry
     Dispersion Correction     =      -1.83352305 Ry
     electric field correction =       0.00001162 Ry

     total magnetization       =    80.47 Bohr mag/cell
     absolute magnetization    =    82.00 Bohr mag/cell

     convergence has been achieved in 131 iterations

     negative rho (up, down):  9.308E-04 5.479E-04

     Forces acting on atoms (cartesian axes, Ry/au):

     atom    1 type  2   force =     0.03110827   -0.01972785   -0.01606899
     atom    2 type  1   force =     0.00218838   -0.00382114   -0.01059184
     atom    3 type  1   force =    -0.02170479   -0.02085380    0.01828615
     atom    4 type  1   force =     0.00135668    0.01015173   -0.01252598
     atom    5 type  1   force =    -0.00478604    0.02899919   -0.01833279
     atom    6 type  1   force =     0.00590560    0.00057890   -0.00035069
     atom    7 type  1   force =     0.02709026   -0.02108772    0.01762526
     atom    8 type  1   force =    -0.00958280   -0.00297343   -0.01085371
     atom    9 type  1   force =    -0.03007400   -0.01835978    0.01622873
     atom   10 type  1   force =    -0.00117022    0.00797070   -0.01284043
     atom   11 type  1   force =    -0.01319878    0.03029968   -0.02047164
     atom   12 type  1   force =     0.00126055    0.00667603   -0.00399834
     atom   13 type  3   force =     0.05103415   -0.11002024    0.00918078
     atom   14 type  3   force =    -0.02902856    0.03592430   -0.06517008
     atom   15 type  3   force =    -0.00921297    0.17550139   -0.08316679
     atom   16 type  3   force =     0.06069859    0.00055029   -0.00437549
     atom   17 type  4   force =     0.01520603   -0.02182794   -0.00975438
     atom   18 type  4   force =    -0.00537517    0.00479317    0.02961494
     atom   19 type  4   force =     0.00212889    0.00097000    0.03069776
     atom   20 type  4   force =     0.00511806    0.00189589    0.00238790
     atom   21 type  4   force =     0.00059576   -0.01198561   -0.00007302
     atom   22 type  4   force =    -0.00092961    0.00385763    0.03254579
     atom   23 type  4   force =    -0.00608790    0.01464065    0.02747607
     atom   24 type  4   force =     0.00865307    0.00324944   -0.00434181
     atom   25 type  4   force =     0.00647153   -0.00329485    0.00155455
     atom   26 type  4   force =     0.03113863   -0.17829572    0.00724732
     atom   27 type  4   force =     0.00291784    0.00100310    0.00169191
     atom   28 type  4   force =    -0.01697767    0.00167853    0.00474659
     atom   29 type  4   force =     0.09130210    0.00314510    0.00804838
     atom   30 type  4   force =     0.01309306   -0.02510130   -0.00090552
     atom   31 type  4   force =    -0.03842513    0.13326321   -0.00019811
     atom   32 type  4   force =    -0.00560903   -0.01187823    0.00651765
     atom   33 type  3   force =     0.04158794   -0.11921201    0.00963204
     atom   34 type  3   force =    -0.10168881    0.04258443   -0.07574331
     atom   35 type  3   force =    -0.01352102    0.16599575   -0.08810398
     atom   36 type  3   force =    -0.00358784    0.00255231   -0.01041898
     atom   37 type  4   force =     0.00825042   -0.01465210   -0.00231475
     atom   38 type  4   force =    -0.00584659   -0.00172569    0.02738677
     atom   39 type  4   force =    -0.00469035    0.00721228    0.03212416
     atom   40 type  4   force =     0.00128139    0.00005565    0.00248488
     atom   41 type  4   force =    -0.00147602   -0.00958561   -0.00160167
     atom   42 type  4   force =     0.00542555   -0.00054495    0.02937642
     atom   43 type  4   force =    -0.01045417    0.01348611    0.02709156
     atom   44 type  4   force =     0.00443768    0.00350725   -0.00452894
     atom   45 type  4   force =    -0.00033882   -0.00066386    0.00200714
     atom   46 type  4   force =     0.02811459   -0.17050492    0.00541576
     atom   47 type  4   force =    -0.06548418   -0.00073322   -0.00310615
     atom   48 type  4   force =    -0.01981036    0.00391376    0.00529824
     atom   49 type  4   force =     0.01400249    0.00085902    0.00204259
     atom   50 type  4   force =     0.00796432   -0.02434509   -0.00016353
     atom   51 type  4   force =    -0.03972509    0.13325291   -0.00137006
     atom   52 type  4   force =    -0.00786739   -0.01066784    0.00875777
     atom   53 type  2   force =     0.00630486   -0.00716997    0.00540469
     atom   54 type  1   force =     0.00078540   -0.00440951    0.00790514
     atom   55 type  1   force =     0.00503376   -0.00635111    0.00654660
     atom   56 type  1   force =     0.00065783    0.00579899    0.00301287
     atom   57 type  1   force =     0.00086682    0.02200862   -0.01400374
     atom   58 type  1   force =     0.00149903   -0.00339973    0.00234358
     atom   59 type  1   force =     0.00255000   -0.01013932    0.00356855
     atom   60 type  1   force =    -0.00688170   -0.00281385    0.00362079
     atom   61 type  1   force =    -0.00481402   -0.00512466    0.00647963
     atom   62 type  1   force =    -0.00362577    0.00588651   -0.00068455
     atom   63 type  1   force =    -0.01106576    0.02508896   -0.01762900
     atom   64 type  1   force =    -0.00218469    0.00127692   -0.00077830
     atom   65 type  3   force =     0.04516239   -0.11955077    0.01964163
     atom   66 type  3   force =     0.00159843   -0.00444697    0.00057495
     atom   67 type  3   force =    -0.04073713    0.12369862   -0.00683405
     atom   68 type  3   force =     0.06329517   -0.00209629    0.00756679
     atom   69 type  4   force =     0.01270658   -0.01727721   -0.00289094
     atom   70 type  4   force =    -0.00169476    0.00348059   -0.00051916
     atom   71 type  4   force =    -0.00184148    0.00337335    0.00525129
     atom   72 type  4   force =     0.00464494    0.00158854    0.00073114
     atom   73 type  4   force =     0.00871206   -0.01688449    0.01187254
     atom   74 type  4   force =    -0.00434169   -0.00341289    0.00940301
     atom   75 type  4   force =     0.00349004    0.00859945    0.00458968
     atom   76 type  4   force =     0.00591118    0.00079306   -0.00211403
     atom   77 type  4   force =     0.00611206   -0.00181072   -0.00108857
     atom   78 type  4   force =     0.04531764   -0.14082865    0.00574479
     atom   79 type  4   force =     0.00023024    0.00035558   -0.00073932
     atom   80 type  4   force =     0.00160633    0.00188136    0.00215095
     atom   81 type  4   force =     0.06735279    0.00013043    0.00645743
     atom   82 type  4   force =     0.00021855    0.00245279    0.00128660
     atom   83 type  4   force =    -0.03903684    0.13794028   -0.00271466
     atom   84 type  4   force =    -0.00106817   -0.01067429    0.00373951
     atom   85 type  3   force =     0.03949689   -0.12370994    0.02502782
     atom   86 type  3   force =    -0.06327323   -0.00171366   -0.00371706
     atom   87 type  3   force =    -0.04611729    0.12084952   -0.01041850
     atom   88 type  3   force =    -0.00011426   -0.00163285    0.00283400
     atom   89 type  4   force =     0.00862553   -0.01528015   -0.00487355
     atom   90 type  4   force =    -0.00453237    0.00101799   -0.00097606
     atom   91 type  4   force =    -0.00951904    0.00830748    0.00541752
     atom   92 type  4   force =     0.00041428   -0.00001453   -0.00000657
     atom   93 type  4   force =     0.00124133   -0.01173996    0.00073593
     atom   94 type  4   force =    -0.00904051   -0.00296764    0.00834610
     atom   95 type  4   force =    -0.00034352    0.00771581    0.00301346
     atom   96 type  4   force =    -0.00084380    0.00068118    0.00010972
     atom   97 type  4   force =    -0.00100553    0.00194145   -0.00015398
     atom   98 type  4   force =     0.04051811   -0.13913153    0.00481613
     atom   99 type  4   force =    -0.06736894   -0.00086840   -0.00601994
     atom  100 type  4   force =    -0.00041442    0.00278410    0.00288066
     atom  101 type  4   force =    -0.00127722    0.00011809    0.00141690
     atom  102 type  4   force =    -0.00684100    0.00552521    0.00153306
     atom  103 type  4   force =    -0.04031583    0.13538568   -0.00429449
     atom  104 type  4   force =    -0.00605789   -0.01005250    0.00502246
     atom  105 type  2   force =    -0.00035209    0.00040624   -0.00024713
     atom  106 type  1   force =     0.00051769   -0.00027939   -0.00045146
     atom  107 type  1   force =     0.00031921    0.00004369    0.00029804
     atom  108 type  1   force =     0.00017458    0.00011031    0.00023266
     atom  109 type  1   force =     0.00026236   -0.00073623   -0.00022550
     atom  110 type  1   force =    -0.00042229   -0.00011232   -0.00030948
     atom  111 type  1   force =     0.00001817   -0.00029997   -0.00003779
     atom  112 type  1   force =     0.00027487    0.00041260   -0.00043784
     atom  113 type  1   force =     0.00009803   -0.00038351   -0.00036252
     atom  114 type  1   force =    -0.00044524    0.00005436    0.00022985
     atom  115 type  1   force =     0.00008164    0.00038131    0.00006523
     atom  116 type  1   force =    -0.00041487    0.00009121   -0.00027425
     atom  117 type  3   force =    -0.00080983   -0.00090942    0.00016328
     atom  118 type  3   force =    -0.00015980   -0.00003598    0.00018562
     atom  119 type  3   force =     0.00001776    0.00005045   -0.00059419
     atom  120 type  3   force =     0.00011297   -0.00013108   -0.00014853
     atom  121 type  4   force =     0.00044568    0.00028893    0.00079721
     atom  122 type  4   force =    -0.00021186    0.00023956    0.00018615
     atom  123 type  4   force =     0.00007772   -0.00009853   -0.00007337
     atom  124 type  4   force =     0.00040388   -0.00045310    0.00005762
     atom  125 type  4   force =     0.00059995    0.00043731   -0.00044261
     atom  126 type  4   force =    -0.00013676   -0.00014434   -0.00022030
     atom  127 type  4   force =     0.00051615   -0.00026865   -0.00007180
     atom  128 type  4   force =    -0.00002392    0.00044154   -0.00002085
     atom  129 type  4   force =     0.00038321   -0.00015950    0.00028240
     atom  130 type  4   force =    -0.00011158   -0.00013315    0.00023239
     atom  131 type  4   force =    -0.00068472   -0.00036300    0.00003210
     atom  132 type  4   force =     0.00003472   -0.00010197   -0.00027641
     atom  133 type  4   force =     0.00000951    0.00017787   -0.00023932
     atom  134 type  4   force =    -0.00000980    0.00015616   -0.00032710
     atom  135 type  4   force =     0.00045891    0.00081732   -0.00029703
     atom  136 type  4   force =    -0.00031108    0.00000403   -0.00003829
     atom  137 type  3   force =    -0.00050213    0.00001745    0.00007712
     atom  138 type  3   force =     0.00014958    0.00002540    0.00001110
     atom  139 type  3   force =    -0.00019305   -0.00032352    0.00006282
     atom  140 type  3   force =     0.00019904   -0.00035932    0.00052515
     atom  141 type  4   force =     0.00011677   -0.00014500    0.00015931
     atom  142 type  4   force =     0.00011701   -0.00002409    0.00015112
     atom  143 type  4   force =    -0.00009780   -0.00006716   -0.00017782
     atom  144 type  4   force =    -0.00036543   -0.00059093   -0.00055825
     atom  145 type  4   force =    -0.00015513   -0.00020184   -0.00052011
     atom  146 type  4   force =    -0.00023281    0.00011626   -0.00010218
     atom  147 type  4   force =     0.00025751   -0.00015304   -0.00000641
     atom  148 type  4   force =    -0.00061376   -0.00037052   -0.00010058
     atom  149 type  4   force =    -0.00003121    0.00029639    0.00003936
     atom  150 type  4   force =    -0.00015033   -0.00023134   -0.00020318
     atom  151 type  4   force =    -0.00023927   -0.00003358    0.00038939
     atom  152 type  4   force =    -0.00009854   -0.00035907   -0.00017764
     atom  153 type  4   force =    -0.00006783    0.00023390   -0.00002558
     atom  154 type  4   force =     0.00006455    0.00018425   -0.00000457
     atom  155 type  4   force =    -0.00004377    0.00000078    0.00014191
     atom  156 type  4   force =     0.00011729    0.00021240    0.00000652
     atom  157 type  4   force =     0.00282450    0.00226487    0.00142113
     atom  158 type  5   force =    -0.00344236   -0.00187952   -0.00146093

     Total force =     0.664802     Total SCF correction =     0.003373
 
     init_run     :      7.23s CPU      7.87s WALL (       1 calls)
     electrons    :   1612.28s CPU   1696.72s WALL (       1 calls)
     forces       :      3.81s CPU      4.21s WALL (       1 calls)
     force_london :      0.09s CPU      0.09s WALL (       1 calls)

     Called by init_run:
     wfcinit      :      4.42s CPU      4.57s WALL (       1 calls)
     potinit      :      0.58s CPU      0.78s WALL (       1 calls)
     hinit0       :      1.25s CPU      1.35s WALL (       1 calls)

     Called by electrons:
     c_bands      :   1256.08s CPU   1297.11s WALL (     131 calls)
     sum_band     :    231.50s CPU    254.89s WALL (     131 calls)
     v_of_rho     :     22.26s CPU     23.57s WALL (     132 calls)
     newd         :     65.29s CPU     82.86s WALL (     132 calls)
     mix_rho      :     35.46s CPU     35.67s WALL (     131 calls)
     energy_londo :      0.09s CPU      0.09s WALL (       1 calls)

     Called by c_bands:
     init_us_2    :      4.54s CPU      4.64s WALL (     528 calls)
     init_us_2:cp :      4.54s CPU      4.64s WALL (     528 calls)
     regterg      :   1227.66s CPU   1268.13s WALL (     263 calls)

     Called by *egterg:
     rdiaghg      :    337.80s CPU    354.21s WALL (     799 calls)
     h_psi        :    506.59s CPU    518.84s WALL (     801 calls)
     s_psi        :    101.58s CPU    101.63s WALL (     801 calls)
     g_psi        :      0.69s CPU      0.70s WALL (     536 calls)

     Called by h_psi:
     h_psi:calbec :    132.52s CPU    142.55s WALL (     801 calls)
     vloc_psi     :    267.59s CPU    268.72s WALL (     801 calls)
     add_vuspsi   :    105.03s CPU    106.07s WALL (     801 calls)

     General routines
     calbec       :    197.97s CPU    213.08s WALL (    1071 calls)
     fft          :     18.62s CPU     20.30s WALL (    2389 calls)
     ffts         :     21.07s CPU     21.14s WALL (   16385 calls)
     fftw         :    300.78s CPU    301.97s WALL (  433744 calls)
     interpolate  :      1.90s CPU      2.04s WALL (     264 calls)
 
     Parallel routines
 
     PWSCF        :  27m 5.25s CPU  28m31.02s WALL

 
   This run was terminated on:  22:14:46  19Nov2025            

=------------------------------------------------------------------------------=
   JOB DONE.
=------------------------------------------------------------------------------=
