
     Program PWSCF v.7.2 starts on 19Nov2025 at 19: 3:30 

     This program is part of the open-source Quantum ESPRESSO suite
     for quantum simulation of materials; please cite
         "P. Giannozzi et al., J. Phys.:Condens. Matter 21 395502 (2009);
         "P. Giannozzi et al., J. Phys.:Condens. Matter 29 465901 (2017);
         "P. Giannozzi et al., J. Chem. Phys. 152 154105 (2020);
          URL http://www.quantum-espresso.org", 
     in publications or presentations arising from this work. More details at
     http://www.quantum-espresso.org/quote

     Parallel version (MPI), running on    64 processors

     MPI processes distributed on     4 nodes
     430754 MiB available memory on the printing compute node when the environment starts
 
     Reading input from PWINPUT_atm157_xp

     Current dimensions of program PWSCF are:
     Max number of different atomic species (ntypx) = 10
     Max number of k-points (npk) =  40000
     Max angular momentum in pseudopotentials (lmaxx) =  4
     Presently no symmetry can be used with electric field

     file Ni.pbe-n-rrkjus_psl.1.0.0.UPF: wavefunction(s)  3D renormalized
     file Mn.pbe-spn-rrkjus_psl.0.3.1.UPF: wavefunction(s)  3D renormalized
     file O.pbe-rrkjus.UPF: wavefunction(s)  2S renormalized
     file H.pbe-rrkjus.UPF: wavefunction(s)  1S renormalized

     gamma-point specific algorithms are used
 
     R & G space division:  proc/nbgrp/npool/nimage =      64
     Subspace diagonalization in iterative solution of the eigenvalue problem:
     one sub-group per band group will be used
     custom distributed-memory algorithm (size of sub-group:  6*  6 procs)

 
     Parallelization info
     --------------------
     sticks:   dense  smooth     PW     G-vecs:    dense   smooth      PW
     Min         208      82     20                59912    15118    1876
     Max         210      84     22                59974    15196    1926
     Sum       13399    5355   1345              3836275   970529  121367
 
     Using Slab Decomposition
 


     bravais-lattice index     =            0
     lattice parameter (alat)  =      17.7004  a.u.
     unit-cell volume          =   20319.7251 (a.u.)^3
     number of atoms/cell      =          158
     number of atomic types    =            5
     number of electrons       =      1078.00
     number of Kohn-Sham states=          647
     kinetic-energy cutoff     =      50.0000  Ry
     charge density cutoff     =     500.0000  Ry
     scf convergence threshold =      1.0E-06
     mixing beta               =       0.1000
     number of iterations used =            8  local-TF  mixing
     Exchange-correlation=  SLA  PW   PBE  PBE
                           (   1   4   3   4   0   0   0)

     celldm(1)=  17.700384  celldm(2)=   0.000000  celldm(3)=   0.000000
     celldm(4)=   0.000000  celldm(5)=   0.000000  celldm(6)=   0.000000

     crystal axes: (cart. coord. in units of alat)
               a(1) = (   1.000000   0.000000   0.000000 )  
               a(2) = (   0.000000   1.075730   0.000000 )  
               a(3) = (   0.000000   0.000000   3.406172 )  

     reciprocal axes: (cart. coord. in units 2 pi/alat)
               b(1) = (  1.000000  0.000000  0.000000 )  
               b(2) = (  0.000000  0.929602  0.000000 )  
               b(3) = (  0.000000  0.000000  0.293585 )  


     PseudoPot. # 1 for Ni read from file:
     ~/PSEUDO/Ni.pbe-n-rrkjus_psl.1.0.0.UPF
     MD5 check sum: Not computed, couldn't open file
     Pseudo is Ultrasoft + core correction, Zval = 10.0
     Generated using "atomic" code by A. Dal Corso  v.5.1.2
     Using radial grid of 1195 points,  6 beta functions with: 
                l(1) =   0
                l(2) =   0
                l(3) =   1
                l(4) =   1
                l(5) =   2
                l(6) =   2
     Q(r) pseudized with 0 coefficients 


     PseudoPot. # 2 for Mn read from file:
     ~/PSEUDO/Mn.pbe-spn-rrkjus_psl.0.3.1.UPF
     MD5 check sum: Not computed, couldn't open file
     Pseudo is Ultrasoft + core correction, Zval = 15.0
     Generated using &quot;atomic&quot; code by A. Dal Corso  v.6.2.2
     Using radial grid of 1187 points,  6 beta functions with: 
                l(1) =   0
                l(2) =   0
                l(3) =   1
                l(4) =   1
                l(5) =   2
                l(6) =   2
     Q(r) pseudized with 0 coefficients 


     PseudoPot. # 3 for P  read from file:
     ~/PSEUDO/P.pbe-n-rrkjus_psl.1.0.0.UPF
     MD5 check sum: Not computed, couldn't open file
     Pseudo is Ultrasoft + core correction, Zval =  5.0
     Generated using "atomic" code by A. Dal Corso  v.5.1
     Using radial grid of 1147 points,  6 beta functions with: 
                l(1) =   0
                l(2) =   0
                l(3) =   1
                l(4) =   1
                l(5) =   2
                l(6) =   2
     Q(r) pseudized with 0 coefficients 


     PseudoPot. # 4 for O  read from file:
     ~/PSEUDO/O.pbe-rrkjus.UPF
     MD5 check sum: Not computed, couldn't open file
     Pseudo is Ultrasoft, Zval =  6.0
     Generated by new atomic code, or converted to UPF format
     Using radial grid of 1269 points,  4 beta functions with: 
                l(1) =   0
                l(2) =   0
                l(3) =   1
                l(4) =   1
     Q(r) pseudized with 0 coefficients 


     PseudoPot. # 5 for H  read from file:
     ~/PSEUDO/H.pbe-rrkjus.UPF
     MD5 check sum: Not computed, couldn't open file
     Pseudo is Ultrasoft, Zval =  1.0
     Generated by new atomic code, or converted to UPF format
     Using radial grid of 1061 points,  2 beta functions with: 
                l(1) =   0
                l(2) =   0
     Q(r) pseudized with 0 coefficients 


     atomic species   valence    mass     pseudopotential
     Ni               10.00    58.69300     Ni( 1.00)
     Mn               15.00    54.93800     Mn( 1.00)
     P                 5.00    30.97300     P ( 1.00)
     O                 6.00    15.99900     O ( 1.00)
     H                 1.00     1.00790     H ( 1.00)

     Starting magnetic structure 
     atomic species   magnetization
     Ni              1.000
     Mn              1.000
     P               1.000
     O               1.000
     H               0.000

     No symmetry found



   Cartesian axes

     site n.     atom                  positions (alat units)
         1        Mn     tau(   1) = (   0.2404744   0.8371250   0.1168501  )
         2        Ni     tau(   2) = (   0.4968126   0.7726670   0.4415546  )
         3        Ni     tau(   3) = (   0.0066150   0.2936743   0.1241053  )
         4        Ni     tau(   4) = (   0.2585722   0.2355858   0.4448848  )
         5        Ni     tau(   5) = (   0.9987350   1.0696411   0.2854926  )
         6        Ni     tau(   6) = (   0.2517397   0.5330511   0.2829322  )
         7        Ni     tau(   7) = (   0.7451645   0.8337543   0.1221751  )
         8        Ni     tau(   8) = (   0.9939181   0.7738804   0.4407595  )
         9        Ni     tau(   9) = (   0.5111533   0.2924088   0.1251865  )
        10        Ni     tau(  10) = (   0.7606326   0.2319267   0.4451372  )
        11        Ni     tau(  11) = (   0.5024065   1.0688133   0.2870502  )
        12        Ni     tau(  12) = (   0.7529977   0.5317900   0.2845227  )
        13        P      tau(  13) = (   0.2092944   0.9731097   0.4345035  )
        14        P      tau(  14) = (   0.4655727   0.6359535   0.1274635  )
        15        P      tau(  15) = (   0.2910699   0.1027363   0.1296098  )
        16        P      tau(  16) = (   0.0396216   0.4288395   0.4398838  )
        17        O      tau(  17) = (   0.1294378   0.9013260   0.3010618  )
        18        O      tau(  18) = (   0.3874505   0.7054774   0.2637003  )
        19        O      tau(  19) = (   0.3702540   0.1714799   0.2660028  )
        20        O      tau(  20) = (   0.1184398   0.3582958   0.3038353  )
        21        O      tau(  21) = (   0.1451572   0.8850881   0.5587578  )
        22        O      tau(  22) = (   0.4048762   0.7245585   0.0017492  )
        23        O      tau(  23) = (   0.3523506   0.1900579   0.0035744  )
        24        O      tau(  24) = (   0.1017610   0.3410484   0.5656572  )
        25        O      tau(  25) = (   0.0975396   0.5849288   0.4357922  )
        26        O      tau(  26) = (   0.3483552   1.0314945   0.1270322  )
        27        O      tau(  27) = (   0.3784305   0.4225118   0.4308928  )
        28        O      tau(  28) = (   0.1268237   0.1067944   0.1392744  )
        29        O      tau(  29) = (   0.1212267   0.6424170   0.1362896  )
        30        O      tau(  30) = (   0.4053315   0.4809387   0.1300622  )
        31        O      tau(  31) = (   0.1536621   0.0446918   0.4373386  )
        32        O      tau(  32) = (   0.3732349   0.9631717   0.4256642  )
        33        P      tau(  33) = (   0.7119823   0.9695974   0.4373010  )
        34        P      tau(  34) = (   0.9615208   0.6363392   0.1262932  )
        35        P      tau(  35) = (   0.7927710   0.0970060   0.1292164  )
        36        P      tau(  36) = (   0.5426404   0.4269675   0.4410738  )
        37        O      tau(  37) = (   0.6326879   0.8991182   0.3013240  )
        38        O      tau(  38) = (   0.8842163   0.7083206   0.2625155  )
        39        O      tau(  39) = (   0.8716178   0.1677751   0.2653504  )
        40        O      tau(  40) = (   0.6212010   0.3558666   0.3051085  )
        41        O      tau(  41) = (   0.6507714   0.8812342   0.5631722  )
        42        O      tau(  42) = (   0.9014054   0.7264458   0.0010676  )
        43        O      tau(  43) = (   0.8548963   0.1847909   0.0035471  )
        44        O      tau(  44) = (   0.6044469   0.3378706   0.5660366  )
        45        O      tau(  45) = (   0.6024424   0.5823140   0.4379016  )
        46        O      tau(  46) = (   0.8498940   1.0254482   0.1275156  )
        47        O      tau(  47) = (   0.8798395   0.4205825   0.4305771  )
        48        O      tau(  48) = (   0.6286921   0.1034636   0.1397346  )
        49        O      tau(  49) = (   0.6294973   0.6427753   0.1372553  )
        50        O      tau(  50) = (   0.9024339   0.4810312   0.1296418  )
        51        O      tau(  51) = (   0.6547812   0.0410987   0.4396636  )
        52        O      tau(  52) = (   0.8760507   0.9632605   0.4264507  )
        53        Mn     tau(  53) = (   0.2404744   0.8246335   0.7367378  )
        54        Ni     tau(  54) = (   0.4968126   0.7601755   1.0614423  )
        55        Ni     tau(  55) = (   0.0066150   0.2811828   0.7439929  )
        56        Ni     tau(  56) = (   0.2585722   0.2230943   1.0647725  )
        57        Ni     tau(  57) = (   0.9987350   1.0571496   0.9053803  )
        58        Ni     tau(  58) = (   0.2517397   0.5205596   0.9028199  )
        59        Ni     tau(  59) = (   0.7451645   0.8212628   0.7420628  )
        60        Ni     tau(  60) = (   0.9939181   0.7613889   1.0606471  )
        61        Ni     tau(  61) = (   0.5111533   0.2799173   0.7450742  )
        62        Ni     tau(  62) = (   0.7606326   0.2194352   1.0650249  )
        63        Ni     tau(  63) = (   0.5024065   1.0563218   0.9069379  )
        64        Ni     tau(  64) = (   0.7529977   0.5192985   0.9044104  )
        65        P      tau(  65) = (   0.2092944   0.9606182   1.0543912  )
        66        P      tau(  66) = (   0.4655727   0.6234620   0.7473512  )
        67        P      tau(  67) = (   0.2910699   0.0902448   0.7494974  )
        68        P      tau(  68) = (   0.0396216   0.4163480   1.0597715  )
        69        O      tau(  69) = (   0.1294378   0.8888345   0.9209495  )
        70        O      tau(  70) = (   0.3874505   0.6929859   0.8835880  )
        71        O      tau(  71) = (   0.3702540   0.1589885   0.8858904  )
        72        O      tau(  72) = (   0.1184398   0.3458043   0.9237230  )
        73        O      tau(  73) = (   0.1451572   0.8725966   1.1786454  )
        74        O      tau(  74) = (   0.4048762   0.7120670   0.6216369  )
        75        O      tau(  75) = (   0.3523506   0.1775664   0.6234620  )
        76        O      tau(  76) = (   0.1017610   0.3285569   1.1855448  )
        77        O      tau(  77) = (   0.0975396   0.5724373   1.0556799  )
        78        O      tau(  78) = (   0.3483552   1.0190030   0.7469198  )
        79        O      tau(  79) = (   0.3784305   0.4100203   1.0507804  )
        80        O      tau(  80) = (   0.1268237   0.0943029   0.7591620  )
        81        O      tau(  81) = (   0.1212267   0.6299255   0.7561772  )
        82        O      tau(  82) = (   0.4053315   0.4684472   0.7499499  )
        83        O      tau(  83) = (   0.1536621   0.0322003   1.0572263  )
        84        O      tau(  84) = (   0.3732349   0.9506802   1.0455518  )
        85        P      tau(  85) = (   0.7119823   0.9571059   1.0571887  )
        86        P      tau(  86) = (   0.9615208   0.6238477   0.7461808  )
        87        P      tau(  87) = (   0.7927710   0.0845145   0.7491041  )
        88        P      tau(  88) = (   0.5426404   0.4144760   1.0609615  )
        89        O      tau(  89) = (   0.6326879   0.8866267   0.9212117  )
        90        O      tau(  90) = (   0.8842163   0.6958291   0.8824032  )
        91        O      tau(  91) = (   0.8716178   0.1552836   0.8852381  )
        92        O      tau(  92) = (   0.6212010   0.3433751   0.9249961  )
        93        O      tau(  93) = (   0.6507714   0.8687427   1.1830599  )
        94        O      tau(  94) = (   0.9014054   0.7139543   0.6209553  )
        95        O      tau(  95) = (   0.8548963   0.1722994   0.6234348  )
        96        O      tau(  96) = (   0.6044469   0.3253792   1.1859242  )
        97        O      tau(  97) = (   0.6024424   0.5698225   1.0577892  )
        98        O      tau(  98) = (   0.8498940   1.0129567   0.7474033  )
        99        O      tau(  99) = (   0.8798395   0.4080910   1.0504647  )
       100        O      tau( 100) = (   0.6286921   0.0909721   0.7596222  )
       101        O      tau( 101) = (   0.6294973   0.6302838   0.7571429  )
       102        O      tau( 102) = (   0.9024339   0.4685397   0.7495295  )
       103        O      tau( 103) = (   0.6547812   0.0286072   1.0595512  )
       104        O      tau( 104) = (   0.8760507   0.9507690   1.0463383  )
       105        Mn     tau( 105) = (   0.2366231   0.8099108   1.3652025  )
       106        Ni     tau( 106) = (   0.5054159   0.7462824   1.6760027  )
       107        Ni     tau( 107) = (   0.0089171   0.2673656   1.3686123  )
       108        Ni     tau( 108) = (   0.2644416   0.1993195   1.7084151  )
       109        Ni     tau( 109) = (   1.0061379   1.0432337   1.5350349  )
       110        Ni     tau( 110) = (   0.2518568   0.5022264   1.5321875  )
       111        Ni     tau( 111) = (   0.7428918   0.8054563   1.3680737  )
       112        Ni     tau( 112) = (   1.0041850   0.7431092   1.6780598  )
       113        Ni     tau( 113) = (   0.5112288   0.2659826   1.3709479  )
       114        Ni     tau( 114) = (   0.7532805   0.2088052   1.6753652  )
       115        Ni     tau( 115) = (   0.5047699   1.0448721   1.5373338  )
       116        Ni     tau( 116) = (   0.7503649   0.5053471   1.5308247  )
       117        P      tau( 117) = (   0.2161577   0.9302828   1.6982302  )
       118        P      tau( 118) = (   0.4629997   0.6076656   1.3708803  )
       119        P      tau( 119) = (   0.2923548   0.0759931   1.3761085  )
       120        P      tau( 120) = (   0.0403728   0.3936694   1.6855939  )
       121        O      tau( 121) = (   0.1364693   0.8668413   1.5531897  )
       122        O      tau( 122) = (   0.3862188   0.6762237   1.5077855  )
       123        O      tau( 123) = (   0.3702313   0.1459453   1.5113118  )
       124        O      tau( 124) = (   0.1164972   0.3354481   1.5416341  )
       125        O      tau( 125) = (   0.1561077   0.8312184   1.8121815  )
       126        O      tau( 126) = (   0.4024345   0.6977036   1.2456547  )
       127        O      tau( 127) = (   0.3529885   0.1608260   1.2478482  )
       128        O      tau( 128) = (   0.0988259   0.2967762   1.8028337  )
       129        O      tau( 129) = (   0.0955223   0.5521437   1.6882589  )
       130        O      tau( 130) = (   0.3501042   0.9948817   1.3794940  )
       131        O      tau( 131) = (   0.3769862   0.3955830   1.6820705  )
       132        O      tau( 132) = (   0.1282711   0.0787148   1.3850164  )
       133        O      tau( 133) = (   0.1228222   0.6171400   1.3807433  )
       134        O      tau( 134) = (   0.4031340   0.4526637   1.3730383  )
       135        O      tau( 135) = (   0.1564153   0.0102487   1.6911737  )
       136        O      tau( 136) = (   0.3803451   0.9249762   1.6777280  )
       137        P      tau( 137) = (   0.7174345   0.9334429   1.6935398  )
       138        P      tau( 138) = (   0.9584537   0.6093492   1.3691178  )
       139        P      tau( 139) = (   0.7939811   0.0700328   1.3725244  )
       140        P      tau( 140) = (   0.5416921   0.3997600   1.6930504  )
       141        O      tau( 141) = (   0.6378837   0.8729788   1.5477586  )
       142        O      tau( 142) = (   0.8828523   0.6807110   1.5061576  )
       143        O      tau( 143) = (   0.8725292   0.1417236   1.5079952  )
       144        O      tau( 144) = (   0.6175250   0.3342570   1.5484665  )
       145        O      tau( 145) = (   0.6556870   0.8369021   1.8084207  )
       146        O      tau( 146) = (   0.8987137   0.6988347   1.2434250  )
       147        O      tau( 147) = (   0.8547435   0.1573124   1.2458538  )
       148        O      tau( 148) = (   0.6058869   0.3057682   1.8100154  )
       149        O      tau( 149) = (   0.5996895   0.5564472   1.6887454  )
       150        O      tau( 150) = (   0.8537678   0.9909218   1.3764211  )
       151        O      tau( 151) = (   0.8747176   0.3908074   1.6749590  )
       152        O      tau( 152) = (   0.6300578   0.0775778   1.3854873  )
       153        O      tau( 153) = (   0.6270029   0.6154737   1.3814513  )
       154        O      tau( 154) = (   0.8992703   0.4545543   1.3717766  )
       155        O      tau( 155) = (   0.6630869   0.0162628   1.6912339  )
       156        O      tau( 156) = (   0.8822397   0.9273982   1.6791779  )
       157        O      tau( 157) = (   0.3804616   0.1173447   1.8413832  )
       158        H      tau( 158) = (   0.4636452   0.1772953   1.8643216  )

     -------------------------------------------------
     Parameters for Dispersion (Grimme-D2) Correction:
     -------------------------------------------------
       atom      VdW radius       C_6     

        Ni         2.952        374.666
        Mn         2.952        374.666
        P          3.222        271.980
        O          2.536         24.284
        H          1.892          4.857

     number of k points=     1  Gaussian smearing, width (Ry)=  0.0100
                       cart. coord. in units 2pi/alat
        k(    1) = (   0.0000000   0.0000000   0.0000000), wk =   1.0000000

     Dense  grid:  1918138 G-vectors     FFT dimensions: ( 125, 135, 432)

     Smooth grid:   485265 G-vectors     FFT dimensions: (  80,  90, 288)

     Estimated max dynamical RAM per process >     320.12 MB

     Estimated total dynamical RAM >      20.01 GB
     Generating pointlists ...
     new r_m :   0.0803 (alat units)  1.4207 (a.u.) for type    1
     new r_m :   0.0869 (alat units)  1.5388 (a.u.) for type    2
     new r_m :   0.0650 (alat units)  1.1499 (a.u.) for type    3
     new r_m :   0.0433 (alat units)  0.7672 (a.u.) for type    4
     new r_m :   0.0433 (alat units)  0.7672 (a.u.) for type    5

     Initial potential from superposition of free atoms

     starting charge    1077.8900, renormalised to    1078.0000

     negative rho (up, down):  1.237E-03 4.538E-04
 
     Adding external electric field

     Computed dipole along edir(3) : 
        Dipole                1.6236 Ry au,          4.1268 Debye
        Dipole field          0.0010 Ry au, 
 
        Potential amp.       -0.1090 Ry
        Total length         54.2615 bohr
 
 
     Adding external electric field

     Computed dipole along edir(3) : 
        Dipole                1.6236 Ry au,          4.1268 Debye
        Dipole field          0.0010 Ry au, 
 
        Potential amp.       -0.1090 Ry
        Total length         54.2615 bohr
 
     Starting wfcs are  812 randomized atomic wfcs

     total cpu time spent up to now is        9.9 secs

     Self-consistent Calculation

     iteration #  1     ecut=    50.00 Ry     beta= 0.10
     Davidson diagonalization with overlap
     ethr =  1.00E-02,  avg # of iterations =  6.0

     negative rho (up, down):  3.317E-01 1.825E-06
 
     Adding external electric field

     Computed dipole along edir(3) : 
        Dipole               -3.5607 Ry au,         -9.0505 Debye
        Dipole field         -0.0022 Ry au, 
 
        Potential amp.        0.2390 Ry
        Total length         54.2615 bohr
 
 
     Adding external electric field

     Computed dipole along edir(3) : 
        Dipole               -3.5607 Ry au,         -9.0505 Debye
        Dipole field         -0.0022 Ry au, 
 
        Potential amp.        0.2390 Ry
        Total length         54.2615 bohr
 

     total cpu time spent up to now is       34.9 secs

     total energy              =   -7178.78687095 Ry
     estimated scf accuracy    <     755.80841280 Ry

     total magnetization       =   216.00 Bohr mag/cell
     absolute magnetization    =   296.75 Bohr mag/cell

     iteration #  2     ecut=    50.00 Ry     beta= 0.10
     Davidson diagonalization with overlap
     ethr =  1.00E-02,  avg # of iterations =  2.0

     negative rho (up, down):  3.147E-01 1.667E-06
 
     Adding external electric field

     Computed dipole along edir(3) : 
        Dipole               -2.3789 Ry au,         -6.0465 Debye
        Dipole field         -0.0015 Ry au, 
 
        Potential amp.        0.1597 Ry
        Total length         54.2615 bohr
 
 
     Adding external electric field

     Computed dipole along edir(3) : 
        Dipole               -2.3789 Ry au,         -6.0465 Debye
        Dipole field         -0.0015 Ry au, 
 
        Potential amp.        0.1597 Ry
        Total length         54.2615 bohr
 

     total cpu time spent up to now is       49.8 secs

     total energy              =   -7262.28880712 Ry
     estimated scf accuracy    <     206.51610109 Ry

     total magnetization       =   149.91 Bohr mag/cell
     absolute magnetization    =   199.78 Bohr mag/cell

     iteration #  3     ecut=    50.00 Ry     beta= 0.10
     Davidson diagonalization with overlap
     ethr =  1.00E-02,  avg # of iterations =  1.5

     negative rho (up, down):  2.771E-01 1.495E-06
 
     Adding external electric field

     Computed dipole along edir(3) : 
        Dipole               -2.0330 Ry au,         -5.1673 Debye
        Dipole field         -0.0013 Ry au, 
 
        Potential amp.        0.1364 Ry
        Total length         54.2615 bohr
 
 
     Adding external electric field

     Computed dipole along edir(3) : 
        Dipole               -2.0330 Ry au,         -5.1673 Debye
        Dipole field         -0.0013 Ry au, 
 
        Potential amp.        0.1364 Ry
        Total length         54.2615 bohr
 

     total cpu time spent up to now is       61.8 secs

     total energy              =   -7292.89437517 Ry
     estimated scf accuracy    <      98.07469758 Ry

     total magnetization       =   125.19 Bohr mag/cell
     absolute magnetization    =   179.09 Bohr mag/cell

     iteration #  4     ecut=    50.00 Ry     beta= 0.10
     Davidson diagonalization with overlap
     ethr =  9.10E-03,  avg # of iterations =  1.5

     negative rho (up, down):  2.058E-01 4.422E-07
 
     Adding external electric field

     Computed dipole along edir(3) : 
        Dipole               -1.9502 Ry au,         -4.9570 Debye
        Dipole field         -0.0012 Ry au, 
 
        Potential amp.        0.1309 Ry
        Total length         54.2615 bohr
 
 
     Adding external electric field

     Computed dipole along edir(3) : 
        Dipole               -1.9502 Ry au,         -4.9570 Debye
        Dipole field         -0.0012 Ry au, 
 
        Potential amp.        0.1309 Ry
        Total length         54.2615 bohr
 

     total cpu time spent up to now is       73.7 secs

     total energy              =   -7327.56913349 Ry
     estimated scf accuracy    <      78.34572557 Ry

     total magnetization       =   110.38 Bohr mag/cell
     absolute magnetization    =   164.85 Bohr mag/cell

     iteration #  5     ecut=    50.00 Ry     beta= 0.10
     Davidson diagonalization with overlap
     ethr =  7.27E-03,  avg # of iterations =  1.5

     negative rho (up, down):  7.235E-03 9.063E-07
 
     Adding external electric field

     Computed dipole along edir(3) : 
        Dipole               -1.5105 Ry au,         -3.8393 Debye
        Dipole field         -0.0009 Ry au, 
 
        Potential amp.        0.1014 Ry
        Total length         54.2615 bohr
 
 
     Adding external electric field

     Computed dipole along edir(3) : 
        Dipole               -1.5105 Ry au,         -3.8393 Debye
        Dipole field         -0.0009 Ry au, 
 
        Potential amp.        0.1014 Ry
        Total length         54.2615 bohr
 

     total cpu time spent up to now is       85.6 secs

     total energy              =   -7386.18163524 Ry
     estimated scf accuracy    <      60.62050363 Ry

     total magnetization       =    88.01 Bohr mag/cell
     absolute magnetization    =   145.73 Bohr mag/cell

     iteration #  6     ecut=    50.00 Ry     beta= 0.10
     Davidson diagonalization with overlap
     ethr =  5.62E-03,  avg # of iterations =  1.5

     negative rho (up, down):  2.913E-04 3.651E-04
 
     Adding external electric field

     Computed dipole along edir(3) : 
        Dipole               -1.1892 Ry au,         -3.0226 Debye
        Dipole field         -0.0007 Ry au, 
 
        Potential amp.        0.0798 Ry
        Total length         54.2615 bohr
 
 
     Adding external electric field

     Computed dipole along edir(3) : 
        Dipole               -1.1892 Ry au,         -3.0226 Debye
        Dipole field         -0.0007 Ry au, 
 
        Potential amp.        0.0798 Ry
        Total length         54.2615 bohr
 

     total cpu time spent up to now is       97.7 secs

     total energy              =   -7395.49079251 Ry
     estimated scf accuracy    <       9.98035422 Ry

     total magnetization       =    81.94 Bohr mag/cell
     absolute magnetization    =   115.48 Bohr mag/cell

     iteration #  7     ecut=    50.00 Ry     beta= 0.10
     Davidson diagonalization with overlap
     ethr =  9.26E-04,  avg # of iterations =  4.5

     negative rho (up, down):  2.775E-04 3.539E-04
 
     Adding external electric field

     Computed dipole along edir(3) : 
        Dipole               -1.1930 Ry au,         -3.0323 Debye
        Dipole field         -0.0007 Ry au, 
 
        Potential amp.        0.0801 Ry
        Total length         54.2615 bohr
 
 
     Adding external electric field

     Computed dipole along edir(3) : 
        Dipole               -1.1930 Ry au,         -3.0323 Debye
        Dipole field         -0.0007 Ry au, 
 
        Potential amp.        0.0801 Ry
        Total length         54.2615 bohr
 

     total cpu time spent up to now is      115.9 secs

     total energy              =   -7397.64414879 Ry
     estimated scf accuracy    <      11.30080272 Ry

     total magnetization       =    71.27 Bohr mag/cell
     absolute magnetization    =    88.62 Bohr mag/cell

     iteration #  8     ecut=    50.00 Ry     beta= 0.10
     Davidson diagonalization with overlap
     ethr =  9.26E-04,  avg # of iterations =  1.0

     negative rho (up, down):  2.204E-04 2.755E-04
 
     Adding external electric field

     Computed dipole along edir(3) : 
        Dipole               -1.1957 Ry au,         -3.0392 Debye
        Dipole field         -0.0007 Ry au, 
 
        Potential amp.        0.0802 Ry
        Total length         54.2615 bohr
 
 
     Adding external electric field

     Computed dipole along edir(3) : 
        Dipole               -1.1957 Ry au,         -3.0392 Debye
        Dipole field         -0.0007 Ry au, 
 
        Potential amp.        0.0802 Ry
        Total length         54.2615 bohr
 

     total cpu time spent up to now is      126.3 secs

     total energy              =   -7397.61484316 Ry
     estimated scf accuracy    <      10.83553779 Ry

     total magnetization       =    71.49 Bohr mag/cell
     absolute magnetization    =    88.47 Bohr mag/cell

     iteration #  9     ecut=    50.00 Ry     beta= 0.10
     Davidson diagonalization with overlap
     ethr =  9.26E-04,  avg # of iterations =  1.0

     negative rho (up, down):  2.134E-04 3.450E-04
 
     Adding external electric field

     Computed dipole along edir(3) : 
        Dipole               -1.2207 Ry au,         -3.1027 Debye
        Dipole field         -0.0008 Ry au, 
 
        Potential amp.        0.0819 Ry
        Total length         54.2615 bohr
 
 
     Adding external electric field

     Computed dipole along edir(3) : 
        Dipole               -1.2207 Ry au,         -3.1027 Debye
        Dipole field         -0.0008 Ry au, 
 
        Potential amp.        0.0819 Ry
        Total length         54.2615 bohr
 

     total cpu time spent up to now is      137.0 secs

     total energy              =   -7397.43644888 Ry
     estimated scf accuracy    <       9.30831145 Ry

     total magnetization       =    71.99 Bohr mag/cell
     absolute magnetization    =    88.22 Bohr mag/cell

     iteration # 10     ecut=    50.00 Ry     beta= 0.10
     Davidson diagonalization with overlap
     ethr =  8.63E-04,  avg # of iterations =  1.5

     negative rho (up, down):  1.960E-04 4.093E-04
 
     Adding external electric field

     Computed dipole along edir(3) : 
        Dipole               -1.2456 Ry au,         -3.1659 Debye
        Dipole field         -0.0008 Ry au, 
 
        Potential amp.        0.0836 Ry
        Total length         54.2615 bohr
 
 
     Adding external electric field

     Computed dipole along edir(3) : 
        Dipole               -1.2456 Ry au,         -3.1659 Debye
        Dipole field         -0.0008 Ry au, 
 
        Potential amp.        0.0836 Ry
        Total length         54.2615 bohr
 

     total cpu time spent up to now is      148.5 secs

     total energy              =   -7397.61322502 Ry
     estimated scf accuracy    <       2.55038810 Ry

     total magnetization       =    77.33 Bohr mag/cell
     absolute magnetization    =    89.40 Bohr mag/cell

     iteration # 11     ecut=    50.00 Ry     beta= 0.10
     Davidson diagonalization with overlap
     ethr =  2.37E-04,  avg # of iterations =  2.0

     negative rho (up, down):  1.728E-04 3.884E-04
 
     Adding external electric field

     Computed dipole along edir(3) : 
        Dipole               -1.3368 Ry au,         -3.3979 Debye
        Dipole field         -0.0008 Ry au, 
 
        Potential amp.        0.0897 Ry
        Total length         54.2615 bohr
 
 
     Adding external electric field

     Computed dipole along edir(3) : 
        Dipole               -1.3368 Ry au,         -3.3979 Debye
        Dipole field         -0.0008 Ry au, 
 
        Potential amp.        0.0897 Ry
        Total length         54.2615 bohr
 

     total cpu time spent up to now is      160.4 secs

     total energy              =   -7397.64825799 Ry
     estimated scf accuracy    <       2.22528948 Ry

     total magnetization       =    77.25 Bohr mag/cell
     absolute magnetization    =    88.50 Bohr mag/cell

     iteration # 12     ecut=    50.00 Ry     beta= 0.10
     Davidson diagonalization with overlap
     ethr =  2.06E-04,  avg # of iterations =  2.0

     negative rho (up, down):  4.079E-04 1.193E-03
 
     Adding external electric field

     Computed dipole along edir(3) : 
        Dipole               -1.4054 Ry au,         -3.5721 Debye
        Dipole field         -0.0009 Ry au, 
 
        Potential amp.        0.0943 Ry
        Total length         54.2615 bohr
 
 
     Adding external electric field

     Computed dipole along edir(3) : 
        Dipole               -1.4054 Ry au,         -3.5721 Debye
        Dipole field         -0.0009 Ry au, 
 
        Potential amp.        0.0943 Ry
        Total length         54.2615 bohr
 

     total cpu time spent up to now is      172.8 secs

     total energy              =   -7397.74089222 Ry
     estimated scf accuracy    <       1.06599449 Ry

     total magnetization       =    77.92 Bohr mag/cell
     absolute magnetization    =    88.11 Bohr mag/cell

     iteration # 13     ecut=    50.00 Ry     beta= 0.10
     Davidson diagonalization with overlap
     c_bands:  1 eigenvalues not converged
     ethr =  9.89E-05,  avg # of iterations = 21.0

     negative rho (up, down):  5.770E-04 1.346E-03
 
     Adding external electric field

     Computed dipole along edir(3) : 
        Dipole               -1.4179 Ry au,         -3.6040 Debye
        Dipole field         -0.0009 Ry au, 
 
        Potential amp.        0.0952 Ry
        Total length         54.2615 bohr
 
 
     Adding external electric field

     Computed dipole along edir(3) : 
        Dipole               -1.4179 Ry au,         -3.6040 Debye
        Dipole field         -0.0009 Ry au, 
 
        Potential amp.        0.0952 Ry
        Total length         54.2615 bohr
 

     total cpu time spent up to now is      205.6 secs

     total energy              =   -7397.90405596 Ry
     estimated scf accuracy    <       0.53385639 Ry

     total magnetization       =    81.27 Bohr mag/cell
     absolute magnetization    =    87.88 Bohr mag/cell

     iteration # 14     ecut=    50.00 Ry     beta= 0.10
     Davidson diagonalization with overlap
     ethr =  4.95E-05,  avg # of iterations =  1.5

     negative rho (up, down):  1.957E-04 5.905E-04
 
     Adding external electric field

     Computed dipole along edir(3) : 
        Dipole               -1.3207 Ry au,         -3.3569 Debye
        Dipole field         -0.0008 Ry au, 
 
        Potential amp.        0.0886 Ry
        Total length         54.2615 bohr
 
 
     Adding external electric field

     Computed dipole along edir(3) : 
        Dipole               -1.3207 Ry au,         -3.3569 Debye
        Dipole field         -0.0008 Ry au, 
 
        Potential amp.        0.0886 Ry
        Total length         54.2615 bohr
 

     total cpu time spent up to now is      216.5 secs

     total energy              =   -7397.97376657 Ry
     estimated scf accuracy    <       0.59152498 Ry

     total magnetization       =    81.75 Bohr mag/cell
     absolute magnetization    =    87.16 Bohr mag/cell

     iteration # 15     ecut=    50.00 Ry     beta= 0.10
     Davidson diagonalization with overlap
     ethr =  4.95E-05,  avg # of iterations =  1.5

     negative rho (up, down):  2.621E-07 6.042E-06
 
     Adding external electric field

     Computed dipole along edir(3) : 
        Dipole               -1.1336 Ry au,         -2.8813 Debye
        Dipole field         -0.0007 Ry au, 
 
        Potential amp.        0.0761 Ry
        Total length         54.2615 bohr
 
 
     Adding external electric field

     Computed dipole along edir(3) : 
        Dipole               -1.1336 Ry au,         -2.8813 Debye
        Dipole field         -0.0007 Ry au, 
 
        Potential amp.        0.0761 Ry
        Total length         54.2615 bohr
 

     total cpu time spent up to now is      227.7 secs

     total energy              =   -7397.98826526 Ry
     estimated scf accuracy    <       0.34039698 Ry

     total magnetization       =    81.47 Bohr mag/cell
     absolute magnetization    =    85.48 Bohr mag/cell

     iteration # 16     ecut=    50.00 Ry     beta= 0.10
     Davidson diagonalization with overlap
     ethr =  3.16E-05,  avg # of iterations =  2.0

     negative rho (up, down):  3.714E-07 3.036E-06
 
     Adding external electric field

     Computed dipole along edir(3) : 
        Dipole               -1.1454 Ry au,         -2.9114 Debye
        Dipole field         -0.0007 Ry au, 
 
        Potential amp.        0.0769 Ry
        Total length         54.2615 bohr
 
 
     Adding external electric field

     Computed dipole along edir(3) : 
        Dipole               -1.1454 Ry au,         -2.9114 Debye
        Dipole field         -0.0007 Ry au, 
 
        Potential amp.        0.0769 Ry
        Total length         54.2615 bohr
 

     total cpu time spent up to now is      239.9 secs

     total energy              =   -7398.00477903 Ry
     estimated scf accuracy    <       0.42282494 Ry

     total magnetization       =    79.92 Bohr mag/cell
     absolute magnetization    =    83.39 Bohr mag/cell

     iteration # 17     ecut=    50.00 Ry     beta= 0.10
     Davidson diagonalization with overlap
     ethr =  3.16E-05,  avg # of iterations =  1.0

     negative rho (up, down):  1.647E-07 8.429E-05
 
     Adding external electric field

     Computed dipole along edir(3) : 
        Dipole               -1.0019 Ry au,         -2.5467 Debye
        Dipole field         -0.0006 Ry au, 
 
        Potential amp.        0.0672 Ry
        Total length         54.2615 bohr
 
 
     Adding external electric field

     Computed dipole along edir(3) : 
        Dipole               -1.0019 Ry au,         -2.5467 Debye
        Dipole field         -0.0006 Ry au, 
 
        Potential amp.        0.0672 Ry
        Total length         54.2615 bohr
 

     total cpu time spent up to now is      250.9 secs

     total energy              =   -7398.01674689 Ry
     estimated scf accuracy    <       0.50821643 Ry

     total magnetization       =    79.88 Bohr mag/cell
     absolute magnetization    =    83.43 Bohr mag/cell

     iteration # 18     ecut=    50.00 Ry     beta= 0.10
     Davidson diagonalization with overlap
     ethr =  3.16E-05,  avg # of iterations =  1.0

     negative rho (up, down):  3.383E-05 1.172E-04
 
     Adding external electric field

     Computed dipole along edir(3) : 
        Dipole               -0.9322 Ry au,         -2.3694 Debye
        Dipole field         -0.0006 Ry au, 
 
        Potential amp.        0.0626 Ry
        Total length         54.2615 bohr
 
 
     Adding external electric field

     Computed dipole along edir(3) : 
        Dipole               -0.9322 Ry au,         -2.3694 Debye
        Dipole field         -0.0006 Ry au, 
 
        Potential amp.        0.0626 Ry
        Total length         54.2615 bohr
 

     total cpu time spent up to now is      261.1 secs

     total energy              =   -7398.03869536 Ry
     estimated scf accuracy    <       0.12725715 Ry

     total magnetization       =    80.68 Bohr mag/cell
     absolute magnetization    =    82.96 Bohr mag/cell

     iteration # 19     ecut=    50.00 Ry     beta= 0.10
     Davidson diagonalization with overlap
     ethr =  1.18E-05,  avg # of iterations =  2.0

     negative rho (up, down):  8.069E-06 4.370E-05
 
     Adding external electric field

     Computed dipole along edir(3) : 
        Dipole               -0.9107 Ry au,         -2.3148 Debye
        Dipole field         -0.0006 Ry au, 
 
        Potential amp.        0.0611 Ry
        Total length         54.2615 bohr
 
 
     Adding external electric field

     Computed dipole along edir(3) : 
        Dipole               -0.9107 Ry au,         -2.3148 Debye
        Dipole field         -0.0006 Ry au, 
 
        Potential amp.        0.0611 Ry
        Total length         54.2615 bohr
 

     total cpu time spent up to now is      273.3 secs

     total energy              =   -7398.03770537 Ry
     estimated scf accuracy    <       0.09847959 Ry

     total magnetization       =    80.53 Bohr mag/cell
     absolute magnetization    =    82.43 Bohr mag/cell

     iteration # 20     ecut=    50.00 Ry     beta= 0.10
     Davidson diagonalization with overlap
     ethr =  9.14E-06,  avg # of iterations =  2.0

     negative rho (up, down):  5.176E-07 2.968E-05
 
     Adding external electric field

     Computed dipole along edir(3) : 
        Dipole               -0.8872 Ry au,         -2.2551 Debye
        Dipole field         -0.0005 Ry au, 
 
        Potential amp.        0.0595 Ry
        Total length         54.2615 bohr
 
 
     Adding external electric field

     Computed dipole along edir(3) : 
        Dipole               -0.8872 Ry au,         -2.2551 Debye
        Dipole field         -0.0005 Ry au, 
 
        Potential amp.        0.0595 Ry
        Total length         54.2615 bohr
 

     total cpu time spent up to now is      285.4 secs

     total energy              =   -7398.03806410 Ry
     estimated scf accuracy    <       0.13107360 Ry

     total magnetization       =    79.91 Bohr mag/cell
     absolute magnetization    =    81.87 Bohr mag/cell

     iteration # 21     ecut=    50.00 Ry     beta= 0.10
     Davidson diagonalization with overlap
     ethr =  9.14E-06,  avg # of iterations =  2.0

     negative rho (up, down):  3.908E-07 1.702E-05
 
     Adding external electric field

     Computed dipole along edir(3) : 
        Dipole               -0.8172 Ry au,         -2.0772 Debye
        Dipole field         -0.0005 Ry au, 
 
        Potential amp.        0.0548 Ry
        Total length         54.2615 bohr
 
 
     Adding external electric field

     Computed dipole along edir(3) : 
        Dipole               -0.8172 Ry au,         -2.0772 Debye
        Dipole field         -0.0005 Ry au, 
 
        Potential amp.        0.0548 Ry
        Total length         54.2615 bohr
 

     total cpu time spent up to now is      297.5 secs

     total energy              =   -7398.03911162 Ry
     estimated scf accuracy    <       0.12463421 Ry

     total magnetization       =    80.09 Bohr mag/cell
     absolute magnetization    =    81.95 Bohr mag/cell

     iteration # 22     ecut=    50.00 Ry     beta= 0.10
     Davidson diagonalization with overlap
     ethr =  9.14E-06,  avg # of iterations =  2.0

     negative rho (up, down):  9.121E-08 2.066E-05
 
     Adding external electric field

     Computed dipole along edir(3) : 
        Dipole               -0.7724 Ry au,         -1.9633 Debye
        Dipole field         -0.0005 Ry au, 
 
        Potential amp.        0.0518 Ry
        Total length         54.2615 bohr
 
 
     Adding external electric field

     Computed dipole along edir(3) : 
        Dipole               -0.7724 Ry au,         -1.9633 Debye
        Dipole field         -0.0005 Ry au, 
 
        Potential amp.        0.0518 Ry
        Total length         54.2615 bohr
 

     total cpu time spent up to now is      309.8 secs

     total energy              =   -7398.03648757 Ry
     estimated scf accuracy    <       0.08620502 Ry

     total magnetization       =    79.99 Bohr mag/cell
     absolute magnetization    =    81.72 Bohr mag/cell

     iteration # 23     ecut=    50.00 Ry     beta= 0.10
     Davidson diagonalization with overlap
     ethr =  8.00E-06,  avg # of iterations =  2.0

     negative rho (up, down):  3.015E-07 3.174E-05
 
     Adding external electric field

     Computed dipole along edir(3) : 
        Dipole               -0.8164 Ry au,         -2.0751 Debye
        Dipole field         -0.0005 Ry au, 
 
        Potential amp.        0.0548 Ry
        Total length         54.2615 bohr
 
 
     Adding external electric field

     Computed dipole along edir(3) : 
        Dipole               -0.8164 Ry au,         -2.0751 Debye
        Dipole field         -0.0005 Ry au, 
 
        Potential amp.        0.0548 Ry
        Total length         54.2615 bohr
 

     total cpu time spent up to now is      322.4 secs

     total energy              =   -7398.03863273 Ry
     estimated scf accuracy    <       0.04948881 Ry

     total magnetization       =    80.35 Bohr mag/cell
     absolute magnetization    =    81.91 Bohr mag/cell

     iteration # 24     ecut=    50.00 Ry     beta= 0.10
     Davidson diagonalization with overlap
     c_bands:  4 eigenvalues not converged
     c_bands:  4 eigenvalues not converged
     ethr =  4.59E-06,  avg # of iterations = 30.0

     negative rho (up, down):  2.497E-07 2.073E-05
 
     Adding external electric field

     Computed dipole along edir(3) : 
        Dipole               -0.7123 Ry au,         -1.8104 Debye
        Dipole field         -0.0004 Ry au, 
 
        Potential amp.        0.0478 Ry
        Total length         54.2615 bohr
 
 
     Adding external electric field

     Computed dipole along edir(3) : 
        Dipole               -0.7123 Ry au,         -1.8104 Debye
        Dipole field         -0.0004 Ry au, 
 
        Potential amp.        0.0478 Ry
        Total length         54.2615 bohr
 

     total cpu time spent up to now is      354.5 secs

     total energy              =   -7398.03819307 Ry
     estimated scf accuracy    <       0.05388807 Ry

     total magnetization       =    80.38 Bohr mag/cell
     absolute magnetization    =    81.99 Bohr mag/cell

     iteration # 25     ecut=    50.00 Ry     beta= 0.10
     Davidson diagonalization with overlap
     c_bands:  1 eigenvalues not converged
     ethr =  4.59E-06,  avg # of iterations = 11.0

     negative rho (up, down):  3.255E-08 1.706E-05
 
     Adding external electric field

     Computed dipole along edir(3) : 
        Dipole               -0.7604 Ry au,         -1.9327 Debye
        Dipole field         -0.0005 Ry au, 
 
        Potential amp.        0.0510 Ry
        Total length         54.2615 bohr
 
 
     Adding external electric field

     Computed dipole along edir(3) : 
        Dipole               -0.7604 Ry au,         -1.9327 Debye
        Dipole field         -0.0005 Ry au, 
 
        Potential amp.        0.0510 Ry
        Total length         54.2615 bohr
 

     total cpu time spent up to now is      370.2 secs

     total energy              =   -7398.03621874 Ry
     estimated scf accuracy    <       0.09710698 Ry

     total magnetization       =    80.21 Bohr mag/cell
     absolute magnetization    =    81.72 Bohr mag/cell

     iteration # 26     ecut=    50.00 Ry     beta= 0.10
     Davidson diagonalization with overlap
     ethr =  4.59E-06,  avg # of iterations =  6.0

     negative rho (up, down):  3.047E-06 1.756E-05
 
     Adding external electric field

     Computed dipole along edir(3) : 
        Dipole               -0.6981 Ry au,         -1.7745 Debye
        Dipole field         -0.0004 Ry au, 
 
        Potential amp.        0.0469 Ry
        Total length         54.2615 bohr
 
 
     Adding external electric field

     Computed dipole along edir(3) : 
        Dipole               -0.6981 Ry au,         -1.7745 Debye
        Dipole field         -0.0004 Ry au, 
 
        Potential amp.        0.0469 Ry
        Total length         54.2615 bohr
 

     total cpu time spent up to now is      384.4 secs

     total energy              =   -7398.03754063 Ry
     estimated scf accuracy    <       0.08689898 Ry

     total magnetization       =    80.35 Bohr mag/cell
     absolute magnetization    =    81.88 Bohr mag/cell

     iteration # 27     ecut=    50.00 Ry     beta= 0.10
     Davidson diagonalization with overlap
     ethr =  4.59E-06,  avg # of iterations =  1.5

     negative rho (up, down):  2.301E-05 3.293E-05
 
     Adding external electric field

     Computed dipole along edir(3) : 
        Dipole               -0.6487 Ry au,         -1.6489 Debye
        Dipole field         -0.0004 Ry au, 
 
        Potential amp.        0.0435 Ry
        Total length         54.2615 bohr
 
 
     Adding external electric field

     Computed dipole along edir(3) : 
        Dipole               -0.6487 Ry au,         -1.6489 Debye
        Dipole field         -0.0004 Ry au, 
 
        Potential amp.        0.0435 Ry
        Total length         54.2615 bohr
 

     total cpu time spent up to now is      396.3 secs

     total energy              =   -7398.03899057 Ry
     estimated scf accuracy    <       0.08997959 Ry

     total magnetization       =    80.41 Bohr mag/cell
     absolute magnetization    =    82.00 Bohr mag/cell

     iteration # 28     ecut=    50.00 Ry     beta= 0.10
     Davidson diagonalization with overlap
     ethr =  4.59E-06,  avg # of iterations =  1.5

     negative rho (up, down):  1.153E-05 2.013E-05
 
     Adding external electric field

     Computed dipole along edir(3) : 
        Dipole               -0.6516 Ry au,         -1.6562 Debye
        Dipole field         -0.0004 Ry au, 
 
        Potential amp.        0.0437 Ry
        Total length         54.2615 bohr
 
 
     Adding external electric field

     Computed dipole along edir(3) : 
        Dipole               -0.6516 Ry au,         -1.6562 Debye
        Dipole field         -0.0004 Ry au, 
 
        Potential amp.        0.0437 Ry
        Total length         54.2615 bohr
 

     total cpu time spent up to now is      408.6 secs

     total energy              =   -7398.03970003 Ry
     estimated scf accuracy    <       0.04776738 Ry

     total magnetization       =    80.42 Bohr mag/cell
     absolute magnetization    =    82.07 Bohr mag/cell

     iteration # 29     ecut=    50.00 Ry     beta= 0.10
     Davidson diagonalization with overlap
     ethr =  4.43E-06,  avg # of iterations =  1.5

     negative rho (up, down):  5.908E-04 8.725E-04
 
     Adding external electric field

     Computed dipole along edir(3) : 
        Dipole               -0.5708 Ry au,         -1.4507 Debye
        Dipole field         -0.0004 Ry au, 
 
        Potential amp.        0.0383 Ry
        Total length         54.2615 bohr
 
 
     Adding external electric field

     Computed dipole along edir(3) : 
        Dipole               -0.5708 Ry au,         -1.4507 Debye
        Dipole field         -0.0004 Ry au, 
 
        Potential amp.        0.0383 Ry
        Total length         54.2615 bohr
 

     total cpu time spent up to now is      420.1 secs

     total energy              =   -7398.03771360 Ry
     estimated scf accuracy    <       0.06466142 Ry

     total magnetization       =    80.46 Bohr mag/cell
     absolute magnetization    =    82.09 Bohr mag/cell

     iteration # 30     ecut=    50.00 Ry     beta= 0.10
     Davidson diagonalization with overlap
     ethr =  4.43E-06,  avg # of iterations =  2.0

     negative rho (up, down):  1.224E-04 1.763E-04
 
     Adding external electric field

     Computed dipole along edir(3) : 
        Dipole               -0.6112 Ry au,         -1.5536 Debye
        Dipole field         -0.0004 Ry au, 
 
        Potential amp.        0.0410 Ry
        Total length         54.2615 bohr
 
 
     Adding external electric field

     Computed dipole along edir(3) : 
        Dipole               -0.6112 Ry au,         -1.5536 Debye
        Dipole field         -0.0004 Ry au, 
 
        Potential amp.        0.0410 Ry
        Total length         54.2615 bohr
 

     total cpu time spent up to now is      433.0 secs

     total energy              =   -7398.03884548 Ry
     estimated scf accuracy    <       0.04926112 Ry

     total magnetization       =    80.45 Bohr mag/cell
     absolute magnetization    =    82.18 Bohr mag/cell

     iteration # 31     ecut=    50.00 Ry     beta= 0.10
     Davidson diagonalization with overlap
     ethr =  4.43E-06,  avg # of iterations =  1.5

     negative rho (up, down):  1.811E-04 2.847E-04
 
     Adding external electric field

     Computed dipole along edir(3) : 
        Dipole               -0.5997 Ry au,         -1.5244 Debye
        Dipole field         -0.0004 Ry au, 
 
        Potential amp.        0.0403 Ry
        Total length         54.2615 bohr
 
 
     Adding external electric field

     Computed dipole along edir(3) : 
        Dipole               -0.5997 Ry au,         -1.5244 Debye
        Dipole field         -0.0004 Ry au, 
 
        Potential amp.        0.0403 Ry
        Total length         54.2615 bohr
 

     total cpu time spent up to now is      444.9 secs

     total energy              =   -7398.03861367 Ry
     estimated scf accuracy    <       0.05048967 Ry

     total magnetization       =    80.49 Bohr mag/cell
     absolute magnetization    =    82.23 Bohr mag/cell

     iteration # 32     ecut=    50.00 Ry     beta= 0.10
     Davidson diagonalization with overlap
     ethr =  4.43E-06,  avg # of iterations =  1.5

     negative rho (up, down):  1.184E-03 1.477E-03
 
     Adding external electric field

     Computed dipole along edir(3) : 
        Dipole               -0.5550 Ry au,         -1.4107 Debye
        Dipole field         -0.0003 Ry au, 
 
        Potential amp.        0.0372 Ry
        Total length         54.2615 bohr
 
 
     Adding external electric field

     Computed dipole along edir(3) : 
        Dipole               -0.5550 Ry au,         -1.4107 Debye
        Dipole field         -0.0003 Ry au, 
 
        Potential amp.        0.0372 Ry
        Total length         54.2615 bohr
 

     total cpu time spent up to now is      456.1 secs

     total energy              =   -7398.03768899 Ry
     estimated scf accuracy    <       0.05072466 Ry

     total magnetization       =    80.45 Bohr mag/cell
     absolute magnetization    =    82.18 Bohr mag/cell

     iteration # 33     ecut=    50.00 Ry     beta= 0.10
     Davidson diagonalization with overlap
     ethr =  4.43E-06,  avg # of iterations =  1.5

     negative rho (up, down):  1.462E-03 1.939E-03
 
     Adding external electric field

     Computed dipole along edir(3) : 
        Dipole               -0.5233 Ry au,         -1.3300 Debye
        Dipole field         -0.0003 Ry au, 
 
        Potential amp.        0.0351 Ry
        Total length         54.2615 bohr
 
 
     Adding external electric field

     Computed dipole along edir(3) : 
        Dipole               -0.5233 Ry au,         -1.3300 Debye
        Dipole field         -0.0003 Ry au, 
 
        Potential amp.        0.0351 Ry
        Total length         54.2615 bohr
 

     total cpu time spent up to now is      468.4 secs

     total energy              =   -7398.03701368 Ry
     estimated scf accuracy    <       0.04357310 Ry

     total magnetization       =    80.42 Bohr mag/cell
     absolute magnetization    =    82.22 Bohr mag/cell

     iteration # 34     ecut=    50.00 Ry     beta= 0.10
     Davidson diagonalization with overlap
     ethr =  4.04E-06,  avg # of iterations =  2.0

     negative rho (up, down):  1.585E-04 2.825E-04
 
     Adding external electric field

     Computed dipole along edir(3) : 
        Dipole               -0.5551 Ry au,         -1.4109 Debye
        Dipole field         -0.0003 Ry au, 
 
        Potential amp.        0.0373 Ry
        Total length         54.2615 bohr
 
 
     Adding external electric field

     Computed dipole along edir(3) : 
        Dipole               -0.5551 Ry au,         -1.4109 Debye
        Dipole field         -0.0003 Ry au, 
 
        Potential amp.        0.0373 Ry
        Total length         54.2615 bohr
 

     total cpu time spent up to now is      480.9 secs

     total energy              =   -7398.03731734 Ry
     estimated scf accuracy    <       0.02828591 Ry

     total magnetization       =    80.32 Bohr mag/cell
     absolute magnetization    =    82.07 Bohr mag/cell

     iteration # 35     ecut=    50.00 Ry     beta= 0.10
     Davidson diagonalization with overlap
     ethr =  2.62E-06,  avg # of iterations =  3.0

     negative rho (up, down):  2.703E-04 4.142E-04
 
     Adding external electric field

     Computed dipole along edir(3) : 
        Dipole               -0.5299 Ry au,         -1.3468 Debye
        Dipole field         -0.0003 Ry au, 
 
        Potential amp.        0.0356 Ry
        Total length         54.2615 bohr
 
 
     Adding external electric field

     Computed dipole along edir(3) : 
        Dipole               -0.5299 Ry au,         -1.3468 Debye
        Dipole field         -0.0003 Ry au, 
 
        Potential amp.        0.0356 Ry
        Total length         54.2615 bohr
 

     total cpu time spent up to now is      494.0 secs

     total energy              =   -7398.03725842 Ry
     estimated scf accuracy    <       0.03216674 Ry

     total magnetization       =    80.37 Bohr mag/cell
     absolute magnetization    =    82.08 Bohr mag/cell

     iteration # 36     ecut=    50.00 Ry     beta= 0.10
     Davidson diagonalization with overlap
     ethr =  2.62E-06,  avg # of iterations =  1.5

     negative rho (up, down):  2.217E-03 2.510E-03
 
     Adding external electric field

     Computed dipole along edir(3) : 
        Dipole               -0.3551 Ry au,         -0.9025 Debye
        Dipole field         -0.0002 Ry au, 
 
        Potential amp.        0.0238 Ry
        Total length         54.2615 bohr
 
 
     Adding external electric field

     Computed dipole along edir(3) : 
        Dipole               -0.3551 Ry au,         -0.9025 Debye
        Dipole field         -0.0002 Ry au, 
 
        Potential amp.        0.0238 Ry
        Total length         54.2615 bohr
 

     total cpu time spent up to now is      505.6 secs

     total energy              =   -7398.03594073 Ry
     estimated scf accuracy    <       0.02992868 Ry

     total magnetization       =    80.36 Bohr mag/cell
     absolute magnetization    =    82.07 Bohr mag/cell

     iteration # 37     ecut=    50.00 Ry     beta= 0.10
     Davidson diagonalization with overlap
     ethr =  2.62E-06,  avg # of iterations =  7.0

     negative rho (up, down):  1.285E-03 1.441E-03
 
     Adding external electric field

     Computed dipole along edir(3) : 
        Dipole               -0.3784 Ry au,         -0.9618 Debye
        Dipole field         -0.0002 Ry au, 
 
        Potential amp.        0.0254 Ry
        Total length         54.2615 bohr
 
 
     Adding external electric field

     Computed dipole along edir(3) : 
        Dipole               -0.3784 Ry au,         -0.9618 Debye
        Dipole field         -0.0002 Ry au, 
 
        Potential amp.        0.0254 Ry
        Total length         54.2615 bohr
 

     total cpu time spent up to now is      520.7 secs

     total energy              =   -7398.03679703 Ry
     estimated scf accuracy    <       0.02922843 Ry

     total magnetization       =    80.45 Bohr mag/cell
     absolute magnetization    =    82.01 Bohr mag/cell

     iteration # 38     ecut=    50.00 Ry     beta= 0.10
     Davidson diagonalization with overlap
     ethr =  2.62E-06,  avg # of iterations =  2.0

     negative rho (up, down):  7.416E-04 8.808E-04
 
     Adding external electric field

     Computed dipole along edir(3) : 
        Dipole               -0.4251 Ry au,         -1.0806 Debye
        Dipole field         -0.0003 Ry au, 
 
        Potential amp.        0.0285 Ry
        Total length         54.2615 bohr
 
 
     Adding external electric field

     Computed dipole along edir(3) : 
        Dipole               -0.4251 Ry au,         -1.0806 Debye
        Dipole field         -0.0003 Ry au, 
 
        Potential amp.        0.0285 Ry
        Total length         54.2615 bohr
 

     total cpu time spent up to now is      532.6 secs

     total energy              =   -7398.03596001 Ry
     estimated scf accuracy    <       0.03581157 Ry

     total magnetization       =    80.47 Bohr mag/cell
     absolute magnetization    =    82.03 Bohr mag/cell

     iteration # 39     ecut=    50.00 Ry     beta= 0.10
     Davidson diagonalization with overlap
     ethr =  2.62E-06,  avg # of iterations =  2.0

     negative rho (up, down):  7.835E-04 1.025E-03
 
     Adding external electric field

     Computed dipole along edir(3) : 
        Dipole               -0.4316 Ry au,         -1.0970 Debye
        Dipole field         -0.0003 Ry au, 
 
        Potential amp.        0.0290 Ry
        Total length         54.2615 bohr
 
 
     Adding external electric field

     Computed dipole along edir(3) : 
        Dipole               -0.4316 Ry au,         -1.0970 Debye
        Dipole field         -0.0003 Ry au, 
 
        Potential amp.        0.0290 Ry
        Total length         54.2615 bohr
 

     total cpu time spent up to now is      545.6 secs

     total energy              =   -7398.03547201 Ry
     estimated scf accuracy    <       0.01936630 Ry

     total magnetization       =    80.43 Bohr mag/cell
     absolute magnetization    =    82.01 Bohr mag/cell

     iteration # 40     ecut=    50.00 Ry     beta= 0.10
     Davidson diagonalization with overlap
     ethr =  1.80E-06,  avg # of iterations =  2.0

     negative rho (up, down):  1.985E-03 2.553E-03
 
     Adding external electric field

     Computed dipole along edir(3) : 
        Dipole               -0.3841 Ry au,         -0.9762 Debye
        Dipole field         -0.0002 Ry au, 
 
        Potential amp.        0.0258 Ry
        Total length         54.2615 bohr
 
 
     Adding external electric field

     Computed dipole along edir(3) : 
        Dipole               -0.3841 Ry au,         -0.9762 Debye
        Dipole field         -0.0002 Ry au, 
 
        Potential amp.        0.0258 Ry
        Total length         54.2615 bohr
 

     total cpu time spent up to now is      557.7 secs

     total energy              =   -7398.03476292 Ry
     estimated scf accuracy    <       0.01757261 Ry

     total magnetization       =    80.46 Bohr mag/cell
     absolute magnetization    =    82.05 Bohr mag/cell

     iteration # 41     ecut=    50.00 Ry     beta= 0.10
     Davidson diagonalization with overlap
     ethr =  1.63E-06,  avg # of iterations =  2.0

     negative rho (up, down):  2.668E-03 3.540E-03
 
     Adding external electric field

     Computed dipole along edir(3) : 
        Dipole               -0.3591 Ry au,         -0.9127 Debye
        Dipole field         -0.0002 Ry au, 
 
        Potential amp.        0.0241 Ry
        Total length         54.2615 bohr
 
 
     Adding external electric field

     Computed dipole along edir(3) : 
        Dipole               -0.3591 Ry au,         -0.9127 Debye
        Dipole field         -0.0002 Ry au, 
 
        Potential amp.        0.0241 Ry
        Total length         54.2615 bohr
 

     total cpu time spent up to now is      569.8 secs

     total energy              =   -7398.03423777 Ry
     estimated scf accuracy    <       0.01512542 Ry

     total magnetization       =    80.45 Bohr mag/cell
     absolute magnetization    =    82.07 Bohr mag/cell

     iteration # 42     ecut=    50.00 Ry     beta= 0.10
     Davidson diagonalization with overlap
     ethr =  1.40E-06,  avg # of iterations =  2.0

     negative rho (up, down):  9.888E-04 1.427E-03
 
     Adding external electric field

     Computed dipole along edir(3) : 
        Dipole               -0.2642 Ry au,         -0.6716 Debye
        Dipole field         -0.0002 Ry au, 
 
        Potential amp.        0.0177 Ry
        Total length         54.2615 bohr
 
 
     Adding external electric field

     Computed dipole along edir(3) : 
        Dipole               -0.2642 Ry au,         -0.6716 Debye
        Dipole field         -0.0002 Ry au, 
 
        Potential amp.        0.0177 Ry
        Total length         54.2615 bohr
 

     total cpu time spent up to now is      582.5 secs

     total energy              =   -7398.03484823 Ry
     estimated scf accuracy    <       0.01167683 Ry

     total magnetization       =    80.42 Bohr mag/cell
     absolute magnetization    =    82.05 Bohr mag/cell

     iteration # 43     ecut=    50.00 Ry     beta= 0.10
     Davidson diagonalization with overlap
     ethr =  1.08E-06,  avg # of iterations =  2.0

     negative rho (up, down):  5.044E-03 5.454E-03
 
     Adding external electric field

     Computed dipole along edir(3) : 
        Dipole               -0.1501 Ry au,         -0.3816 Debye
        Dipole field         -0.0001 Ry au, 
 
        Potential amp.        0.0101 Ry
        Total length         54.2615 bohr
 
 
     Adding external electric field

     Computed dipole along edir(3) : 
        Dipole               -0.1501 Ry au,         -0.3816 Debye
        Dipole field         -0.0001 Ry au, 
 
        Potential amp.        0.0101 Ry
        Total length         54.2615 bohr
 

     total cpu time spent up to now is      594.4 secs

     total energy              =   -7398.03574162 Ry
     estimated scf accuracy    <       0.00856608 Ry

     total magnetization       =    80.46 Bohr mag/cell
     absolute magnetization    =    81.98 Bohr mag/cell

     iteration # 44     ecut=    50.00 Ry     beta= 0.10
     Davidson diagonalization with overlap
     ethr =  7.95E-07,  avg # of iterations = 18.5

     negative rho (up, down):  2.222E-03 2.157E-03
 
     Adding external electric field

     Computed dipole along edir(3) : 
        Dipole               -0.1813 Ry au,         -0.4607 Debye
        Dipole field         -0.0001 Ry au, 
 
        Potential amp.        0.0122 Ry
        Total length         54.2615 bohr
 
 
     Adding external electric field

     Computed dipole along edir(3) : 
        Dipole               -0.1813 Ry au,         -0.4607 Debye
        Dipole field         -0.0001 Ry au, 
 
        Potential amp.        0.0122 Ry
        Total length         54.2615 bohr
 

     total cpu time spent up to now is      622.0 secs

     total energy              =   -7398.03595253 Ry
     estimated scf accuracy    <       0.00277392 Ry

     total magnetization       =    80.41 Bohr mag/cell
     absolute magnetization    =    81.95 Bohr mag/cell

     iteration # 45     ecut=    50.00 Ry     beta= 0.10
     Davidson diagonalization with overlap
     ethr =  2.57E-07,  avg # of iterations =  3.0

     negative rho (up, down):  1.947E-03 1.868E-03
 
     Adding external electric field

     Computed dipole along edir(3) : 
        Dipole               -0.1700 Ry au,         -0.4320 Debye
        Dipole field         -0.0001 Ry au, 
 
        Potential amp.        0.0114 Ry
        Total length         54.2615 bohr
 
 
     Adding external electric field

     Computed dipole along edir(3) : 
        Dipole               -0.1700 Ry au,         -0.4320 Debye
        Dipole field         -0.0001 Ry au, 
 
        Potential amp.        0.0114 Ry
        Total length         54.2615 bohr
 

     total cpu time spent up to now is      635.3 secs

     total energy              =   -7398.03601406 Ry
     estimated scf accuracy    <       0.00299195 Ry

     total magnetization       =    80.47 Bohr mag/cell
     absolute magnetization    =    82.01 Bohr mag/cell

     iteration # 46     ecut=    50.00 Ry     beta= 0.10
     Davidson diagonalization with overlap
     ethr =  2.57E-07,  avg # of iterations =  2.0

     negative rho (up, down):  9.943E-04 9.782E-04
 
     Adding external electric field

     Computed dipole along edir(3) : 
        Dipole               -0.1695 Ry au,         -0.4307 Debye
        Dipole field         -0.0001 Ry au, 
 
        Potential amp.        0.0114 Ry
        Total length         54.2615 bohr
 
 
     Adding external electric field

     Computed dipole along edir(3) : 
        Dipole               -0.1695 Ry au,         -0.4307 Debye
        Dipole field         -0.0001 Ry au, 
 
        Potential amp.        0.0114 Ry
        Total length         54.2615 bohr
 

     total cpu time spent up to now is      647.8 secs

     total energy              =   -7398.03599564 Ry
     estimated scf accuracy    <       0.00155018 Ry

     total magnetization       =    80.45 Bohr mag/cell
     absolute magnetization    =    81.99 Bohr mag/cell

     iteration # 47     ecut=    50.00 Ry     beta= 0.10
     Davidson diagonalization with overlap
     ethr =  1.44E-07,  avg # of iterations =  1.5

     negative rho (up, down):  4.496E-04 4.117E-04
 
     Adding external electric field

     Computed dipole along edir(3) : 
        Dipole               -0.1673 Ry au,         -0.4253 Debye
        Dipole field         -0.0001 Ry au, 
 
        Potential amp.        0.0112 Ry
        Total length         54.2615 bohr
 
 
     Adding external electric field

     Computed dipole along edir(3) : 
        Dipole               -0.1673 Ry au,         -0.4253 Debye
        Dipole field         -0.0001 Ry au, 
 
        Potential amp.        0.0112 Ry
        Total length         54.2615 bohr
 

     total cpu time spent up to now is      659.6 secs

     total energy              =   -7398.03601874 Ry
     estimated scf accuracy    <       0.00131865 Ry

     total magnetization       =    80.46 Bohr mag/cell
     absolute magnetization    =    81.99 Bohr mag/cell

     iteration # 48     ecut=    50.00 Ry     beta= 0.10
     Davidson diagonalization with overlap
     ethr =  1.22E-07,  avg # of iterations =  2.0

     negative rho (up, down):  1.710E-04 1.377E-04
 
     Adding external electric field

     Computed dipole along edir(3) : 
        Dipole               -0.1634 Ry au,         -0.4154 Debye
        Dipole field         -0.0001 Ry au, 
 
        Potential amp.        0.0110 Ry
        Total length         54.2615 bohr
 
 
     Adding external electric field

     Computed dipole along edir(3) : 
        Dipole               -0.1634 Ry au,         -0.4154 Debye
        Dipole field         -0.0001 Ry au, 
 
        Potential amp.        0.0110 Ry
        Total length         54.2615 bohr
 

     total cpu time spent up to now is      672.2 secs

     total energy              =   -7398.03604669 Ry
     estimated scf accuracy    <       0.00109059 Ry

     total magnetization       =    80.47 Bohr mag/cell
     absolute magnetization    =    82.00 Bohr mag/cell

     iteration # 49     ecut=    50.00 Ry     beta= 0.10
     Davidson diagonalization with overlap
     ethr =  1.01E-07,  avg # of iterations =  2.0

     negative rho (up, down):  1.785E-04 1.647E-04
 
     Adding external electric field

     Computed dipole along edir(3) : 
        Dipole               -0.1698 Ry au,         -0.4316 Debye
        Dipole field         -0.0001 Ry au, 
 
        Potential amp.        0.0114 Ry
        Total length         54.2615 bohr
 
 
     Adding external electric field

     Computed dipole along edir(3) : 
        Dipole               -0.1698 Ry au,         -0.4316 Debye
        Dipole field         -0.0001 Ry au, 
 
        Potential amp.        0.0114 Ry
        Total length         54.2615 bohr
 

     total cpu time spent up to now is      685.0 secs

     total energy              =   -7398.03604781 Ry
     estimated scf accuracy    <       0.00084088 Ry

     total magnetization       =    80.48 Bohr mag/cell
     absolute magnetization    =    82.00 Bohr mag/cell

     iteration # 50     ecut=    50.00 Ry     beta= 0.10
     Davidson diagonalization with overlap
     ethr =  7.80E-08,  avg # of iterations =  4.5

     negative rho (up, down):  1.498E-04 9.976E-05
 
     Adding external electric field

     Computed dipole along edir(3) : 
        Dipole               -0.1810 Ry au,         -0.4599 Debye
        Dipole field         -0.0001 Ry au, 
 
        Potential amp.        0.0121 Ry
        Total length         54.2615 bohr
 
 
     Adding external electric field

     Computed dipole along edir(3) : 
        Dipole               -0.1810 Ry au,         -0.4599 Debye
        Dipole field         -0.0001 Ry au, 
 
        Potential amp.        0.0121 Ry
        Total length         54.2615 bohr
 

     total cpu time spent up to now is      700.2 secs

     total energy              =   -7398.03603957 Ry
     estimated scf accuracy    <       0.00057124 Ry

     total magnetization       =    80.49 Bohr mag/cell
     absolute magnetization    =    82.02 Bohr mag/cell

     iteration # 51     ecut=    50.00 Ry     beta= 0.10
     Davidson diagonalization with overlap
     ethr =  5.30E-08,  avg # of iterations =  2.0

     negative rho (up, down):  2.916E-04 2.313E-04
 
     Adding external electric field

     Computed dipole along edir(3) : 
        Dipole               -0.1860 Ry au,         -0.4729 Debye
        Dipole field         -0.0001 Ry au, 
 
        Potential amp.        0.0125 Ry
        Total length         54.2615 bohr
 
 
     Adding external electric field

     Computed dipole along edir(3) : 
        Dipole               -0.1860 Ry au,         -0.4729 Debye
        Dipole field         -0.0001 Ry au, 
 
        Potential amp.        0.0125 Ry
        Total length         54.2615 bohr
 

     total cpu time spent up to now is      713.0 secs

     total energy              =   -7398.03601895 Ry
     estimated scf accuracy    <       0.00035044 Ry

     total magnetization       =    80.49 Bohr mag/cell
     absolute magnetization    =    82.01 Bohr mag/cell

     iteration # 52     ecut=    50.00 Ry     beta= 0.10
     Davidson diagonalization with overlap
     ethr =  3.25E-08,  avg # of iterations =  1.5

     negative rho (up, down):  7.771E-04 7.846E-04
 
     Adding external electric field

     Computed dipole along edir(3) : 
        Dipole               -0.1845 Ry au,         -0.4690 Debye
        Dipole field         -0.0001 Ry au, 
 
        Potential amp.        0.0124 Ry
        Total length         54.2615 bohr
 
 
     Adding external electric field

     Computed dipole along edir(3) : 
        Dipole               -0.1845 Ry au,         -0.4690 Debye
        Dipole field         -0.0001 Ry au, 
 
        Potential amp.        0.0124 Ry
        Total length         54.2615 bohr
 

     total cpu time spent up to now is      726.2 secs

     total energy              =   -7398.03601032 Ry
     estimated scf accuracy    <       0.00029819 Ry

     total magnetization       =    80.48 Bohr mag/cell
     absolute magnetization    =    82.00 Bohr mag/cell

     iteration # 53     ecut=    50.00 Ry     beta= 0.10
     Davidson diagonalization with overlap
     ethr =  2.77E-08,  avg # of iterations =  2.0

     negative rho (up, down):  9.449E-04 9.749E-04
 
     Adding external electric field

     Computed dipole along edir(3) : 
        Dipole               -0.1766 Ry au,         -0.4489 Debye
        Dipole field         -0.0001 Ry au, 
 
        Potential amp.        0.0119 Ry
        Total length         54.2615 bohr
 
 
     Adding external electric field

     Computed dipole along edir(3) : 
        Dipole               -0.1766 Ry au,         -0.4489 Debye
        Dipole field         -0.0001 Ry au, 
 
        Potential amp.        0.0119 Ry
        Total length         54.2615 bohr
 

     total cpu time spent up to now is      739.5 secs

     total energy              =   -7398.03601958 Ry
     estimated scf accuracy    <       0.00021600 Ry

     total magnetization       =    80.47 Bohr mag/cell
     absolute magnetization    =    82.00 Bohr mag/cell

     iteration # 54     ecut=    50.00 Ry     beta= 0.10
     Davidson diagonalization with overlap
     ethr =  2.00E-08,  avg # of iterations =  1.0

     negative rho (up, down):  7.987E-04 7.200E-04
 
     Adding external electric field

     Computed dipole along edir(3) : 
        Dipole               -0.1652 Ry au,         -0.4199 Debye
        Dipole field         -0.0001 Ry au, 
 
        Potential amp.        0.0111 Ry
        Total length         54.2615 bohr
 
 
     Adding external electric field

     Computed dipole along edir(3) : 
        Dipole               -0.1652 Ry au,         -0.4199 Debye
        Dipole field         -0.0001 Ry au, 
 
        Potential amp.        0.0111 Ry
        Total length         54.2615 bohr
 

     total cpu time spent up to now is      751.5 secs

     total energy              =   -7398.03604963 Ry
     estimated scf accuracy    <       0.00016514 Ry

     total magnetization       =    80.47 Bohr mag/cell
     absolute magnetization    =    81.99 Bohr mag/cell

     iteration # 55     ecut=    50.00 Ry     beta= 0.10
     Davidson diagonalization with overlap
     ethr =  1.53E-08,  avg # of iterations =  2.0

     negative rho (up, down):  9.855E-04 8.572E-04
 
     Adding external electric field

     Computed dipole along edir(3) : 
        Dipole               -0.1580 Ry au,         -0.4017 Debye
        Dipole field         -0.0001 Ry au, 
 
        Potential amp.        0.0106 Ry
        Total length         54.2615 bohr
 
 
     Adding external electric field

     Computed dipole along edir(3) : 
        Dipole               -0.1580 Ry au,         -0.4017 Debye
        Dipole field         -0.0001 Ry au, 
 
        Potential amp.        0.0106 Ry
        Total length         54.2615 bohr
 

     total cpu time spent up to now is      763.9 secs

     total energy              =   -7398.03606541 Ry
     estimated scf accuracy    <       0.00015937 Ry

     total magnetization       =    80.47 Bohr mag/cell
     absolute magnetization    =    81.99 Bohr mag/cell

     iteration # 56     ecut=    50.00 Ry     beta= 0.10
     Davidson diagonalization with overlap
     ethr =  1.48E-08,  avg # of iterations =  1.0

     negative rho (up, down):  1.375E-03 1.133E-03
 
     Adding external electric field

     Computed dipole along edir(3) : 
        Dipole               -0.1474 Ry au,         -0.3747 Debye
        Dipole field         -0.0001 Ry au, 
 
        Potential amp.        0.0099 Ry
        Total length         54.2615 bohr
 
 
     Adding external electric field

     Computed dipole along edir(3) : 
        Dipole               -0.1474 Ry au,         -0.3747 Debye
        Dipole field         -0.0001 Ry au, 
 
        Potential amp.        0.0099 Ry
        Total length         54.2615 bohr
 

     total cpu time spent up to now is      775.1 secs

     total energy              =   -7398.03607969 Ry
     estimated scf accuracy    <       0.00013419 Ry

     total magnetization       =    80.47 Bohr mag/cell
     absolute magnetization    =    81.99 Bohr mag/cell

     iteration # 57     ecut=    50.00 Ry     beta= 0.10
     Davidson diagonalization with overlap
     ethr =  1.24E-08,  avg # of iterations =  2.0

     negative rho (up, down):  1.513E-03 1.214E-03
 
     Adding external electric field

     Computed dipole along edir(3) : 
        Dipole               -0.1432 Ry au,         -0.3639 Debye
        Dipole field         -0.0001 Ry au, 
 
        Potential amp.        0.0096 Ry
        Total length         54.2615 bohr
 
 
     Adding external electric field

     Computed dipole along edir(3) : 
        Dipole               -0.1432 Ry au,         -0.3639 Debye
        Dipole field         -0.0001 Ry au, 
 
        Potential amp.        0.0096 Ry
        Total length         54.2615 bohr
 

     total cpu time spent up to now is      787.1 secs

     total energy              =   -7398.03608284 Ry
     estimated scf accuracy    <       0.00008792 Ry

     total magnetization       =    80.47 Bohr mag/cell
     absolute magnetization    =    82.00 Bohr mag/cell

     iteration # 58     ecut=    50.00 Ry     beta= 0.10
     Davidson diagonalization with overlap
     ethr =  8.16E-09,  avg # of iterations =  1.0

     negative rho (up, down):  1.584E-03 1.258E-03
 
     Adding external electric field

     Computed dipole along edir(3) : 
        Dipole               -0.1387 Ry au,         -0.3526 Debye
        Dipole field         -0.0001 Ry au, 
 
[...]
    -5.9965  -5.9695  -5.9584  -5.9252  -5.9113  -5.8679  -5.8597  -5.8507
    -5.8142  -5.8073  -5.7526  -5.7370  -5.7259  -5.7082  -5.6955  -5.6810
    -5.6717  -5.6671  -5.6352  -5.6195  -5.6116  -5.5784  -5.5317  -5.5072
    -5.4714  -5.4347  -5.4071  -5.3999  -5.3874  -5.3514  -5.3069  -5.2867
    -5.2400  -5.2136  -5.1875  -5.1721  -5.1690  -5.0814  -5.0802  -5.0572
    -4.9848  -4.9760  -4.9368  -4.9124  -4.8883  -4.8756  -4.8583  -4.7966
    -4.7800  -4.7618  -4.7498  -4.7342  -4.6437  -4.6276  -4.5735  -4.5503
    -4.5186  -4.5179  -4.4990  -4.4598  -4.4074  -4.3912  -4.3793  -4.3703
    -4.3580  -4.2944  -4.2941  -4.2291  -4.1736  -4.1430  -4.1052  -4.0938
    -4.0784  -4.0469  -4.0351  -3.9945  -3.9628  -3.9548  -3.9129  -3.8982
    -3.8767  -3.8395  -3.8247  -3.8071  -3.7958  -3.7618  -3.7481  -3.7320
    -3.7002  -3.6849  -3.6648  -3.6439  -3.6418  -3.6355  -3.5926  -3.5818
    -3.5441  -3.5265  -3.5111  -3.4941  -3.4871  -3.4750  -3.4531  -3.4410
    -3.4293  -3.3987  -3.3851  -3.3484  -3.3370  -3.3146  -3.2636  -3.2505
    -3.2331  -3.2155  -3.2135  -3.1837  -3.1774  -3.1663  -3.1497  -3.1425
    -3.1276  -3.0779  -3.0371  -3.0312  -3.0048  -3.0006  -2.9676  -2.9396
    -2.9178  -2.9172  -2.9004  -2.8718  -2.8576  -2.8364  -2.8175  -2.8089
    -2.7976  -2.7863  -2.7794  -2.7669  -2.7453  -2.7375  -2.7243  -2.6987
    -2.6810  -2.6657  -2.6620  -2.6507  -2.6237  -2.6110  -2.5924  -2.5794
    -2.5505  -2.5362  -2.5271  -2.5182  -2.4942  -2.4798  -2.4677  -2.4361
    -2.4129  -2.3978  -2.3932  -2.3692  -2.3566  -2.3130  -2.2936  -2.2845
    -2.2634  -2.2409  -2.2288  -2.2084  -2.1760  -2.1580  -2.1262  -2.1211
    -2.1102  -2.0862  -2.0778  -2.0706  -2.0689  -2.0374  -2.0055  -1.9898
    -1.9754  -1.9631  -1.9552  -1.9403  -1.9267  -1.9197  -1.8904  -1.8568
    -1.8421  -1.8193  -1.7886  -1.7646  -1.7370  -1.7229  -1.6989  -1.6932
    -1.6566  -1.6518  -1.6462  -1.6296  -1.6145  -1.6069  -1.5831  -1.5483
    -1.5341  -1.5134  -1.4721  -1.4655  -1.4427  -1.4339  -1.4199  -1.4129
    -1.3867  -1.3828  -1.3390  -1.3201  -1.2984  -1.2367  -1.2333  -1.2046
    -1.1483  -1.0989  -1.0714  -1.0545  -1.0155  -0.9286  -0.8947  -0.8782
    -0.7655  -0.6622  -0.6158  -0.5957  -0.4654  -0.3687  -0.2935  -0.2610
     0.1022   0.1248   0.1532   0.1910   0.2247   0.2419   0.2587   0.2706
     0.2790   0.2963   0.2996   0.3018   0.3088   0.3299   0.3422   0.3483
     0.3540   0.3560   0.3731   0.3789   0.3829   0.3936   0.3959   0.4071
     0.4110   0.4139   0.4230   0.4361   0.4434   0.4514   0.4566   0.4602
     0.4637   0.4701   0.4725   0.4912   0.4921   0.4988   0.5108   0.5133
     0.5203   0.5423   0.5447   0.5487   0.5581   0.5638   0.5662   0.5721
     0.5763   0.5871   0.5922   0.5932   0.6073   0.6144   0.6220   0.6346
     0.6380   0.6469   0.6534   0.6651   0.6738   0.6744   0.6860   0.6906
     0.6923   0.7007   0.7097   0.7132   0.7186   0.7349   0.7393   0.7438
     0.7472   0.7543   0.7680   0.7796   0.7854   0.7963   0.8069   0.8205
     0.8264   0.8362   0.8427   0.8602   0.8628   0.8708   0.8787   0.8804
     0.8962   0.9123   0.9195   0.9249   0.9350   0.9712   0.9850   1.0421
     1.0702   1.1338   1.6024   1.6565   1.6993   1.7113   1.7125   1.7408
     1.7702   1.8326   1.8689   1.8720   1.8940   1.9303   1.9344   1.9645
     1.9775   1.9895   2.0149   2.0372   2.0510   2.0709   2.0828   2.1095
     2.1422   2.1545   2.1784   2.1892   2.1962   2.2148   2.2236   2.2437
     2.2503   2.2536   2.2668   2.2802   2.2865   2.2955   2.3055   2.3223
     2.3368   2.3423   2.3643   2.3861   2.4022   2.4180   2.4328   2.4458
     2.4552   2.4729   2.4972   2.5047   2.5124   2.5309   2.5539   2.5665
     2.5784   2.5856   2.6101   2.6368   2.6584   2.6717   2.7341   2.7605
     2.7821   2.8320   2.8409   2.9033   2.9168   3.5875   3.5889   3.6633
     3.7583   3.8238   3.8410   3.8549   3.8599   3.9978   4.0629   4.5882
     4.6447   4.7057   4.7728   4.9243   4.9470   5.0179   5.4136   6.2948
     6.3594   6.5409   6.5883   6.7780   6.8150   6.8424   6.8792   6.9230
     7.0132   7.0657   7.0965   7.1189   7.3194   7.3637   7.3768   7.4137
     7.4978   7.5539   7.6549   7.6753   7.6886   7.7540   7.7866   7.8083
     7.8622   7.9196   7.9499   7.9789   8.0206   8.0306   8.0596   8.0690
     8.0925   8.1157   8.1594   8.2003   8.2333   8.2635   8.2997   8.3269
     8.3795   8.4091   8.4174   8.4416   8.4602   8.4774   8.4996   8.5102
     8.5317   8.5568   8.5828   8.5965   8.6199   8.6425   8.6785   8.6898
     8.7207   8.7652   8.7920   8.7964   8.8212   8.8571   8.8640

     the Fermi energy is     1.5637 ev

!    total energy              =   -7398.03607970 Ry
     estimated scf accuracy    <       0.00000093 Ry
     smearing contrib. (-TS)   =      -0.01403836 Ry
     internal energy E=F+TS    =   -7398.02204134 Ry

     The total energy is F=E-TS. E is the sum of the following terms:
     one-electron contribution =  -91684.30257685 Ry
     hartree contribution      =   46490.08187009 Ry
     xc contribution           =   -2260.27659084 Ry
     ewald contribution        =   40058.30878868 Ry
     Dispersion Correction     =      -1.83354483 Ry
     electric field correction =       0.00001241 Ry

     total magnetization       =    80.47 Bohr mag/cell
     absolute magnetization    =    82.00 Bohr mag/cell

     convergence has been achieved in  65 iterations

     negative rho (up, down):  9.309E-04 5.478E-04

     Forces acting on atoms (cartesian axes, Ry/au):

     atom    1 type  2   force =     0.03080186   -0.01944085   -0.01604658
     atom    2 type  1   force =     0.00216611   -0.00391100   -0.01070837
     atom    3 type  1   force =    -0.02153020   -0.02076426    0.01836667
     atom    4 type  1   force =     0.00131549    0.01022782   -0.01252932
     atom    5 type  1   force =    -0.00476307    0.02905577   -0.01838341
     atom    6 type  1   force =     0.00573586    0.00042088   -0.00024794
     atom    7 type  1   force =     0.02692395   -0.02079327    0.01756767
     atom    8 type  1   force =    -0.00955873   -0.00300301   -0.01105147
     atom    9 type  1   force =    -0.02967722   -0.01835416    0.01629364
     atom   10 type  1   force =    -0.00107151    0.00805030   -0.01280544
     atom   11 type  1   force =    -0.01311284    0.03044104   -0.02059846
     atom   12 type  1   force =     0.00132602    0.00643459   -0.00386654
     atom   13 type  3   force =     0.05102120   -0.11002025    0.00916773
     atom   14 type  3   force =    -0.02904101    0.03592787   -0.06517522
     atom   15 type  3   force =    -0.00920807    0.17548369   -0.08317521
     atom   16 type  3   force =     0.06069534    0.00054263   -0.00437891
     atom   17 type  4   force =     0.01519329   -0.02183663   -0.00978919
     atom   18 type  4   force =    -0.00541087    0.00484076    0.02967185
     atom   19 type  4   force =     0.00216340    0.00099118    0.03074321
     atom   20 type  4   force =     0.00511822    0.00188694    0.00237165
     atom   21 type  4   force =     0.00057235   -0.01200276   -0.00002146
     atom   22 type  4   force =    -0.00095918    0.00392764    0.03240191
     atom   23 type  4   force =    -0.00605750    0.01468794    0.02734755
     atom   24 type  4   force =     0.00864140    0.00324085   -0.00432275
     atom   25 type  4   force =     0.00649504   -0.00325078    0.00155458
     atom   26 type  4   force =     0.03116417   -0.17837247    0.00724864
     atom   27 type  4   force =     0.00287033    0.00100791    0.00169491
     atom   28 type  4   force =    -0.01705174    0.00165739    0.00475798
     atom   29 type  4   force =     0.09137722    0.00315184    0.00805562
     atom   30 type  4   force =     0.01304681   -0.02519432   -0.00091172
     atom   31 type  4   force =    -0.03845883    0.13330113   -0.00019021
     atom   32 type  4   force =    -0.00553401   -0.01187969    0.00651924
     atom   33 type  3   force =     0.04157279   -0.11919894    0.00962339
     atom   34 type  3   force =    -0.10168969    0.04258466   -0.07574864
     atom   35 type  3   force =    -0.01351596    0.16598495   -0.08810752
     atom   36 type  3   force =    -0.00358240    0.00254248   -0.01042334
     atom   37 type  4   force =     0.00822126   -0.01468452   -0.00237747
     atom   38 type  4   force =    -0.00586827   -0.00170319    0.02741797
     atom   39 type  4   force =    -0.00468135    0.00722347    0.03216184
     atom   40 type  4   force =     0.00129384    0.00004568    0.00247842
     atom   41 type  4   force =    -0.00153702   -0.00963091   -0.00150965
     atom   42 type  4   force =     0.00540080   -0.00048071    0.02925270
     atom   43 type  4   force =    -0.01043442    0.01352397    0.02698843
     atom   44 type  4   force =     0.00444466    0.00349729   -0.00451451
     atom   45 type  4   force =    -0.00030750   -0.00060819    0.00201071
     atom   46 type  4   force =     0.02814883   -0.17058591    0.00542152
     atom   47 type  4   force =    -0.06549565   -0.00074081   -0.00311125
     atom   48 type  4   force =    -0.01987425    0.00390507    0.00531345
     atom   49 type  4   force =     0.01409806    0.00085506    0.00204360
     atom   50 type  4   force =     0.00792526   -0.02441618   -0.00015458
     atom   51 type  4   force =    -0.03974404    0.13329672   -0.00136522
     atom   52 type  4   force =    -0.00780973   -0.01065393    0.00875537
     atom   53 type  2   force =     0.00618700   -0.00704991    0.00573802
     atom   54 type  1   force =     0.00060526   -0.00451922    0.00805134
     atom   55 type  1   force =     0.00493422   -0.00645885    0.00669010
     atom   56 type  1   force =     0.00062140    0.00581716    0.00302564
     atom   57 type  1   force =     0.00085696    0.02224245   -0.01401048
     atom   58 type  1   force =     0.00136425   -0.00352577    0.00246494
     atom   59 type  1   force =     0.00264195   -0.00994677    0.00376861
     atom   60 type  1   force =    -0.00677160   -0.00281514    0.00374498
     atom   61 type  1   force =    -0.00459574   -0.00531211    0.00661960
     atom   62 type  1   force =    -0.00346417    0.00590007   -0.00071611
     atom   63 type  1   force =    -0.01105890    0.02539054   -0.01768628
     atom   64 type  1   force =    -0.00205508    0.00089137   -0.00062586
     atom   65 type  3   force =     0.04516452   -0.11953764    0.01962227
     atom   66 type  3   force =     0.00158204   -0.00445301    0.00057660
     atom   67 type  3   force =    -0.04074179    0.12369443   -0.00684057
     atom   68 type  3   force =     0.06329801   -0.00210822    0.00756530
     atom   69 type  4   force =     0.01272225   -0.01726300   -0.00286506
     atom   70 type  4   force =    -0.00170935    0.00348467   -0.00049670
     atom   71 type  4   force =    -0.00185478    0.00334507    0.00524342
     atom   72 type  4   force =     0.00462522    0.00160267    0.00076302
     atom   73 type  4   force =     0.00872863   -0.01688082    0.01186215
     atom   74 type  4   force =    -0.00438101   -0.00338919    0.00935616
     atom   75 type  4   force =     0.00350316    0.00859953    0.00459239
     atom   76 type  4   force =     0.00586665    0.00082073   -0.00217370
     atom   77 type  4   force =     0.00610668   -0.00182372   -0.00109137
     atom   78 type  4   force =     0.04532197   -0.14086523    0.00576677
     atom   79 type  4   force =     0.00025041    0.00034674   -0.00073992
     atom   80 type  4   force =     0.00162299    0.00188176    0.00217616
     atom   81 type  4   force =     0.06738835    0.00013206    0.00646998
     atom   82 type  4   force =     0.00019651    0.00241839    0.00129002
     atom   83 type  4   force =    -0.03901794    0.13788885   -0.00272921
     atom   84 type  4   force =    -0.00109085   -0.01067717    0.00373560
     atom   85 type  3   force =     0.03948087   -0.12369900    0.02503077
     atom   86 type  3   force =    -0.06327864   -0.00172227   -0.00372179
     atom   87 type  3   force =    -0.04611854    0.12085742   -0.01042450
     atom   88 type  3   force =    -0.00011171   -0.00164926    0.00283491
     atom   89 type  4   force =     0.00859535   -0.01529450   -0.00490561
     atom   90 type  4   force =    -0.00452760    0.00103297   -0.00093066
     atom   91 type  4   force =    -0.00954879    0.00827231    0.00538376
     atom   92 type  4   force =     0.00041020   -0.00001229    0.00002607
     atom   93 type  4   force =     0.00122880   -0.01174612    0.00076199
     atom   94 type  4   force =    -0.00907063   -0.00294038    0.00828598
     atom   95 type  4   force =    -0.00035617    0.00770717    0.00305234
     atom   96 type  4   force =    -0.00087043    0.00070600    0.00005693
     atom   97 type  4   force =    -0.00100873    0.00194832   -0.00014430
     atom   98 type  4   force =     0.04053394   -0.13913771    0.00483562
     atom   99 type  4   force =    -0.06730993   -0.00089251   -0.00603050
     atom  100 type  4   force =    -0.00039161    0.00279423    0.00290581
     atom  101 type  4   force =    -0.00120961    0.00009587    0.00141269
     atom  102 type  4   force =    -0.00683898    0.00550595    0.00154401
     atom  103 type  4   force =    -0.04029406    0.13537162   -0.00430875
     atom  104 type  4   force =    -0.00605240   -0.01004166    0.00502308
     atom  105 type  2   force =    -0.00041946    0.00025013    0.00000052
     atom  106 type  1   force =     0.00042674   -0.00047648   -0.00046081
     atom  107 type  1   force =     0.00029155   -0.00002369    0.00039685
     atom  108 type  1   force =     0.00173999   -0.00123929    0.00179215
     atom  109 type  1   force =     0.00019075   -0.00073302   -0.00028114
     atom  110 type  1   force =    -0.00048596    0.00002093   -0.00028843
     atom  111 type  1   force =     0.00011795   -0.00027821    0.00030391
     atom  112 type  1   force =     0.00016903    0.00036239   -0.00042805
     atom  113 type  1   force =     0.00020354   -0.00046082   -0.00028090
     atom  114 type  1   force =    -0.00018882    0.00013923    0.00009284
     atom  115 type  1   force =     0.00004310    0.00040902   -0.00004685
     atom  116 type  1   force =    -0.00033208    0.00008696   -0.00011839
     atom  117 type  3   force =    -0.00067958   -0.00089963    0.00022427
     atom  118 type  3   force =    -0.00015228   -0.00006859    0.00022381
     atom  119 type  3   force =     0.00002255    0.00012568   -0.00050798
     atom  120 type  3   force =     0.00017098   -0.00022603   -0.00002754
     atom  121 type  4   force =     0.00043594    0.00029890    0.00078602
     atom  122 type  4   force =    -0.00018439    0.00018338    0.00007000
     atom  123 type  4   force =     0.00003767   -0.00020801   -0.00020791
     atom  124 type  4   force =     0.00034369   -0.00039021    0.00002638
     atom  125 type  4   force =     0.00058956    0.00046801   -0.00060265
     atom  126 type  4   force =    -0.00013367   -0.00015655   -0.00018656
     atom  127 type  4   force =     0.00048445   -0.00029136   -0.00003626
     atom  128 type  4   force =     0.00002199    0.00041516   -0.00009066
     atom  129 type  4   force =     0.00033591   -0.00019428    0.00020729
     atom  130 type  4   force =    -0.00015125   -0.00015963    0.00023155
     atom  131 type  4   force =    -0.00069809   -0.00036778   -0.00005589
     atom  132 type  4   force =     0.00013078   -0.00010159   -0.00027881
     atom  133 type  4   force =    -0.00007053    0.00021148   -0.00024152
     atom  134 type  4   force =     0.00003666    0.00025491   -0.00031796
     atom  135 type  4   force =     0.00079662    0.00091960   -0.00011592
     atom  136 type  4   force =    -0.00045360   -0.00007029   -0.00011374
     atom  137 type  3   force =    -0.00055471    0.00009290    0.00018157
     atom  138 type  3   force =     0.00011952    0.00001139    0.00001955
     atom  139 type  3   force =    -0.00020381   -0.00032096    0.00007587
     atom  140 type  3   force =     0.00036533   -0.00041641    0.00077656
     atom  141 type  4   force =     0.00011707   -0.00015969    0.00015069
     atom  142 type  4   force =     0.00015604   -0.00006950    0.00006092
     atom  143 type  4   force =    -0.00011869   -0.00012520   -0.00028812
     atom  144 type  4   force =    -0.00035107   -0.00056311   -0.00065376
     atom  145 type  4   force =    -0.00012774   -0.00020883   -0.00068557
     atom  146 type  4   force =    -0.00019854    0.00009567   -0.00005657
     atom  147 type  4   force =     0.00020516   -0.00019304    0.00006472
     atom  148 type  4   force =    -0.00024696    0.00014959   -0.00058202
     atom  149 type  4   force =    -0.00008041    0.00030650   -0.00008837
     atom  150 type  4   force =    -0.00019615   -0.00015547   -0.00018576
     atom  151 type  4   force =    -0.00016876   -0.00001556    0.00031642
     atom  152 type  4   force =     0.00000685   -0.00034967   -0.00018896
     atom  153 type  4   force =    -0.00016395    0.00024431   -0.00001475
     atom  154 type  4   force =     0.00012007    0.00028387    0.00000944
     atom  155 type  4   force =     0.00006910   -0.00007594   -0.00000326
     atom  156 type  4   force =     0.00006399    0.00018009   -0.00005991
     atom  157 type  4   force =    -0.01385135   -0.00622178   -0.00529145
     atom  158 type  5   force =     0.01053217    0.00751288    0.00322367

     Total force =     0.665139     Total SCF correction =     0.003688
 
     init_run     :      7.06s CPU      7.73s WALL (       1 calls)
     electrons    :    831.86s CPU    872.45s WALL (       1 calls)
     forces       :      3.86s CPU      4.22s WALL (       1 calls)
     force_london :      0.09s CPU      0.09s WALL (       1 calls)

     Called by init_run:
     wfcinit      :      4.02s CPU      4.18s WALL (       1 calls)
     potinit      :      0.78s CPU      0.99s WALL (       1 calls)
     hinit0       :      1.16s CPU      1.22s WALL (       1 calls)

     Called by electrons:
     c_bands      :    662.52s CPU    684.27s WALL (      65 calls)
     sum_band     :    108.35s CPU    118.69s WALL (      65 calls)
     v_of_rho     :     12.69s CPU     13.69s WALL (      66 calls)
     newd         :     31.22s CPU     38.87s WALL (      66 calls)
     mix_rho      :     16.88s CPU     16.99s WALL (      65 calls)
     energy_londo :      0.08s CPU      0.08s WALL (       1 calls)

     Called by c_bands:
     init_us_2    :      1.91s CPU      1.94s WALL (     264 calls)
     init_us_2:cp :      1.90s CPU      1.94s WALL (     264 calls)
     regterg      :    648.54s CPU    670.12s WALL (     133 calls)

     Called by *egterg:
     rdiaghg      :    187.97s CPU    197.87s WALL (     546 calls)
     h_psi        :    250.71s CPU    256.48s WALL (     548 calls)
     s_psi        :     48.53s CPU     48.59s WALL (     548 calls)
     g_psi        :      0.33s CPU      0.33s WALL (     413 calls)

     Called by h_psi:
     h_psi:calbec :     64.91s CPU     69.51s WALL (     548 calls)
     vloc_psi     :    135.95s CPU    136.57s WALL (     548 calls)
     add_vuspsi   :     49.22s CPU     49.76s WALL (     548 calls)

     General routines
     calbec       :     95.73s CPU    102.66s WALL (     686 calls)
     fft          :     13.75s CPU     15.09s WALL (    1201 calls)
     ffts         :     10.23s CPU     10.26s WALL (    8069 calls)
     fftw         :    155.18s CPU    155.91s WALL (  222116 calls)
     interpolate  :      1.05s CPU      1.16s WALL (     132 calls)
 
     Parallel routines
 
     PWSCF        :  14m 4.86s CPU  14m46.75s WALL

 
   This run was terminated on:  19:18:17  19Nov2025            

=------------------------------------------------------------------------------=
   JOB DONE.
=------------------------------------------------------------------------------=
