
     Program PWSCF v.7.2 starts on 19Nov2025 at 21: 4:17 

     This program is part of the open-source Quantum ESPRESSO suite
     for quantum simulation of materials; please cite
         "P. Giannozzi et al., J. Phys.:Condens. Matter 21 395502 (2009);
         "P. Giannozzi et al., J. Phys.:Condens. Matter 29 465901 (2017);
         "P. Giannozzi et al., J. Chem. Phys. 152 154105 (2020);
          URL http://www.quantum-espresso.org", 
     in publications or presentations arising from this work. More details at
     http://www.quantum-espresso.org/quote

     Parallel version (MPI), running on    64 processors

     MPI processes distributed on     4 nodes
     435205 MiB available memory on the printing compute node when the environment starts
 
     Reading input from PWINPUT_atm158_xm

     Current dimensions of program PWSCF are:
     Max number of different atomic species (ntypx) = 10
     Max number of k-points (npk) =  40000
     Max angular momentum in pseudopotentials (lmaxx) =  4
     Presently no symmetry can be used with electric field

     file Ni.pbe-n-rrkjus_psl.1.0.0.UPF: wavefunction(s)  3D renormalized
     file Mn.pbe-spn-rrkjus_psl.0.3.1.UPF: wavefunction(s)  3D renormalized
     file O.pbe-rrkjus.UPF: wavefunction(s)  2S renormalized
     file H.pbe-rrkjus.UPF: wavefunction(s)  1S renormalized

     gamma-point specific algorithms are used
 
     R & G space division:  proc/nbgrp/npool/nimage =      64
     Subspace diagonalization in iterative solution of the eigenvalue problem:
     one sub-group per band group will be used
     custom distributed-memory algorithm (size of sub-group:  6*  6 procs)

 
     Parallelization info
     --------------------
     sticks:   dense  smooth     PW     G-vecs:    dense   smooth      PW
     Min         208      82     20                59912    15118    1876
     Max         210      84     22                59974    15196    1926
     Sum       13399    5355   1345              3836275   970529  121367
 
     Using Slab Decomposition
 


     bravais-lattice index     =            0
     lattice parameter (alat)  =      17.7004  a.u.
     unit-cell volume          =   20319.7251 (a.u.)^3
     number of atoms/cell      =          158
     number of atomic types    =            5
     number of electrons       =      1078.00
     number of Kohn-Sham states=          647
     kinetic-energy cutoff     =      50.0000  Ry
     charge density cutoff     =     500.0000  Ry
     scf convergence threshold =      1.0E-06
     mixing beta               =       0.1000
     number of iterations used =            8  local-TF  mixing
     Exchange-correlation=  SLA  PW   PBE  PBE
                           (   1   4   3   4   0   0   0)

     celldm(1)=  17.700384  celldm(2)=   0.000000  celldm(3)=   0.000000
     celldm(4)=   0.000000  celldm(5)=   0.000000  celldm(6)=   0.000000

     crystal axes: (cart. coord. in units of alat)
               a(1) = (   1.000000   0.000000   0.000000 )  
               a(2) = (   0.000000   1.075730   0.000000 )  
               a(3) = (   0.000000   0.000000   3.406172 )  

     reciprocal axes: (cart. coord. in units 2 pi/alat)
               b(1) = (  1.000000  0.000000  0.000000 )  
               b(2) = (  0.000000  0.929602  0.000000 )  
               b(3) = (  0.000000  0.000000  0.293585 )  


     PseudoPot. # 1 for Ni read from file:
     ~/PSEUDO/Ni.pbe-n-rrkjus_psl.1.0.0.UPF
     MD5 check sum: Not computed, couldn't open file
     Pseudo is Ultrasoft + core correction, Zval = 10.0
     Generated using "atomic" code by A. Dal Corso  v.5.1.2
     Using radial grid of 1195 points,  6 beta functions with: 
                l(1) =   0
                l(2) =   0
                l(3) =   1
                l(4) =   1
                l(5) =   2
                l(6) =   2
     Q(r) pseudized with 0 coefficients 


     PseudoPot. # 2 for Mn read from file:
     ~/PSEUDO/Mn.pbe-spn-rrkjus_psl.0.3.1.UPF
     MD5 check sum: Not computed, couldn't open file
     Pseudo is Ultrasoft + core correction, Zval = 15.0
     Generated using &quot;atomic&quot; code by A. Dal Corso  v.6.2.2
     Using radial grid of 1187 points,  6 beta functions with: 
                l(1) =   0
                l(2) =   0
                l(3) =   1
                l(4) =   1
                l(5) =   2
                l(6) =   2
     Q(r) pseudized with 0 coefficients 


     PseudoPot. # 3 for P  read from file:
     ~/PSEUDO/P.pbe-n-rrkjus_psl.1.0.0.UPF
     MD5 check sum: Not computed, couldn't open file
     Pseudo is Ultrasoft + core correction, Zval =  5.0
     Generated using "atomic" code by A. Dal Corso  v.5.1
     Using radial grid of 1147 points,  6 beta functions with: 
                l(1) =   0
                l(2) =   0
                l(3) =   1
                l(4) =   1
                l(5) =   2
                l(6) =   2
     Q(r) pseudized with 0 coefficients 


     PseudoPot. # 4 for O  read from file:
     ~/PSEUDO/O.pbe-rrkjus.UPF
     MD5 check sum: Not computed, couldn't open file
     Pseudo is Ultrasoft, Zval =  6.0
     Generated by new atomic code, or converted to UPF format
     Using radial grid of 1269 points,  4 beta functions with: 
                l(1) =   0
                l(2) =   0
                l(3) =   1
                l(4) =   1
     Q(r) pseudized with 0 coefficients 


     PseudoPot. # 5 for H  read from file:
     ~/PSEUDO/H.pbe-rrkjus.UPF
     MD5 check sum: Not computed, couldn't open file
     Pseudo is Ultrasoft, Zval =  1.0
     Generated by new atomic code, or converted to UPF format
     Using radial grid of 1061 points,  2 beta functions with: 
                l(1) =   0
                l(2) =   0
     Q(r) pseudized with 0 coefficients 


     atomic species   valence    mass     pseudopotential
     Ni               10.00    58.69300     Ni( 1.00)
     Mn               15.00    54.93800     Mn( 1.00)
     P                 5.00    30.97300     P ( 1.00)
     O                 6.00    15.99900     O ( 1.00)
     H                 1.00     1.00790     H ( 1.00)

     Starting magnetic structure 
     atomic species   magnetization
     Ni              1.000
     Mn              1.000
     P               1.000
     O               1.000
     H               0.000

     No symmetry found



   Cartesian axes

     site n.     atom                  positions (alat units)
         1        Mn     tau(   1) = (   0.2404744   0.8371250   0.1168501  )
         2        Ni     tau(   2) = (   0.4968126   0.7726670   0.4415546  )
         3        Ni     tau(   3) = (   0.0066150   0.2936743   0.1241053  )
         4        Ni     tau(   4) = (   0.2585722   0.2355858   0.4448848  )
         5        Ni     tau(   5) = (   0.9987350   1.0696411   0.2854926  )
         6        Ni     tau(   6) = (   0.2517397   0.5330511   0.2829322  )
         7        Ni     tau(   7) = (   0.7451645   0.8337543   0.1221751  )
         8        Ni     tau(   8) = (   0.9939181   0.7738804   0.4407595  )
         9        Ni     tau(   9) = (   0.5111533   0.2924088   0.1251865  )
        10        Ni     tau(  10) = (   0.7606326   0.2319267   0.4451372  )
        11        Ni     tau(  11) = (   0.5024065   1.0688133   0.2870502  )
        12        Ni     tau(  12) = (   0.7529977   0.5317900   0.2845227  )
        13        P      tau(  13) = (   0.2092944   0.9731097   0.4345035  )
        14        P      tau(  14) = (   0.4655727   0.6359535   0.1274635  )
        15        P      tau(  15) = (   0.2910699   0.1027363   0.1296098  )
        16        P      tau(  16) = (   0.0396216   0.4288395   0.4398838  )
        17        O      tau(  17) = (   0.1294378   0.9013260   0.3010618  )
        18        O      tau(  18) = (   0.3874505   0.7054774   0.2637003  )
        19        O      tau(  19) = (   0.3702540   0.1714799   0.2660028  )
        20        O      tau(  20) = (   0.1184398   0.3582958   0.3038353  )
        21        O      tau(  21) = (   0.1451572   0.8850881   0.5587578  )
        22        O      tau(  22) = (   0.4048762   0.7245585   0.0017492  )
        23        O      tau(  23) = (   0.3523506   0.1900579   0.0035744  )
        24        O      tau(  24) = (   0.1017610   0.3410484   0.5656572  )
        25        O      tau(  25) = (   0.0975396   0.5849288   0.4357922  )
        26        O      tau(  26) = (   0.3483552   1.0314945   0.1270322  )
        27        O      tau(  27) = (   0.3784305   0.4225118   0.4308928  )
        28        O      tau(  28) = (   0.1268237   0.1067944   0.1392744  )
        29        O      tau(  29) = (   0.1212267   0.6424170   0.1362896  )
        30        O      tau(  30) = (   0.4053315   0.4809387   0.1300622  )
        31        O      tau(  31) = (   0.1536621   0.0446918   0.4373386  )
        32        O      tau(  32) = (   0.3732349   0.9631717   0.4256642  )
        33        P      tau(  33) = (   0.7119823   0.9695974   0.4373010  )
        34        P      tau(  34) = (   0.9615208   0.6363392   0.1262932  )
        35        P      tau(  35) = (   0.7927710   0.0970060   0.1292164  )
        36        P      tau(  36) = (   0.5426404   0.4269675   0.4410738  )
        37        O      tau(  37) = (   0.6326879   0.8991182   0.3013240  )
        38        O      tau(  38) = (   0.8842163   0.7083206   0.2625155  )
        39        O      tau(  39) = (   0.8716178   0.1677751   0.2653504  )
        40        O      tau(  40) = (   0.6212010   0.3558666   0.3051085  )
        41        O      tau(  41) = (   0.6507714   0.8812342   0.5631722  )
        42        O      tau(  42) = (   0.9014054   0.7264458   0.0010676  )
        43        O      tau(  43) = (   0.8548963   0.1847909   0.0035471  )
        44        O      tau(  44) = (   0.6044469   0.3378706   0.5660366  )
        45        O      tau(  45) = (   0.6024424   0.5823140   0.4379016  )
        46        O      tau(  46) = (   0.8498940   1.0254482   0.1275156  )
        47        O      tau(  47) = (   0.8798395   0.4205825   0.4305771  )
        48        O      tau(  48) = (   0.6286921   0.1034636   0.1397346  )
        49        O      tau(  49) = (   0.6294973   0.6427753   0.1372553  )
        50        O      tau(  50) = (   0.9024339   0.4810312   0.1296418  )
        51        O      tau(  51) = (   0.6547812   0.0410987   0.4396636  )
        52        O      tau(  52) = (   0.8760507   0.9632605   0.4264507  )
        53        Mn     tau(  53) = (   0.2404744   0.8246335   0.7367378  )
        54        Ni     tau(  54) = (   0.4968126   0.7601755   1.0614423  )
        55        Ni     tau(  55) = (   0.0066150   0.2811828   0.7439929  )
        56        Ni     tau(  56) = (   0.2585722   0.2230943   1.0647725  )
        57        Ni     tau(  57) = (   0.9987350   1.0571496   0.9053803  )
        58        Ni     tau(  58) = (   0.2517397   0.5205596   0.9028199  )
        59        Ni     tau(  59) = (   0.7451645   0.8212628   0.7420628  )
        60        Ni     tau(  60) = (   0.9939181   0.7613889   1.0606471  )
        61        Ni     tau(  61) = (   0.5111533   0.2799173   0.7450742  )
        62        Ni     tau(  62) = (   0.7606326   0.2194352   1.0650249  )
        63        Ni     tau(  63) = (   0.5024065   1.0563218   0.9069379  )
        64        Ni     tau(  64) = (   0.7529977   0.5192985   0.9044104  )
        65        P      tau(  65) = (   0.2092944   0.9606182   1.0543912  )
        66        P      tau(  66) = (   0.4655727   0.6234620   0.7473512  )
        67        P      tau(  67) = (   0.2910699   0.0902448   0.7494974  )
        68        P      tau(  68) = (   0.0396216   0.4163480   1.0597715  )
        69        O      tau(  69) = (   0.1294378   0.8888345   0.9209495  )
        70        O      tau(  70) = (   0.3874505   0.6929859   0.8835880  )
        71        O      tau(  71) = (   0.3702540   0.1589885   0.8858904  )
        72        O      tau(  72) = (   0.1184398   0.3458043   0.9237230  )
        73        O      tau(  73) = (   0.1451572   0.8725966   1.1786454  )
        74        O      tau(  74) = (   0.4048762   0.7120670   0.6216369  )
        75        O      tau(  75) = (   0.3523506   0.1775664   0.6234620  )
        76        O      tau(  76) = (   0.1017610   0.3285569   1.1855448  )
        77        O      tau(  77) = (   0.0975396   0.5724373   1.0556799  )
        78        O      tau(  78) = (   0.3483552   1.0190030   0.7469198  )
        79        O      tau(  79) = (   0.3784305   0.4100203   1.0507804  )
        80        O      tau(  80) = (   0.1268237   0.0943029   0.7591620  )
        81        O      tau(  81) = (   0.1212267   0.6299255   0.7561772  )
        82        O      tau(  82) = (   0.4053315   0.4684472   0.7499499  )
        83        O      tau(  83) = (   0.1536621   0.0322003   1.0572263  )
        84        O      tau(  84) = (   0.3732349   0.9506802   1.0455518  )
        85        P      tau(  85) = (   0.7119823   0.9571059   1.0571887  )
        86        P      tau(  86) = (   0.9615208   0.6238477   0.7461808  )
        87        P      tau(  87) = (   0.7927710   0.0845145   0.7491041  )
        88        P      tau(  88) = (   0.5426404   0.4144760   1.0609615  )
        89        O      tau(  89) = (   0.6326879   0.8866267   0.9212117  )
        90        O      tau(  90) = (   0.8842163   0.6958291   0.8824032  )
        91        O      tau(  91) = (   0.8716178   0.1552836   0.8852381  )
        92        O      tau(  92) = (   0.6212010   0.3433751   0.9249961  )
        93        O      tau(  93) = (   0.6507714   0.8687427   1.1830599  )
        94        O      tau(  94) = (   0.9014054   0.7139543   0.6209553  )
        95        O      tau(  95) = (   0.8548963   0.1722994   0.6234348  )
        96        O      tau(  96) = (   0.6044469   0.3253792   1.1859242  )
        97        O      tau(  97) = (   0.6024424   0.5698225   1.0577892  )
        98        O      tau(  98) = (   0.8498940   1.0129567   0.7474033  )
        99        O      tau(  99) = (   0.8798395   0.4080910   1.0504647  )
       100        O      tau( 100) = (   0.6286921   0.0909721   0.7596222  )
       101        O      tau( 101) = (   0.6294973   0.6302838   0.7571429  )
       102        O      tau( 102) = (   0.9024339   0.4685397   0.7495295  )
       103        O      tau( 103) = (   0.6547812   0.0286072   1.0595512  )
       104        O      tau( 104) = (   0.8760507   0.9507690   1.0463383  )
       105        Mn     tau( 105) = (   0.2366231   0.8099108   1.3652025  )
       106        Ni     tau( 106) = (   0.5054159   0.7462824   1.6760027  )
       107        Ni     tau( 107) = (   0.0089171   0.2673656   1.3686123  )
       108        Ni     tau( 108) = (   0.2644416   0.1993195   1.7084151  )
       109        Ni     tau( 109) = (   1.0061379   1.0432337   1.5350349  )
       110        Ni     tau( 110) = (   0.2518568   0.5022264   1.5321875  )
       111        Ni     tau( 111) = (   0.7428918   0.8054563   1.3680737  )
       112        Ni     tau( 112) = (   1.0041850   0.7431092   1.6780598  )
       113        Ni     tau( 113) = (   0.5112288   0.2659826   1.3709479  )
       114        Ni     tau( 114) = (   0.7532805   0.2088052   1.6753652  )
       115        Ni     tau( 115) = (   0.5047699   1.0448721   1.5373338  )
       116        Ni     tau( 116) = (   0.7503649   0.5053471   1.5308247  )
       117        P      tau( 117) = (   0.2161577   0.9302828   1.6982302  )
       118        P      tau( 118) = (   0.4629997   0.6076656   1.3708803  )
       119        P      tau( 119) = (   0.2923548   0.0759931   1.3761085  )
       120        P      tau( 120) = (   0.0403728   0.3936694   1.6855939  )
       121        O      tau( 121) = (   0.1364693   0.8668413   1.5531897  )
       122        O      tau( 122) = (   0.3862188   0.6762237   1.5077855  )
       123        O      tau( 123) = (   0.3702313   0.1459453   1.5113118  )
       124        O      tau( 124) = (   0.1164972   0.3354481   1.5416341  )
       125        O      tau( 125) = (   0.1561077   0.8312184   1.8121815  )
       126        O      tau( 126) = (   0.4024345   0.6977036   1.2456547  )
       127        O      tau( 127) = (   0.3529885   0.1608260   1.2478482  )
       128        O      tau( 128) = (   0.0988259   0.2967762   1.8028337  )
       129        O      tau( 129) = (   0.0955223   0.5521437   1.6882589  )
       130        O      tau( 130) = (   0.3501042   0.9948817   1.3794940  )
       131        O      tau( 131) = (   0.3769862   0.3955830   1.6820705  )
       132        O      tau( 132) = (   0.1282711   0.0787148   1.3850164  )
       133        O      tau( 133) = (   0.1228222   0.6171400   1.3807433  )
       134        O      tau( 134) = (   0.4031340   0.4526637   1.3730383  )
       135        O      tau( 135) = (   0.1564153   0.0102487   1.6911737  )
       136        O      tau( 136) = (   0.3803451   0.9249762   1.6777280  )
       137        P      tau( 137) = (   0.7174345   0.9334429   1.6935398  )
       138        P      tau( 138) = (   0.9584537   0.6093492   1.3691178  )
       139        P      tau( 139) = (   0.7939811   0.0700328   1.3725244  )
       140        P      tau( 140) = (   0.5416921   0.3997600   1.6930504  )
       141        O      tau( 141) = (   0.6378837   0.8729788   1.5477586  )
       142        O      tau( 142) = (   0.8828523   0.6807110   1.5061576  )
       143        O      tau( 143) = (   0.8725292   0.1417236   1.5079952  )
       144        O      tau( 144) = (   0.6175250   0.3342570   1.5484665  )
       145        O      tau( 145) = (   0.6556870   0.8369021   1.8084207  )
       146        O      tau( 146) = (   0.8987137   0.6988347   1.2434250  )
       147        O      tau( 147) = (   0.8547435   0.1573124   1.2458538  )
       148        O      tau( 148) = (   0.6058869   0.3057682   1.8100154  )
       149        O      tau( 149) = (   0.5996895   0.5564472   1.6887454  )
       150        O      tau( 150) = (   0.8537678   0.9909218   1.3764211  )
       151        O      tau( 151) = (   0.8747176   0.3908074   1.6749590  )
       152        O      tau( 152) = (   0.6300578   0.0775778   1.3854873  )
       153        O      tau( 153) = (   0.6270029   0.6154737   1.3814513  )
       154        O      tau( 154) = (   0.8992703   0.4545543   1.3717766  )
       155        O      tau( 155) = (   0.6630869   0.0162628   1.6912339  )
       156        O      tau( 156) = (   0.8822397   0.9273982   1.6791779  )
       157        O      tau( 157) = (   0.3793940   0.1173447   1.8413832  )
       158        H      tau( 158) = (   0.4625776   0.1772953   1.8643216  )

     -------------------------------------------------
     Parameters for Dispersion (Grimme-D2) Correction:
     -------------------------------------------------
       atom      VdW radius       C_6     

        Ni         2.952        374.666
        Mn         2.952        374.666
        P          3.222        271.980
        O          2.536         24.284
        H          1.892          4.857

     number of k points=     1  Gaussian smearing, width (Ry)=  0.0100
                       cart. coord. in units 2pi/alat
        k(    1) = (   0.0000000   0.0000000   0.0000000), wk =   1.0000000

     Dense  grid:  1918138 G-vectors     FFT dimensions: ( 125, 135, 432)

     Smooth grid:   485265 G-vectors     FFT dimensions: (  80,  90, 288)

     Estimated max dynamical RAM per process >     320.12 MB

     Estimated total dynamical RAM >      20.01 GB
     Generating pointlists ...
     new r_m :   0.0800 (alat units)  1.4161 (a.u.) for type    1
     new r_m :   0.0869 (alat units)  1.5388 (a.u.) for type    2
     new r_m :   0.0650 (alat units)  1.1499 (a.u.) for type    3
     new r_m :   0.0433 (alat units)  0.7672 (a.u.) for type    4
     new r_m :   0.0433 (alat units)  0.7672 (a.u.) for type    5

     Initial potential from superposition of free atoms

     starting charge    1077.8900, renormalised to    1078.0000

     negative rho (up, down):  1.237E-03 4.546E-04
 
     Adding external electric field

     Computed dipole along edir(3) : 
        Dipole                1.6236 Ry au,          4.1268 Debye
        Dipole field          0.0010 Ry au, 
 
        Potential amp.       -0.1090 Ry
        Total length         54.2615 bohr
 
 
     Adding external electric field

     Computed dipole along edir(3) : 
        Dipole                1.6236 Ry au,          4.1268 Debye
        Dipole field          0.0010 Ry au, 
 
        Potential amp.       -0.1090 Ry
        Total length         54.2615 bohr
 
     Starting wfcs are  812 randomized atomic wfcs

     total cpu time spent up to now is       10.3 secs

     Self-consistent Calculation

     iteration #  1     ecut=    50.00 Ry     beta= 0.10
     Davidson diagonalization with overlap
     ethr =  1.00E-02,  avg # of iterations =  6.0

     negative rho (up, down):  3.416E-01 5.517E-07
 
     Adding external electric field

     Computed dipole along edir(3) : 
        Dipole               -3.0474 Ry au,         -7.7458 Debye
        Dipole field         -0.0019 Ry au, 
 
        Potential amp.        0.2045 Ry
        Total length         54.2615 bohr
 
 
     Adding external electric field

     Computed dipole along edir(3) : 
        Dipole               -3.0474 Ry au,         -7.7458 Debye
        Dipole field         -0.0019 Ry au, 
 
        Potential amp.        0.2045 Ry
        Total length         54.2615 bohr
 

     total cpu time spent up to now is       39.0 secs

     total energy              =   -7177.89316850 Ry
     estimated scf accuracy    <     756.20053080 Ry

     total magnetization       =   216.00 Bohr mag/cell
     absolute magnetization    =   296.75 Bohr mag/cell

     iteration #  2     ecut=    50.00 Ry     beta= 0.10
     Davidson diagonalization with overlap
     ethr =  1.00E-02,  avg # of iterations =  2.0

     negative rho (up, down):  3.179E-01 4.516E-07
 
     Adding external electric field

     Computed dipole along edir(3) : 
        Dipole               -2.1389 Ry au,         -5.4365 Debye
        Dipole field         -0.0013 Ry au, 
 
        Potential amp.        0.1435 Ry
        Total length         54.2615 bohr
 
 
     Adding external electric field

     Computed dipole along edir(3) : 
        Dipole               -2.1389 Ry au,         -5.4365 Debye
        Dipole field         -0.0013 Ry au, 
 
        Potential amp.        0.1435 Ry
        Total length         54.2615 bohr
 

     total cpu time spent up to now is       55.9 secs

     total energy              =   -7263.37383774 Ry
     estimated scf accuracy    <     172.23341293 Ry

     total magnetization       =   152.36 Bohr mag/cell
     absolute magnetization    =   201.80 Bohr mag/cell

     iteration #  3     ecut=    50.00 Ry     beta= 0.10
     Davidson diagonalization with overlap
     ethr =  1.00E-02,  avg # of iterations =  1.5

     negative rho (up, down):  2.812E-01 3.095E-07
 
     Adding external electric field

     Computed dipole along edir(3) : 
        Dipole               -1.9118 Ry au,         -4.8594 Debye
        Dipole field         -0.0012 Ry au, 
 
        Potential amp.        0.1283 Ry
        Total length         54.2615 bohr
 
 
     Adding external electric field

     Computed dipole along edir(3) : 
        Dipole               -1.9118 Ry au,         -4.8594 Debye
        Dipole field         -0.0012 Ry au, 
 
        Potential amp.        0.1283 Ry
        Total length         54.2615 bohr
 

     total cpu time spent up to now is       69.8 secs

     total energy              =   -7292.16732461 Ry
     estimated scf accuracy    <      94.37245502 Ry

     total magnetization       =   126.51 Bohr mag/cell
     absolute magnetization    =   179.94 Bohr mag/cell

     iteration #  4     ecut=    50.00 Ry     beta= 0.10
     Davidson diagonalization with overlap
     ethr =  8.75E-03,  avg # of iterations =  1.5

     negative rho (up, down):  2.031E-01 2.706E-08
 
     Adding external electric field

     Computed dipole along edir(3) : 
        Dipole               -1.7772 Ry au,         -4.5171 Debye
        Dipole field         -0.0011 Ry au, 
 
        Potential amp.        0.1193 Ry
        Total length         54.2615 bohr
 
 
     Adding external electric field

     Computed dipole along edir(3) : 
        Dipole               -1.7772 Ry au,         -4.5171 Debye
        Dipole field         -0.0011 Ry au, 
 
        Potential amp.        0.1193 Ry
        Total length         54.2615 bohr
 

     total cpu time spent up to now is       83.0 secs

     total energy              =   -7329.98717574 Ry
     estimated scf accuracy    <      78.99218505 Ry

     total magnetization       =   111.74 Bohr mag/cell
     absolute magnetization    =   165.96 Bohr mag/cell

     iteration #  5     ecut=    50.00 Ry     beta= 0.10
     Davidson diagonalization with overlap
     ethr =  7.33E-03,  avg # of iterations =  1.5

     negative rho (up, down):  5.337E-03 2.400E-06
 
     Adding external electric field

     Computed dipole along edir(3) : 
        Dipole               -1.2940 Ry au,         -3.2890 Debye
        Dipole field         -0.0008 Ry au, 
 
        Potential amp.        0.0868 Ry
        Total length         54.2615 bohr
 
 
     Adding external electric field

     Computed dipole along edir(3) : 
        Dipole               -1.2940 Ry au,         -3.2890 Debye
        Dipole field         -0.0008 Ry au, 
 
        Potential amp.        0.0868 Ry
        Total length         54.2615 bohr
 

     total cpu time spent up to now is       96.8 secs

     total energy              =   -7388.07127244 Ry
     estimated scf accuracy    <      58.87642019 Ry

     total magnetization       =    88.00 Bohr mag/cell
     absolute magnetization    =   145.20 Bohr mag/cell

     iteration #  6     ecut=    50.00 Ry     beta= 0.10
     Davidson diagonalization with overlap
     ethr =  5.46E-03,  avg # of iterations =  1.5

     negative rho (up, down):  3.459E-04 4.713E-04
 
     Adding external electric field

     Computed dipole along edir(3) : 
        Dipole               -1.0095 Ry au,         -2.5660 Debye
        Dipole field         -0.0006 Ry au, 
 
        Potential amp.        0.0678 Ry
        Total length         54.2615 bohr
 
 
     Adding external electric field

     Computed dipole along edir(3) : 
        Dipole               -1.0095 Ry au,         -2.5660 Debye
        Dipole field         -0.0006 Ry au, 
 
        Potential amp.        0.0678 Ry
        Total length         54.2615 bohr
 

     total cpu time spent up to now is      109.9 secs

     total energy              =   -7395.68513256 Ry
     estimated scf accuracy    <       8.56386049 Ry

     total magnetization       =    79.27 Bohr mag/cell
     absolute magnetization    =   111.24 Bohr mag/cell

     iteration #  7     ecut=    50.00 Ry     beta= 0.10
     Davidson diagonalization with overlap
     ethr =  7.94E-04,  avg # of iterations =  6.0

     negative rho (up, down):  3.593E-04 4.572E-04
 
     Adding external electric field

     Computed dipole along edir(3) : 
        Dipole               -1.0338 Ry au,         -2.6276 Debye
        Dipole field         -0.0006 Ry au, 
 
        Potential amp.        0.0694 Ry
        Total length         54.2615 bohr
 
 
     Adding external electric field

     Computed dipole along edir(3) : 
        Dipole               -1.0338 Ry au,         -2.6276 Debye
        Dipole field         -0.0006 Ry au, 
 
        Potential amp.        0.0694 Ry
        Total length         54.2615 bohr
 

     total cpu time spent up to now is      133.9 secs

     total energy              =   -7397.58852143 Ry
     estimated scf accuracy    <       9.68492664 Ry

     total magnetization       =    71.89 Bohr mag/cell
     absolute magnetization    =    89.36 Bohr mag/cell

     iteration #  8     ecut=    50.00 Ry     beta= 0.10
     Davidson diagonalization with overlap
     ethr =  7.94E-04,  avg # of iterations =  1.0

     negative rho (up, down):  2.933E-04 5.348E-04
 
     Adding external electric field

     Computed dipole along edir(3) : 
        Dipole               -0.8303 Ry au,         -2.1105 Debye
        Dipole field         -0.0005 Ry au, 
 
        Potential amp.        0.0557 Ry
        Total length         54.2615 bohr
 
 
     Adding external electric field

     Computed dipole along edir(3) : 
        Dipole               -0.8303 Ry au,         -2.1105 Debye
        Dipole field         -0.0005 Ry au, 
 
        Potential amp.        0.0557 Ry
        Total length         54.2615 bohr
 

     total cpu time spent up to now is      146.0 secs

     total energy              =   -7397.43275439 Ry
     estimated scf accuracy    <      11.03324704 Ry

     total magnetization       =    71.40 Bohr mag/cell
     absolute magnetization    =    88.78 Bohr mag/cell

     iteration #  9     ecut=    50.00 Ry     beta= 0.10
     Davidson diagonalization with overlap
     ethr =  7.94E-04,  avg # of iterations =  1.0

     negative rho (up, down):  3.937E-04 1.201E-03
 
     Adding external electric field

     Computed dipole along edir(3) : 
        Dipole               -0.8054 Ry au,         -2.0471 Debye
        Dipole field         -0.0005 Ry au, 
 
        Potential amp.        0.0541 Ry
        Total length         54.2615 bohr
 
 
     Adding external electric field

     Computed dipole along edir(3) : 
        Dipole               -0.8054 Ry au,         -2.0471 Debye
        Dipole field         -0.0005 Ry au, 
 
        Potential amp.        0.0541 Ry
        Total length         54.2615 bohr
 

     total cpu time spent up to now is      158.3 secs

     total energy              =   -7397.49376606 Ry
     estimated scf accuracy    <       6.40337464 Ry

     total magnetization       =    73.92 Bohr mag/cell
     absolute magnetization    =    89.14 Bohr mag/cell

     iteration # 10     ecut=    50.00 Ry     beta= 0.10
     Davidson diagonalization with overlap
     ethr =  5.94E-04,  avg # of iterations =  2.0

     negative rho (up, down):  5.501E-04 1.876E-03
 
     Adding external electric field

     Computed dipole along edir(3) : 
        Dipole               -0.8377 Ry au,         -2.1292 Debye
        Dipole field         -0.0005 Ry au, 
 
        Potential amp.        0.0562 Ry
        Total length         54.2615 bohr
 
 
     Adding external electric field

     Computed dipole along edir(3) : 
        Dipole               -0.8377 Ry au,         -2.1292 Debye
        Dipole field         -0.0005 Ry au, 
 
        Potential amp.        0.0562 Ry
        Total length         54.2615 bohr
 

     total cpu time spent up to now is      170.8 secs

     total energy              =   -7397.59439714 Ry
     estimated scf accuracy    <       3.32427864 Ry

     total magnetization       =    77.60 Bohr mag/cell
     absolute magnetization    =    90.43 Bohr mag/cell

     iteration # 11     ecut=    50.00 Ry     beta= 0.10
     Davidson diagonalization with overlap
     ethr =  3.08E-04,  avg # of iterations =  1.5

     negative rho (up, down):  5.946E-04 2.115E-03
 
     Adding external electric field

     Computed dipole along edir(3) : 
        Dipole               -0.8870 Ry au,         -2.2545 Debye
        Dipole field         -0.0005 Ry au, 
 
        Potential amp.        0.0595 Ry
        Total length         54.2615 bohr
 
 
     Adding external electric field

     Computed dipole along edir(3) : 
        Dipole               -0.8870 Ry au,         -2.2545 Debye
        Dipole field         -0.0005 Ry au, 
 
        Potential amp.        0.0595 Ry
        Total length         54.2615 bohr
 

     total cpu time spent up to now is      182.8 secs

     total energy              =   -7397.68007403 Ry
     estimated scf accuracy    <       1.43595614 Ry

     total magnetization       =    78.91 Bohr mag/cell
     absolute magnetization    =    90.22 Bohr mag/cell

     iteration # 12     ecut=    50.00 Ry     beta= 0.10
     Davidson diagonalization with overlap
     ethr =  1.33E-04,  avg # of iterations = 12.0

     negative rho (up, down):  1.512E-03 3.004E-03
 
     Adding external electric field

     Computed dipole along edir(3) : 
        Dipole               -0.8698 Ry au,         -2.2108 Debye
        Dipole field         -0.0005 Ry au, 
 
        Potential amp.        0.0584 Ry
        Total length         54.2615 bohr
 
 
     Adding external electric field

     Computed dipole along edir(3) : 
        Dipole               -0.8698 Ry au,         -2.2108 Debye
        Dipole field         -0.0005 Ry au, 
 
        Potential amp.        0.0584 Ry
        Total length         54.2615 bohr
 

     total cpu time spent up to now is      206.9 secs

     total energy              =   -7397.85449837 Ry
     estimated scf accuracy    <       0.68350495 Ry

     total magnetization       =    79.29 Bohr mag/cell
     absolute magnetization    =    88.70 Bohr mag/cell

     iteration # 13     ecut=    50.00 Ry     beta= 0.10
     Davidson diagonalization with overlap
     ethr =  6.34E-05,  avg # of iterations = 11.0

     negative rho (up, down):  8.786E-04 1.850E-03
 
     Adding external electric field

     Computed dipole along edir(3) : 
        Dipole               -0.8298 Ry au,         -2.1092 Debye
        Dipole field         -0.0005 Ry au, 
 
        Potential amp.        0.0557 Ry
        Total length         54.2615 bohr
 
 
     Adding external electric field

     Computed dipole along edir(3) : 
        Dipole               -0.8298 Ry au,         -2.1092 Debye
        Dipole field         -0.0005 Ry au, 
 
        Potential amp.        0.0557 Ry
        Total length         54.2615 bohr
 

     total cpu time spent up to now is      225.2 secs

     total energy              =   -7397.94158880 Ry
     estimated scf accuracy    <       0.50629155 Ry

     total magnetization       =    81.61 Bohr mag/cell
     absolute magnetization    =    87.65 Bohr mag/cell

     iteration # 14     ecut=    50.00 Ry     beta= 0.10
     Davidson diagonalization with overlap
     ethr =  4.70E-05,  avg # of iterations =  2.0

     negative rho (up, down):  3.384E-04 5.446E-04
 
     Adding external electric field

     Computed dipole along edir(3) : 
        Dipole               -0.8008 Ry au,         -2.0355 Debye
        Dipole field         -0.0005 Ry au, 
 
        Potential amp.        0.0537 Ry
        Total length         54.2615 bohr
 
 
     Adding external electric field

     Computed dipole along edir(3) : 
        Dipole               -0.8008 Ry au,         -2.0355 Debye
        Dipole field         -0.0005 Ry au, 
 
        Potential amp.        0.0537 Ry
        Total length         54.2615 bohr
 

     total cpu time spent up to now is      237.4 secs

     total energy              =   -7398.01604293 Ry
     estimated scf accuracy    <       0.38064646 Ry

     total magnetization       =    81.08 Bohr mag/cell
     absolute magnetization    =    86.33 Bohr mag/cell

     iteration # 15     ecut=    50.00 Ry     beta= 0.10
     Davidson diagonalization with overlap
     ethr =  3.53E-05,  avg # of iterations = 12.0

     negative rho (up, down):  3.173E-04 5.379E-04
 
     Adding external electric field

     Computed dipole along edir(3) : 
        Dipole               -0.8367 Ry au,         -2.1267 Debye
        Dipole field         -0.0005 Ry au, 
 
        Potential amp.        0.0562 Ry
        Total length         54.2615 bohr
 
 
     Adding external electric field

     Computed dipole along edir(3) : 
        Dipole               -0.8367 Ry au,         -2.1267 Debye
        Dipole field         -0.0005 Ry au, 
 
        Potential amp.        0.0562 Ry
        Total length         54.2615 bohr
 

     total cpu time spent up to now is      260.7 secs

     total energy              =   -7398.03835495 Ry
     estimated scf accuracy    <       0.38431062 Ry

     total magnetization       =    80.67 Bohr mag/cell
     absolute magnetization    =    83.51 Bohr mag/cell

     iteration # 16     ecut=    50.00 Ry     beta= 0.10
     Davidson diagonalization with overlap
     ethr =  3.53E-05,  avg # of iterations =  1.5

     negative rho (up, down):  2.484E-05 3.569E-05
 
     Adding external electric field

     Computed dipole along edir(3) : 
        Dipole               -0.8141 Ry au,         -2.0691 Debye
        Dipole field         -0.0005 Ry au, 
 
        Potential amp.        0.0546 Ry
        Total length         54.2615 bohr
 
 
     Adding external electric field

     Computed dipole along edir(3) : 
        Dipole               -0.8141 Ry au,         -2.0691 Debye
        Dipole field         -0.0005 Ry au, 
 
        Potential amp.        0.0546 Ry
        Total length         54.2615 bohr
 

     total cpu time spent up to now is      272.3 secs

     total energy              =   -7398.03033503 Ry
     estimated scf accuracy    <       0.13327052 Ry

     total magnetization       =    81.08 Bohr mag/cell
     absolute magnetization    =    83.31 Bohr mag/cell

     iteration # 17     ecut=    50.00 Ry     beta= 0.10
     Davidson diagonalization with overlap
     c_bands:  4 eigenvalues not converged
     ethr =  1.24E-05,  avg # of iterations = 16.5

     negative rho (up, down):  2.492E-06 1.060E-05
 
     Adding external electric field

     Computed dipole along edir(3) : 
        Dipole               -0.7560 Ry au,         -1.9215 Debye
        Dipole field         -0.0005 Ry au, 
 
        Potential amp.        0.0507 Ry
        Total length         54.2615 bohr
 
 
     Adding external electric field

     Computed dipole along edir(3) : 
        Dipole               -0.7560 Ry au,         -1.9215 Debye
        Dipole field         -0.0005 Ry au, 
 
        Potential amp.        0.0507 Ry
        Total length         54.2615 bohr
 

     total cpu time spent up to now is      296.1 secs

     total energy              =   -7398.03741669 Ry
     estimated scf accuracy    <       0.22802587 Ry

     total magnetization       =    79.36 Bohr mag/cell
     absolute magnetization    =    81.31 Bohr mag/cell

     iteration # 18     ecut=    50.00 Ry     beta= 0.10
     Davidson diagonalization with overlap
     ethr =  1.24E-05,  avg # of iterations =  2.0

     negative rho (up, down):  4.344E-06 7.066E-06
 
     Adding external electric field

     Computed dipole along edir(3) : 
        Dipole               -0.7359 Ry au,         -1.8705 Debye
        Dipole field         -0.0005 Ry au, 
 
        Potential amp.        0.0494 Ry
        Total length         54.2615 bohr
 
 
     Adding external electric field

     Computed dipole along edir(3) : 
        Dipole               -0.7359 Ry au,         -1.8705 Debye
        Dipole field         -0.0005 Ry au, 
 
        Potential amp.        0.0494 Ry
        Total length         54.2615 bohr
 

     total cpu time spent up to now is      308.5 secs

     total energy              =   -7398.04004541 Ry
     estimated scf accuracy    <       0.19471016 Ry

     total magnetization       =    80.27 Bohr mag/cell
     absolute magnetization    =    81.98 Bohr mag/cell

     iteration # 19     ecut=    50.00 Ry     beta= 0.10
     Davidson diagonalization with overlap
     ethr =  1.24E-05,  avg # of iterations =  1.5

     negative rho (up, down):  7.084E-07 5.983E-06
 
     Adding external electric field

     Computed dipole along edir(3) : 
        Dipole               -0.7303 Ry au,         -1.8562 Debye
        Dipole field         -0.0005 Ry au, 
 
        Potential amp.        0.0490 Ry
        Total length         54.2615 bohr
 
 
     Adding external electric field

     Computed dipole along edir(3) : 
        Dipole               -0.7303 Ry au,         -1.8562 Debye
        Dipole field         -0.0005 Ry au, 
 
        Potential amp.        0.0490 Ry
        Total length         54.2615 bohr
 

     total cpu time spent up to now is      320.4 secs

     total energy              =   -7398.04065740 Ry
     estimated scf accuracy    <       0.16484244 Ry

     total magnetization       =    80.14 Bohr mag/cell
     absolute magnetization    =    81.63 Bohr mag/cell

     iteration # 20     ecut=    50.00 Ry     beta= 0.10
     Davidson diagonalization with overlap
     ethr =  1.24E-05,  avg # of iterations =  1.5

     negative rho (up, down):  1.015E-07 4.743E-06
 
     Adding external electric field

     Computed dipole along edir(3) : 
        Dipole               -0.7431 Ry au,         -1.8887 Debye
        Dipole field         -0.0005 Ry au, 
 
        Potential amp.        0.0499 Ry
        Total length         54.2615 bohr
 
 
     Adding external electric field

     Computed dipole along edir(3) : 
        Dipole               -0.7431 Ry au,         -1.8887 Debye
        Dipole field         -0.0005 Ry au, 
 
        Potential amp.        0.0499 Ry
        Total length         54.2615 bohr
 

     total cpu time spent up to now is      331.5 secs

     total energy              =   -7398.03862182 Ry
     estimated scf accuracy    <       0.14450534 Ry

     total magnetization       =    80.27 Bohr mag/cell
     absolute magnetization    =    81.73 Bohr mag/cell

     iteration # 21     ecut=    50.00 Ry     beta= 0.10
     Davidson diagonalization with overlap
     ethr =  1.24E-05,  avg # of iterations =  1.5

     negative rho (up, down):  1.025E-07 6.085E-07
 
     Adding external electric field

     Computed dipole along edir(3) : 
        Dipole               -0.6841 Ry au,         -1.7388 Debye
        Dipole field         -0.0004 Ry au, 
 
        Potential amp.        0.0459 Ry
        Total length         54.2615 bohr
 
 
     Adding external electric field

     Computed dipole along edir(3) : 
        Dipole               -0.6841 Ry au,         -1.7388 Debye
        Dipole field         -0.0004 Ry au, 
 
        Potential amp.        0.0459 Ry
        Total length         54.2615 bohr
 

     total cpu time spent up to now is      343.6 secs

     total energy              =   -7398.03970094 Ry
     estimated scf accuracy    <       0.05612507 Ry

     total magnetization       =    79.89 Bohr mag/cell
     absolute magnetization    =    81.37 Bohr mag/cell

     iteration # 22     ecut=    50.00 Ry     beta= 0.10
     Davidson diagonalization with overlap
     ethr =  5.21E-06,  avg # of iterations = 12.0

     negative rho (up, down):  3.972E-08 1.827E-06
 
     Adding external electric field

     Computed dipole along edir(3) : 
        Dipole               -0.6821 Ry au,         -1.7337 Debye
        Dipole field         -0.0004 Ry au, 
 
        Potential amp.        0.0458 Ry
        Total length         54.2615 bohr
 
 
     Adding external electric field

     Computed dipole along edir(3) : 
        Dipole               -0.6821 Ry au,         -1.7337 Debye
        Dipole field         -0.0004 Ry au, 
 
        Potential amp.        0.0458 Ry
        Total length         54.2615 bohr
 

     total cpu time spent up to now is      367.3 secs

     total energy              =   -7398.03844595 Ry
     estimated scf accuracy    <       0.10578993 Ry

     total magnetization       =    79.84 Bohr mag/cell
     absolute magnetization    =    81.35 Bohr mag/cell

     iteration # 23     ecut=    50.00 Ry     beta= 0.10
     Davidson diagonalization with overlap
     ethr =  5.21E-06,  avg # of iterations =  1.0

     negative rho (up, down):  2.215E-07 4.401E-07
 
     Adding external electric field

     Computed dipole along edir(3) : 
        Dipole               -0.6485 Ry au,         -1.6483 Debye
        Dipole field         -0.0004 Ry au, 
 
        Potential amp.        0.0435 Ry
        Total length         54.2615 bohr
 
 
     Adding external electric field

     Computed dipole along edir(3) : 
        Dipole               -0.6485 Ry au,         -1.6483 Debye
        Dipole field         -0.0004 Ry au, 
 
        Potential amp.        0.0435 Ry
        Total length         54.2615 bohr
 

     total cpu time spent up to now is      378.3 secs

     total energy              =   -7398.03964996 Ry
     estimated scf accuracy    <       0.06292626 Ry

     total magnetization       =    80.17 Bohr mag/cell
     absolute magnetization    =    81.61 Bohr mag/cell

     iteration # 24     ecut=    50.00 Ry     beta= 0.10
     Davidson diagonalization with overlap
     ethr =  5.21E-06,  avg # of iterations =  2.0

     negative rho (up, down):  1.603E-06 2.028E-06
 
     Adding external electric field

     Computed dipole along edir(3) : 
        Dipole               -0.6464 Ry au,         -1.6431 Debye
        Dipole field         -0.0004 Ry au, 
 
        Potential amp.        0.0434 Ry
        Total length         54.2615 bohr
 
 
     Adding external electric field

     Computed dipole along edir(3) : 
        Dipole               -0.6464 Ry au,         -1.6431 Debye
        Dipole field         -0.0004 Ry au, 
 
        Potential amp.        0.0434 Ry
        Total length         54.2615 bohr
 

     total cpu time spent up to now is      390.0 secs

     total energy              =   -7398.03912601 Ry
     estimated scf accuracy    <       0.08962336 Ry

     total magnetization       =    80.08 Bohr mag/cell
     absolute magnetization    =    81.54 Bohr mag/cell

     iteration # 25     ecut=    50.00 Ry     beta= 0.10
     Davidson diagonalization with overlap
     ethr =  5.21E-06,  avg # of iterations =  1.5

     negative rho (up, down):  1.488E-05 1.802E-05
 
     Adding external electric field

     Computed dipole along edir(3) : 
        Dipole               -0.6247 Ry au,         -1.5878 Debye
        Dipole field         -0.0004 Ry au, 
 
        Potential amp.        0.0419 Ry
        Total length         54.2615 bohr
 
 
     Adding external electric field

     Computed dipole along edir(3) : 
        Dipole               -0.6247 Ry au,         -1.5878 Debye
        Dipole field         -0.0004 Ry au, 
 
        Potential amp.        0.0419 Ry
        Total length         54.2615 bohr
 

     total cpu time spent up to now is      402.2 secs

     total energy              =   -7398.03871274 Ry
     estimated scf accuracy    <       0.04193310 Ry

     total magnetization       =    80.23 Bohr mag/cell
     absolute magnetization    =    81.69 Bohr mag/cell

     iteration # 26     ecut=    50.00 Ry     beta= 0.10
     Davidson diagonalization with overlap
     ethr =  3.89E-06,  avg # of iterations =  2.0

     negative rho (up, down):  1.530E-05 1.761E-05
 
     Adding external electric field

     Computed dipole along edir(3) : 
        Dipole               -0.6265 Ry au,         -1.5924 Debye
        Dipole field         -0.0004 Ry au, 
 
        Potential amp.        0.0420 Ry
        Total length         54.2615 bohr
 
 
     Adding external electric field

     Computed dipole along edir(3) : 
        Dipole               -0.6265 Ry au,         -1.5924 Debye
        Dipole field         -0.0004 Ry au, 
 
        Potential amp.        0.0420 Ry
        Total length         54.2615 bohr
 

     total cpu time spent up to now is      414.5 secs

     total energy              =   -7398.03900940 Ry
     estimated scf accuracy    <       0.02385095 Ry

     total magnetization       =    80.45 Bohr mag/cell
     absolute magnetization    =    81.94 Bohr mag/cell

     iteration # 27     ecut=    50.00 Ry     beta= 0.10
     Davidson diagonalization with overlap
     ethr =  2.21E-06,  avg # of iterations =  1.0

     negative rho (up, down):  3.398E-05 4.309E-05
 
     Adding external electric field

     Computed dipole along edir(3) : 
        Dipole               -0.6154 Ry au,         -1.5642 Debye
        Dipole field         -0.0004 Ry au, 
 
        Potential amp.        0.0413 Ry
        Total length         54.2615 bohr
 
 
     Adding external electric field

     Computed dipole along edir(3) : 
        Dipole               -0.6154 Ry au,         -1.5642 Debye
        Dipole field         -0.0004 Ry au, 
 
        Potential amp.        0.0413 Ry
        Total length         54.2615 bohr
 

     total cpu time spent up to now is      425.2 secs

     total energy              =   -7398.03889997 Ry
     estimated scf accuracy    <       0.02293366 Ry

     total magnetization       =    80.45 Bohr mag/cell
     absolute magnetization    =    81.94 Bohr mag/cell

     iteration # 28     ecut=    50.00 Ry     beta= 0.10
     Davidson diagonalization with overlap
     ethr =  2.13E-06,  avg # of iterations =  2.0

     negative rho (up, down):  3.945E-05 4.798E-05
 
     Adding external electric field

     Computed dipole along edir(3) : 
        Dipole               -0.6108 Ry au,         -1.5525 Debye
        Dipole field         -0.0004 Ry au, 
 
        Potential amp.        0.0410 Ry
        Total length         54.2615 bohr
 
 
     Adding external electric field

     Computed dipole along edir(3) : 
        Dipole               -0.6108 Ry au,         -1.5525 Debye
        Dipole field         -0.0004 Ry au, 
 
        Potential amp.        0.0410 Ry
        Total length         54.2615 bohr
 

     total cpu time spent up to now is      437.0 secs

     total energy              =   -7398.03881968 Ry
     estimated scf accuracy    <       0.02150396 Ry

     total magnetization       =    80.43 Bohr mag/cell
     absolute magnetization    =    81.92 Bohr mag/cell

     iteration # 29     ecut=    50.00 Ry     beta= 0.10
     Davidson diagonalization with overlap
     ethr =  1.99E-06,  avg # of iterations =  2.0

     negative rho (up, down):  8.801E-05 1.053E-04
 
     Adding external electric field

     Computed dipole along edir(3) : 
        Dipole               -0.5851 Ry au,         -1.4872 Debye
        Dipole field         -0.0004 Ry au, 
 
        Potential amp.        0.0393 Ry
        Total length         54.2615 bohr
 
 
     Adding external electric field

     Computed dipole along edir(3) : 
        Dipole               -0.5851 Ry au,         -1.4872 Debye
        Dipole field         -0.0004 Ry au, 
 
        Potential amp.        0.0393 Ry
        Total length         54.2615 bohr
 

     total cpu time spent up to now is      448.7 secs

     total energy              =   -7398.03840558 Ry
     estimated scf accuracy    <       0.02021004 Ry

     total magnetization       =    80.43 Bohr mag/cell
     absolute magnetization    =    81.92 Bohr mag/cell

     iteration # 30     ecut=    50.00 Ry     beta= 0.10
     Davidson diagonalization with overlap
     ethr =  1.87E-06,  avg # of iterations =  2.0

     negative rho (up, down):  2.939E-04 3.347E-04
 
     Adding external electric field

     Computed dipole along edir(3) : 
        Dipole               -0.5413 Ry au,         -1.3758 Debye
        Dipole field         -0.0003 Ry au, 
 
        Potential amp.        0.0363 Ry
        Total length         54.2615 bohr
 
 
     Adding external electric field

     Computed dipole along edir(3) : 
        Dipole               -0.5413 Ry au,         -1.3758 Debye
        Dipole field         -0.0003 Ry au, 
 
        Potential amp.        0.0363 Ry
        Total length         54.2615 bohr
 

     total cpu time spent up to now is      460.9 secs

     total energy              =   -7398.03788743 Ry
     estimated scf accuracy    <       0.02006321 Ry

     total magnetization       =    80.43 Bohr mag/cell
     absolute magnetization    =    81.92 Bohr mag/cell

     iteration # 31     ecut=    50.00 Ry     beta= 0.10
     Davidson diagonalization with overlap
     ethr =  1.86E-06,  avg # of iterations =  5.0

     negative rho (up, down):  2.504E-04 2.831E-04
 
     Adding external electric field

     Computed dipole along edir(3) : 
        Dipole               -0.5389 Ry au,         -1.3699 Debye
        Dipole field         -0.0003 Ry au, 
 
        Potential amp.        0.0362 Ry
        Total length         54.2615 bohr
 
 
     Adding external electric field

     Computed dipole along edir(3) : 
        Dipole               -0.5389 Ry au,         -1.3699 Debye
        Dipole field         -0.0003 Ry au, 
 
        Potential amp.        0.0362 Ry
        Total length         54.2615 bohr
 

     total cpu time spent up to now is      474.2 secs

     total energy              =   -7398.03795519 Ry
     estimated scf accuracy    <       0.01993045 Ry

     total magnetization       =    80.41 Bohr mag/cell
     absolute magnetization    =    81.89 Bohr mag/cell

     iteration # 32     ecut=    50.00 Ry     beta= 0.10
     Davidson diagonalization with overlap
     ethr =  1.85E-06,  avg # of iterations =  2.0

     negative rho (up, down):  2.166E-04 2.514E-04
 
     Adding external electric field

     Computed dipole along edir(3) : 
        Dipole               -0.5292 Ry au,         -1.3450 Debye
        Dipole field         -0.0003 Ry au, 
 
        Potential amp.        0.0355 Ry
        Total length         54.2615 bohr
 
 
     Adding external electric field

     Computed dipole along edir(3) : 
        Dipole               -0.5292 Ry au,         -1.3450 Debye
        Dipole field         -0.0003 Ry au, 
 
        Potential amp.        0.0355 Ry
        Total length         54.2615 bohr
 

     total cpu time spent up to now is      486.1 secs

     total energy              =   -7398.03776956 Ry
     estimated scf accuracy    <       0.01864614 Ry

     total magnetization       =    80.43 Bohr mag/cell
     absolute magnetization    =    81.92 Bohr mag/cell

     iteration # 33     ecut=    50.00 Ry     beta= 0.10
     Davidson diagonalization with overlap
     ethr =  1.73E-06,  avg # of iterations =  2.0

     negative rho (up, down):  1.872E-03 1.923E-03
 
     Adding external electric field

     Computed dipole along edir(3) : 
        Dipole               -0.4331 Ry au,         -1.1007 Debye
        Dipole field         -0.0003 Ry au, 
 
        Potential amp.        0.0291 Ry
        Total length         54.2615 bohr
 
 
     Adding external electric field

     Computed dipole along edir(3) : 
        Dipole               -0.4331 Ry au,         -1.1007 Debye
        Dipole field         -0.0003 Ry au, 
 
        Potential amp.        0.0291 Ry
        Total length         54.2615 bohr
 

     total cpu time spent up to now is      498.3 secs

     total energy              =   -7398.03626338 Ry
     estimated scf accuracy    <       0.01633204 Ry

     total magnetization       =    80.43 Bohr mag/cell
     absolute magnetization    =    81.96 Bohr mag/cell

     iteration # 34     ecut=    50.00 Ry     beta= 0.10
     Davidson diagonalization with overlap
     ethr =  1.52E-06,  avg # of iterations =  2.0

     negative rho (up, down):  4.699E-03 4.661E-03
 
     Adding external electric field

     Computed dipole along edir(3) : 
        Dipole               -0.3407 Ry au,         -0.8659 Debye
        Dipole field         -0.0002 Ry au, 
 
        Potential amp.        0.0229 Ry
        Total length         54.2615 bohr
 
 
     Adding external electric field

     Computed dipole along edir(3) : 
        Dipole               -0.3407 Ry au,         -0.8659 Debye
        Dipole field         -0.0002 Ry au, 
 
        Potential amp.        0.0229 Ry
        Total length         54.2615 bohr
 

     total cpu time spent up to now is      510.6 secs

     total energy              =   -7398.03587330 Ry
     estimated scf accuracy    <       0.00973306 Ry

     total magnetization       =    80.46 Bohr mag/cell
     absolute magnetization    =    82.07 Bohr mag/cell

     iteration # 35     ecut=    50.00 Ry     beta= 0.10
     Davidson diagonalization with overlap
     c_bands:  1 eigenvalues not converged
     ethr =  9.03E-07,  avg # of iterations = 13.5

     negative rho (up, down):  2.170E-03 2.071E-03
 
     Adding external electric field

     Computed dipole along edir(3) : 
        Dipole               -0.3126 Ry au,         -0.7946 Debye
        Dipole field         -0.0002 Ry au, 
 
        Potential amp.        0.0210 Ry
        Total length         54.2615 bohr
 
 
     Adding external electric field

     Computed dipole along edir(3) : 
        Dipole               -0.3126 Ry au,         -0.7946 Debye
        Dipole field         -0.0002 Ry au, 
 
        Potential amp.        0.0210 Ry
        Total length         54.2615 bohr
 

     total cpu time spent up to now is      528.5 secs

     total energy              =   -7398.03561320 Ry
     estimated scf accuracy    <       0.00613629 Ry

     total magnetization       =    80.46 Bohr mag/cell
     absolute magnetization    =    82.08 Bohr mag/cell

     iteration # 36     ecut=    50.00 Ry     beta= 0.10
     Davidson diagonalization with overlap
     ethr =  5.69E-07,  avg # of iterations =  2.0

     negative rho (up, down):  7.443E-04 6.376E-04
 
     Adding external electric field

     Computed dipole along edir(3) : 
        Dipole               -0.2666 Ry au,         -0.6777 Debye
        Dipole field         -0.0002 Ry au, 
 
        Potential amp.        0.0179 Ry
        Total length         54.2615 bohr
 
 
     Adding external electric field

     Computed dipole along edir(3) : 
        Dipole               -0.2666 Ry au,         -0.6777 Debye
        Dipole field         -0.0002 Ry au, 
 
        Potential amp.        0.0179 Ry
        Total length         54.2615 bohr
 

     total cpu time spent up to now is      540.1 secs

     total energy              =   -7398.03553487 Ry
     estimated scf accuracy    <       0.00361299 Ry

     total magnetization       =    80.48 Bohr mag/cell
     absolute magnetization    =    82.12 Bohr mag/cell

     iteration # 37     ecut=    50.00 Ry     beta= 0.10
     Davidson diagonalization with overlap
     c_bands:  1 eigenvalues not converged
     ethr =  3.35E-07,  avg # of iterations = 15.0

     negative rho (up, down):  6.152E-05 3.156E-05
 
     Adding external electric field

     Computed dipole along edir(3) : 
        Dipole               -0.2714 Ry au,         -0.6898 Debye
        Dipole field         -0.0002 Ry au, 
 
        Potential amp.        0.0182 Ry
        Total length         54.2615 bohr
 
 
     Adding external electric field

     Computed dipole along edir(3) : 
        Dipole               -0.2714 Ry au,         -0.6898 Debye
        Dipole field         -0.0002 Ry au, 
 
        Potential amp.        0.0182 Ry
        Total length         54.2615 bohr
 

     total cpu time spent up to now is      558.5 secs

     total energy              =   -7398.03572465 Ry
     estimated scf accuracy    <       0.00178227 Ry

     total magnetization       =    80.47 Bohr mag/cell
     absolute magnetization    =    82.11 Bohr mag/cell

     iteration # 38     ecut=    50.00 Ry     beta= 0.10
     Davidson diagonalization with overlap
     c_bands:  3 eigenvalues not converged
     ethr =  1.65E-07,  avg # of iterations = 11.0

     negative rho (up, down):  7.971E-05 3.848E-05
 
     Adding external electric field

     Computed dipole along edir(3) : 
        Dipole               -0.2338 Ry au,         -0.5942 Debye
        Dipole field         -0.0001 Ry au, 
 
        Potential amp.        0.0157 Ry
        Total length         54.2615 bohr
 
 
     Adding external electric field

     Computed dipole along edir(3) : 
        Dipole               -0.2338 Ry au,         -0.5942 Debye
        Dipole field         -0.0001 Ry au, 
 
        Potential amp.        0.0157 Ry
        Total length         54.2615 bohr
 

     total cpu time spent up to now is      574.9 secs

     total energy              =   -7398.03584085 Ry
     estimated scf accuracy    <       0.00132751 Ry

     total magnetization       =    80.48 Bohr mag/cell
     absolute magnetization    =    82.08 Bohr mag/cell

     iteration # 39     ecut=    50.00 Ry     beta= 0.10
     Davidson diagonalization with overlap
     c_bands:  1 eigenvalues not converged
     ethr =  1.23E-07,  avg # of iterations = 11.0

     negative rho (up, down):  3.872E-04 2.669E-04
 
     Adding external electric field

     Computed dipole along edir(3) : 
        Dipole               -0.1955 Ry au,         -0.4968 Debye
        Dipole field         -0.0001 Ry au, 
 
        Potential amp.        0.0131 Ry
        Total length         54.2615 bohr
 
 
     Adding external electric field

     Computed dipole along edir(3) : 
        Dipole               -0.1955 Ry au,         -0.4968 Debye
        Dipole field         -0.0001 Ry au, 
 
        Potential amp.        0.0131 Ry
        Total length         54.2615 bohr
 

     total cpu time spent up to now is      592.2 secs

     total energy              =   -7398.03599999 Ry
     estimated scf accuracy    <       0.00084640 Ry

     total magnetization       =    80.48 Bohr mag/cell
     absolute magnetization    =    82.04 Bohr mag/cell

     iteration # 40     ecut=    50.00 Ry     beta= 0.10
     Davidson diagonalization with overlap
     ethr =  7.85E-08,  avg # of iterations =  2.0

     negative rho (up, down):  6.139E-04 4.245E-04
 
     Adding external electric field

     Computed dipole along edir(3) : 
        Dipole               -0.1704 Ry au,         -0.4332 Debye
        Dipole field         -0.0001 Ry au, 
 
        Potential amp.        0.0114 Ry
        Total length         54.2615 bohr
 
 
     Adding external electric field

     Computed dipole along edir(3) : 
        Dipole               -0.1704 Ry au,         -0.4332 Debye
        Dipole field         -0.0001 Ry au, 
 
        Potential amp.        0.0114 Ry
        Total length         54.2615 bohr
 

     total cpu time spent up to now is      604.0 secs

     total energy              =   -7398.03609542 Ry
     estimated scf accuracy    <       0.00059867 Ry

     total magnetization       =    80.48 Bohr mag/cell
     absolute magnetization    =    82.02 Bohr mag/cell

     iteration # 41     ecut=    50.00 Ry     beta= 0.10
     Davidson diagonalization with overlap
     ethr =  5.55E-08,  avg # of iterations =  2.0

     negative rho (up, down):  1.939E-04 8.379E-05
 
     Adding external electric field

     Computed dipole along edir(3) : 
        Dipole               -0.1712 Ry au,         -0.4351 Debye
        Dipole field         -0.0001 Ry au, 
 
        Potential amp.        0.0115 Ry
        Total length         54.2615 bohr
 
 
     Adding external electric field

     Computed dipole along edir(3) : 
        Dipole               -0.1712 Ry au,         -0.4351 Debye
        Dipole field         -0.0001 Ry au, 
 
        Potential amp.        0.0115 Ry
        Total length         54.2615 bohr
 

     total cpu time spent up to now is      616.9 secs

     total energy              =   -7398.03611379 Ry
     estimated scf accuracy    <       0.00043421 Ry

     total magnetization       =    80.48 Bohr mag/cell
     absolute magnetization    =    82.01 Bohr mag/cell

     iteration # 42     ecut=    50.00 Ry     beta= 0.10
     Davidson diagonalization with overlap
     ethr =  4.03E-08,  avg # of iterations =  2.0

     negative rho (up, down):  7.456E-04 5.550E-04
 
     Adding external electric field

     Computed dipole along edir(3) : 
        Dipole               -0.1541 Ry au,         -0.3916 Debye
        Dipole field         -0.0001 Ry au, 
 
        Potential amp.        0.0103 Ry
        Total length         54.2615 bohr
 
 
     Adding external electric field

     Computed dipole along edir(3) : 
        Dipole               -0.1541 Ry au,         -0.3916 Debye
        Dipole field         -0.0001 Ry au, 
 
        Potential amp.        0.0103 Ry
        Total length         54.2615 bohr
 

     total cpu time spent up to now is      627.9 secs

     total energy              =   -7398.03612242 Ry
     estimated scf accuracy    <       0.00034123 Ry

     total magnetization       =    80.48 Bohr mag/cell
     absolute magnetization    =    82.01 Bohr mag/cell

     iteration # 43     ecut=    50.00 Ry     beta= 0.10
     Davidson diagonalization with overlap
     ethr =  3.17E-08,  avg # of iterations =  2.0

     negative rho (up, down):  1.549E-03 1.332E-03
 
     Adding external electric field

     Computed dipole along edir(3) : 
        Dipole               -0.1420 Ry au,         -0.3610 Debye
        Dipole field         -0.0001 Ry au, 
 
        Potential amp.        0.0095 Ry
        Total length         54.2615 bohr
 
 
     Adding external electric field

     Computed dipole along edir(3) : 
        Dipole               -0.1420 Ry au,         -0.3610 Debye
        Dipole field         -0.0001 Ry au, 
 
        Potential amp.        0.0095 Ry
        Total length         54.2615 bohr
 

     total cpu time spent up to now is      640.0 secs

     total energy              =   -7398.03613106 Ry
     estimated scf accuracy    <       0.00025761 Ry

     total magnetization       =    80.47 Bohr mag/cell
     absolute magnetization    =    82.01 Bohr mag/cell

     iteration # 44     ecut=    50.00 Ry     beta= 0.10
     Davidson diagonalization with overlap
     ethr =  2.39E-08,  avg # of iterations =  2.0

     negative rho (up, down):  1.106E-03 8.243E-04
 
     Adding external electric field

     Computed dipole along edir(3) : 
        Dipole               -0.1460 Ry au,         -0.3712 Debye
        Dipole field         -0.0001 Ry au, 
 
        Potential amp.        0.0098 Ry
        Total length         54.2615 bohr
 
 
     Adding external electric field

     Computed dipole along edir(3) : 
        Dipole               -0.1460 Ry au,         -0.3712 Debye
        Dipole field         -0.0001 Ry au, 
 
        Potential amp.        0.0098 Ry
        Total length         54.2615 bohr
 

     total cpu time spent up to now is      652.0 secs

     total energy              =   -7398.03612284 Ry
     estimated scf accuracy    <       0.00017703 Ry

     total magnetization       =    80.47 Bohr mag/cell
     absolute magnetization    =    82.00 Bohr mag/cell

     iteration # 45     ecut=    50.00 Ry     beta= 0.10
     Davidson diagonalization with overlap
     ethr =  1.64E-08,  avg # of iterations =  2.0

     negative rho (up, down):  1.054E-03 7.348E-04
 
     Adding external electric field

     Computed dipole along edir(3) : 
        Dipole               -0.1452 Ry au,         -0.3690 Debye
        Dipole field         -0.0001 Ry au, 
 
        Potential amp.        0.0097 Ry
        Total length         54.2615 bohr
 
 
     Adding external electric field

     Computed dipole along edir(3) : 
        Dipole               -0.1452 Ry au,         -0.3690 Debye
        Dipole field         -0.0001 Ry au, 
 
        Potential amp.        0.0097 Ry
        Total length         54.2615 bohr
 

     total cpu time spent up to now is      663.9 secs

     total energy              =   -7398.03611586 Ry
     estimated scf accuracy    <       0.00013640 Ry

     total magnetization       =    80.48 Bohr mag/cell
     absolute magnetization    =    82.01 Bohr mag/cell

     iteration # 46     ecut=    50.00 Ry     beta= 0.10
     Davidson diagonalization with overlap
     ethr =  1.27E-08,  avg # of iterations =  2.0

     negative rho (up, down):  9.987E-04 6.059E-04
 
     Adding external electric field

     Computed dipole along edir(3) : 
        Dipole               -0.1417 Ry au,         -0.3603 Debye
        Dipole field         -0.0001 Ry au, 
 
        Potential amp.        0.0095 Ry
        Total length         54.2615 bohr
 
 
     Adding external electric field

     Computed dipole along edir(3) : 
        Dipole               -0.1417 Ry au,         -0.3603 Debye
        Dipole field         -0.0001 Ry au, 
 
        Potential amp.        0.0095 Ry
        Total length         54.2615 bohr
 

     total cpu time spent up to now is      676.6 secs

     total energy              =   -7398.03610377 Ry
     estimated scf accuracy    <       0.00009573 Ry

     total magnetization       =    80.48 Bohr mag/cell
     absolute magnetization    =    82.01 Bohr mag/cell

     iteration # 47     ecut=    50.00 Ry     beta= 0.10
     Davidson diagonalization with overlap
     ethr =  8.88E-09,  avg # of iterations =  2.0

     negative rho (up, down):  1.160E-03 7.286E-04
 
     Adding external electric field

     Computed dipole along edir(3) : 
        Dipole               -0.1388 Ry au,         -0.3528 Debye
        Dipole field         -0.0001 Ry au, 
 
        Potential amp.        0.0093 Ry
        Total length         54.2615 bohr
 
 
     Adding external electric field

     Computed dipole along edir(3) : 
        Dipole               -0.1388 Ry au,         -0.3528 Debye
        Dipole field         -0.0001 Ry au, 
 
        Potential amp.        0.0093 Ry
        Total length         54.2615 bohr
 

     total cpu time spent up to now is      687.9 secs

     total energy              =   -7398.03611098 Ry
     estimated scf accuracy    <       0.00005703 Ry

     total magnetization       =    80.47 Bohr mag/cell
     absolute magnetization    =    82.00 Bohr mag/cell

     iteration # 48     ecut=    50.00 Ry     beta= 0.10
     Davidson diagonalization with overlap
     ethr =  5.29E-09,  avg # of iterations =  1.5

     negative rho (up, down):  1.078E-03 6.754E-04
 
     Adding external electric field

     Computed dipole along edir(3) : 
        Dipole               -0.1374 Ry au,         -0.3493 Debye
        Dipole field         -0.0001 Ry au, 
 
        Potential amp.        0.0092 Ry
        Total length         54.2615 bohr
 
 
     Adding external electric field

     Computed dipole along edir(3) : 
        Dipole               -0.1374 Ry au,         -0.3493 Debye
        Dipole field         -0.0001 Ry au, 
 
        Potential amp.        0.0092 Ry
        Total length         54.2615 bohr
 

     total cpu time spent up to now is      698.6 secs

     total energy              =   -7398.03610987 Ry
     estimated scf accuracy    <       0.00004603 Ry

     total magnetization       =    80.47 Bohr mag/cell
     absolute magnetization    =    82.00 Bohr mag/cell

     iteration # 49     ecut=    50.00 Ry     beta= 0.10
     Davidson diagonalization with overlap
     ethr =  4.27E-09,  avg # of iterations =  2.0

     negative rho (up, down):  9.633E-04 5.880E-04
 
     Adding external electric field

     Computed dipole along edir(3) : 
        Dipole               -0.1382 Ry au,         -0.3512 Debye
        Dipole field         -0.0001 Ry au, 
 
        Potential amp.        0.0093 Ry
        Total length         54.2615 bohr
 
 
     Adding external electric field

     Computed dipole along edir(3) : 
        Dipole               -0.1382 Ry au,         -0.3512 Debye
        Dipole field         -0.0001 Ry au, 
 
        Potential amp.        0.0093 Ry
        Total length         54.2615 bohr
 

     total cpu time spent up to now is      711.0 secs

     total energy              =   -7398.03611162 Ry
     estimated scf accuracy    <       0.00001636 Ry

     total magnetization       =    80.47 Bohr mag/cell
     absolute magnetization    =    82.00 Bohr mag/cell

     iteration # 50     ecut=    50.00 Ry     beta= 0.10
     Davidson diagonalization with overlap
     ethr =  1.52E-09,  avg # of iterations =  2.0

     negative rho (up, down):  1.037E-03 6.803E-04
 
     Adding external electric field

     Computed dipole along edir(3) : 
        Dipole               -0.1381 Ry au,         -0.3510 Debye
        Dipole field         -0.0001 Ry au, 
 
        Potential amp.        0.0093 Ry
        Total length         54.2615 bohr
 
 
     Adding external electric field

     Computed dipole along edir(3) : 
        Dipole               -0.1381 Ry au,         -0.3510 Debye
        Dipole field         -0.0001 Ry au, 
 
        Potential amp.        0.0093 Ry
        Total length         54.2615 bohr
 

     total cpu time spent up to now is      722.5 secs

     total energy              =   -7398.03611191 Ry
     estimated scf accuracy    <       0.00000914 Ry

     total magnetization       =    80.47 Bohr mag/cell
     absolute magnetization    =    82.00 Bohr mag/cell

     iteration # 51     ecut=    50.00 Ry     beta= 0.10
     Davidson diagonalization with overlap
     ethr =  8.48E-10,  avg # of iterations =  2.0

     negative rho (up, down):  8.243E-04 4.618E-04
 
     Adding external electric field

     Computed dipole along edir(3) : 
        Dipole               -0.1411 Ry au,         -0.3585 Debye
        Dipole field         -0.0001 Ry au, 
 
        Potential amp.        0.0095 Ry
        Total length         54.2615 bohr
 
 
     Adding external electric field

     Computed dipole along edir(3) : 
        Dipole               -0.1411 Ry au,         -0.3585 Debye
        Dipole field         -0.0001 Ry au, 
 
        Potential amp.        0.0095 Ry
        Total length         54.2615 bohr
 

     total cpu time spent up to now is      733.4 secs

     total energy              =   -7398.03611046 Ry
     estimated scf accuracy    <       0.00000542 Ry

     total magnetization       =    80.47 Bohr mag/cell
     absolute magnetization    =    82.00 Bohr mag/cell

     iteration # 52     ecut=    50.00 Ry     beta= 0.10
     Davidson diagonalization with overlap
     ethr =  5.03E-10,  avg # of iterations =  2.0

     negative rho (up, down):  7.940E-04 4.370E-04
 
     Adding external electric field

     Computed dipole along edir(3) : 
        Dipole               -0.1419 Ry au,         -0.3608 Debye
        Dipole field         -0.0001 Ry au, 
 
        Potential amp.        0.0095 Ry
        Total length         54.2615 bohr
 
 
     Adding external electric field

     Computed dipole along edir(3) : 
        Dipole               -0.1419 Ry au,         -0.3608 Debye
        Dipole field         -0.0001 Ry au, 
 
        Potential amp.        0.0095 Ry
        Total length         54.2615 bohr
 

     total cpu time spent up to now is      745.1 secs

     total energy              =   -7398.03610990 Ry
     estimated scf accuracy    <       0.00000281 Ry

     total magnetization       =    80.47 Bohr mag/cell
     absolute magnetization    =    82.00 Bohr mag/cell

     iteration # 53     ecut=    50.00 Ry     beta= 0.10
     Davidson diagonalization with overlap
     ethr =  2.61E-10,  avg # of iterations =  2.0

     negative rho (up, down):  8.029E-04 4.454E-04
 
     Adding external electric field

     Computed dipole along edir(3) : 
        Dipole               -0.1419 Ry au,         -0.3608 Debye
        Dipole field         -0.0001 Ry au, 
 
        Potential amp.        0.0095 Ry
        Total length         54.2615 bohr
 
 
     Adding external electric field

     Computed dipole along edir(3) : 
        Dipole               -0.1419 Ry au,         -0.3608 Debye
        Dipole field         -0.0001 Ry au, 
 
        Potential amp.        0.0095 Ry
        Total length         54.2615 bohr
 

     total cpu time spent up to now is      757.3 secs

     total energy              =   -7398.03611009 Ry
     estimated scf accuracy    <       0.00000194 Ry

     total magnetization       =    80.47 Bohr mag/cell
     absolute magnetization    =    82.00 Bohr mag/cell

     iteration # 54     ecut=    50.00 Ry     beta= 0.10
     Davidson diagonalization with overlap
     ethr =  1.80E-10,  avg # of iterations =  2.0

     negative rho (up, down):  8.396E-04 4.777E-04
 
     Adding external electric field

     Computed dipole along edir(3) : 
        Dipole               -0.1417 Ry au,         -0.3602 Debye
        Dipole field         -0.0001 Ry au, 
 
        Potential amp.        0.0095 Ry
        Total length         54.2615 bohr
 
 
     Adding external electric field

     Computed dipole along edir(3) : 
        Dipole               -0.1417 Ry au,         -0.3602 Debye
        Dipole field         -0.0001 Ry au, 
 
        Potential amp.        0.0095 Ry
        Total length         54.2615 bohr
 

     total cpu time spent up to now is      770.2 secs

     total energy              =   -7398.03611055 Ry
     estimated scf accuracy    <       0.00000136 Ry

     total magnetization       =    80.47 Bohr mag/cell
     absolute magnetization    =    82.00 Bohr mag/cell

     iteration # 55     ecut=    50.00 Ry     beta= 0.10
     Davidson diagonalization with overlap
     ethr =  1.26E-10,  avg # of iterations =  2.0

     negative rho (up, down):  9.308E-04 5.478E-04
 
     Adding external electric field

     Computed dipole along edir(3) : 
        Dipole               -0.1432 Ry au,         -0.3640 Debye
        Dipole field         -0.0001 Ry au, 
 
        Potential amp.        0.0096 Ry
        Total length         54.2615 bohr
 
 
     Adding external electric field

     Computed dipole along edir(3) : 
        Dipole               -0.1432 Ry au,         -0.3640 Debye
        Dipole field         -0.0001 Ry au, 
 
        Potential amp.        0.0096 Ry
        Total length         54.2615 bohr
 
 
     Magnetic moment per site  (integrated on atomic sphere of radius R)
     atom   1 (R=0.087)  charge= 12.0344  magn=  3.8859
     atom   2 (R=0.080)  charge=  7.1183  magn=  1.5362
     atom   3 (R=0.080)  charge=  7.1303  magn=  1.4446
     atom   4 (R=0.080)  charge=  7.1170  magn=  1.5459
     atom   5 (R=0.080)  charge=  7.1441  magn=  1.5015
     atom   6 (R=0.080)  charge=  7.1353  magn=  1.4986
     atom   7 (R=0.080)  charge=  7.1379  magn=  1.4241
     atom   8 (R=0.080)  charge=  7.1195  magn=  1.5338
     atom   9 (R=0.080)  charge=  7.1300  magn=  1.4498
     atom  10 (R=0.080)  charge=  7.1185  magn=  1.5424
     atom  11 (R=0.080)  charge=  7.1404  magn=  1.4976
     atom  12 (R=0.080)  charge=  7.1361  magn=  1.4999
     atom  13 (R=0.065)  charge=  0.7513  magn=  0.0078
     atom  14 (R=0.065)  charge=  0.7308  magn=  0.0042
     atom  15 (R=0.065)  charge=  0.7507  magn=  0.0034
     atom  16 (R=0.065)  charge=  0.7368  magn=  0.0054
     atom  17 (R=0.043)  charge=  1.9580  magn=  0.0615
     atom  18 (R=0.043)  charge=  1.9485  magn=  0.0733
     atom  19 (R=0.043)  charge=  1.9503  magn=  0.0921
     atom  20 (R=0.043)  charge=  1.9518  magn=  0.0762
     atom  21 (R=0.043)  charge=  1.9659  magn=  0.0454
     atom  22 (R=0.043)  charge=  1.9453  magn=  0.0341
     atom  23 (R=0.043)  charge=  1.9445  magn=  0.0484
     atom  24 (R=0.043)  charge=  1.9596  magn=  0.0569
     atom  25 (R=0.043)  charge=  1.9566  magn=  0.0566
     atom  26 (R=0.043)  charge=  1.9786  magn=  0.0411
     atom  27 (R=0.043)  charge=  1.9579  magn=  0.0499
     atom  28 (R=0.043)  charge=  1.9570  magn=  0.0485
     atom  29 (R=0.043)  charge=  1.9699  magn=  0.0365
     atom  30 (R=0.043)  charge=  1.9514  magn=  0.0515
     atom  31 (R=0.043)  charge=  1.9760  magn=  0.0523
     atom  32 (R=0.043)  charge=  1.9593  magn=  0.0462
     atom  33 (R=0.065)  charge=  0.7467  magn=  0.0055
     atom  34 (R=0.065)  charge=  0.7404  magn=  0.0035
     atom  35 (R=0.065)  charge=  0.7497  magn=  0.0026
     atom  36 (R=0.065)  charge=  0.7265  magn=  0.0056
     atom  37 (R=0.043)  charge=  1.9509  magn=  0.0773
     atom  38 (R=0.043)  charge=  1.9512  magn=  0.0923
     atom  39 (R=0.043)  charge=  1.9528  magn=  0.0960
     atom  40 (R=0.043)  charge=  1.9495  magn=  0.0767
     atom  41 (R=0.043)  charge=  1.9559  magn=  0.0562
     atom  42 (R=0.043)  charge=  1.9422  magn=  0.0468
     atom  43 (R=0.043)  charge=  1.9444  magn=  0.0511
     atom  44 (R=0.043)  charge=  1.9586  magn=  0.0566
     atom  45 (R=0.043)  charge=  1.9564  magn=  0.0575
     atom  46 (R=0.043)  charge=  1.9754  magn=  0.0517
[...]
    -5.9977  -5.9708  -5.9596  -5.9264  -5.9126  -5.8691  -5.8610  -5.8519
    -5.8153  -5.8085  -5.7537  -5.7383  -5.7270  -5.7097  -5.6967  -5.6823
    -5.6731  -5.6683  -5.6364  -5.6206  -5.6128  -5.5797  -5.5330  -5.5085
    -5.4727  -5.4359  -5.4084  -5.4011  -5.3884  -5.3523  -5.3085  -5.2879
    -5.2412  -5.2146  -5.1886  -5.1730  -5.1706  -5.0830  -5.0812  -5.0583
    -4.9859  -4.9769  -4.9379  -4.9138  -4.8895  -4.8775  -4.8596  -4.7978
    -4.7812  -4.7631  -4.7512  -4.7352  -4.6449  -4.6295  -4.5747  -4.5512
    -4.5224  -4.5191  -4.5019  -4.4613  -4.4113  -4.3928  -4.3811  -4.3716
    -4.3601  -4.2992  -4.2954  -4.2302  -4.1748  -4.1443  -4.1066  -4.0958
    -4.0795  -4.0478  -4.0364  -3.9965  -3.9641  -3.9558  -3.9142  -3.8992
    -3.8783  -3.8407  -3.8260  -3.8085  -3.7971  -3.7630  -3.7493  -3.7330
    -3.7013  -3.6867  -3.6660  -3.6451  -3.6428  -3.6366  -3.5936  -3.5831
    -3.5452  -3.5275  -3.5122  -3.4952  -3.4886  -3.4767  -3.4546  -3.4422
    -3.4303  -3.3999  -3.3863  -3.3494  -3.3382  -3.3156  -3.2647  -3.2524
    -3.2342  -3.2166  -3.2148  -3.1848  -3.1786  -3.1675  -3.1508  -3.1436
    -3.1290  -3.0790  -3.0383  -3.0324  -3.0061  -3.0018  -2.9689  -2.9409
    -2.9191  -2.9184  -2.9016  -2.8730  -2.8587  -2.8375  -2.8186  -2.8102
    -2.7994  -2.7875  -2.7808  -2.7681  -2.7464  -2.7387  -2.7256  -2.7001
    -2.6823  -2.6672  -2.6631  -2.6518  -2.6249  -2.6122  -2.5936  -2.5808
    -2.5519  -2.5374  -2.5283  -2.5192  -2.4955  -2.4808  -2.4689  -2.4376
    -2.4142  -2.3988  -2.3942  -2.3705  -2.3577  -2.3140  -2.2947  -2.2857
    -2.2646  -2.2421  -2.2302  -2.2097  -2.1771  -2.1591  -2.1276  -2.1225
    -2.1117  -2.0873  -2.0791  -2.0717  -2.0700  -2.0386  -2.0068  -1.9907
    -1.9766  -1.9642  -1.9565  -1.9416  -1.9278  -1.9207  -1.8918  -1.8582
    -1.8434  -1.8204  -1.7896  -1.7657  -1.7382  -1.7243  -1.6999  -1.6948
    -1.6578  -1.6536  -1.6475  -1.6306  -1.6156  -1.6082  -1.5851  -1.5494
    -1.5362  -1.5146  -1.4734  -1.4670  -1.4442  -1.4352  -1.4213  -1.4139
    -1.3882  -1.3840  -1.3406  -1.3212  -1.2995  -1.2398  -1.2355  -1.2059
    -1.1505  -1.1014  -1.0750  -1.0550  -1.0160  -0.9290  -0.9071  -0.8787
    -0.7680  -0.6705  -0.6162  -0.5979  -0.4658  -0.3692  -0.3150  -0.2615
     0.1010   0.1235   0.1521   0.1898   0.2234   0.2407   0.2576   0.2694
     0.2779   0.2950   0.2984   0.3006   0.3076   0.3287   0.3411   0.3470
     0.3528   0.3549   0.3720   0.3777   0.3818   0.3924   0.3947   0.4059
     0.4098   0.4127   0.4218   0.4350   0.4423   0.4503   0.4554   0.4591
     0.4624   0.4687   0.4713   0.4900   0.4910   0.4975   0.5096   0.5120
     0.5189   0.5411   0.5435   0.5476   0.5568   0.5626   0.5650   0.5702
     0.5751   0.5860   0.5900   0.5920   0.6062   0.6131   0.6209   0.6334
     0.6368   0.6454   0.6522   0.6640   0.6723   0.6732   0.6849   0.6895
     0.6904   0.6993   0.7085   0.7121   0.7174   0.7332   0.7382   0.7428
     0.7461   0.7527   0.7667   0.7779   0.7843   0.7953   0.8054   0.8192
     0.8253   0.8350   0.8417   0.8590   0.8617   0.8695   0.8775   0.8792
     0.8950   0.9113   0.9175   0.9238   0.9335   0.9698   0.9840   1.0403
     1.0692   1.1330   1.6017   1.6556   1.6984   1.7103   1.7116   1.7397
     1.7691   1.8317   1.8677   1.8709   1.8929   1.9289   1.9333   1.9634
     1.9759   1.9883   2.0137   2.0361   2.0493   2.0696   2.0815   2.1083
     2.1411   2.1533   2.1771   2.1880   2.1950   2.2137   2.2225   2.2424
     2.2493   2.2526   2.2658   2.2789   2.2853   2.2944   2.3044   2.3212
     2.3357   2.3412   2.3632   2.3851   2.4011   2.4168   2.4315   2.4447
     2.4541   2.4717   2.4961   2.5035   2.5112   2.5298   2.5526   2.5657
     2.5776   2.5844   2.6087   2.6358   2.6585   2.6706   2.7331   2.7595
     2.7810   2.8312   2.8406   2.9024   2.9157   3.5866   3.5880   3.6624
     3.7577   3.8230   3.8401   3.8539   3.8591   3.9970   4.0620   4.5861
     4.6435   4.7056   4.7721   4.9232   4.9464   5.0172   5.4124   6.2937
     6.3586   6.5403   6.5870   6.7766   6.8136   6.8412   6.8778   6.9222
     7.0120   7.0645   7.0952   7.1178   7.3182   7.3624   7.3755   7.4124
     7.4967   7.5527   7.6537   7.6740   7.6869   7.7526   7.7855   7.8071
     7.8607   7.9181   7.9486   7.9770   8.0192   8.0291   8.0584   8.0676
     8.0912   8.1145   8.1580   8.1990   8.2322   8.2623   8.2979   8.3256
     8.3781   8.4079   8.4159   8.4403   8.4589   8.4762   8.4983   8.5089
     8.5306   8.5554   8.5817   8.5952   8.6187   8.6413   8.6776   8.6887
     8.7196   8.7646   8.7924   8.7953   8.8205   8.8587   8.8656

     the Fermi energy is     1.5628 ev

!    total energy              =   -7398.03611124 Ry
     estimated scf accuracy    <       0.00000092 Ry
     smearing contrib. (-TS)   =      -0.01404113 Ry
     internal energy E=F+TS    =   -7398.02207011 Ry

     The total energy is F=E-TS. E is the sum of the following terms:
     one-electron contribution =  -91684.52813930 Ry
     hartree contribution      =   46490.22507354 Ry
     xc contribution           =   -2260.27624288 Ry
     ewald contribution        =   40058.39072853 Ry
     Dispersion Correction     =      -1.83350269 Ry
     electric field correction =       0.00001268 Ry

     total magnetization       =    80.47 Bohr mag/cell
     absolute magnetization    =    82.00 Bohr mag/cell

     convergence has been achieved in  55 iterations

     negative rho (up, down):  9.308E-04 5.478E-04

     Forces acting on atoms (cartesian axes, Ry/au):

     atom    1 type  2   force =     0.03082608   -0.01950460   -0.01644022
     atom    2 type  1   force =     0.00215623   -0.00392566   -0.01075047
     atom    3 type  1   force =    -0.02146551   -0.02063696    0.01797621
     atom    4 type  1   force =     0.00143321    0.01022479   -0.01273275
     atom    5 type  1   force =    -0.00475865    0.02893323   -0.01852006
     atom    6 type  1   force =     0.00584111    0.00050732   -0.00045792
     atom    7 type  1   force =     0.02677225   -0.02080602    0.01727695
     atom    8 type  1   force =    -0.00959323   -0.00299149   -0.01110526
     atom    9 type  1   force =    -0.02960415   -0.01820961    0.01598982
     atom   10 type  1   force =    -0.00119144    0.00802925   -0.01302510
     atom   11 type  1   force =    -0.01311540    0.03035485   -0.02069914
     atom   12 type  1   force =     0.00121788    0.00651337   -0.00407861
     atom   13 type  3   force =     0.05101749   -0.11002132    0.00918027
     atom   14 type  3   force =    -0.02904040    0.03592946   -0.06517725
     atom   15 type  3   force =    -0.00920201    0.17549183   -0.08317345
     atom   16 type  3   force =     0.06069536    0.00054651   -0.00437333
     atom   17 type  4   force =     0.01519343   -0.02185972   -0.00981874
     atom   18 type  4   force =    -0.00542136    0.00484528    0.02966705
     atom   19 type  4   force =     0.00217274    0.00101949    0.03077242
     atom   20 type  4   force =     0.00514558    0.00185361    0.00231732
     atom   21 type  4   force =     0.00054097   -0.01203899    0.00002448
     atom   22 type  4   force =    -0.00094743    0.00388350    0.03251417
     atom   23 type  4   force =    -0.00607164    0.01466902    0.02740125
     atom   24 type  4   force =     0.00870697    0.00319408   -0.00423336
     atom   25 type  4   force =     0.00651996   -0.00318643    0.00156821
     atom   26 type  4   force =     0.03114917   -0.17836710    0.00723216
     atom   27 type  4   force =     0.00281299    0.00100388    0.00170112
     atom   28 type  4   force =    -0.01706524    0.00166778    0.00473679
     atom   29 type  4   force =     0.09137023    0.00316350    0.00803981
     atom   30 type  4   force =     0.01305555   -0.02518047   -0.00092494
     atom   31 type  4   force =    -0.03848999    0.13339867   -0.00017792
     atom   32 type  4   force =    -0.00548602   -0.01188044    0.00652183
     atom   33 type  3   force =     0.04157336   -0.11919900    0.00963451
     atom   34 type  3   force =    -0.10168971    0.04258848   -0.07574765
     atom   35 type  3   force =    -0.01351062    0.16599289   -0.08810938
     atom   36 type  3   force =    -0.00358286    0.00254523   -0.01041743
     atom   37 type  4   force =     0.00821564   -0.01470049   -0.00240374
     atom   38 type  4   force =    -0.00588231   -0.00167528    0.02744794
     atom   39 type  4   force =    -0.00466390    0.00725992    0.03218948
     atom   40 type  4   force =     0.00130871    0.00002396    0.00244027
     atom   41 type  4   force =    -0.00154648   -0.00965695   -0.00146923
     atom   42 type  4   force =     0.00541447   -0.00051414    0.02932066
     atom   43 type  4   force =    -0.01044422    0.01350777    0.02704118
     atom   44 type  4   force =     0.00447950    0.00346311   -0.00444953
     atom   45 type  4   force =    -0.00028911   -0.00057481    0.00202319
     atom   46 type  4   force =     0.02815219   -0.17059069    0.00539509
     atom   47 type  4   force =    -0.06559498   -0.00073805   -0.00309959
     atom   48 type  4   force =    -0.01988176    0.00390792    0.00529441
     atom   49 type  4   force =     0.01408544    0.00085230    0.00203061
     atom   50 type  4   force =     0.00792988   -0.02441980   -0.00017629
     atom   51 type  4   force =    -0.03977744    0.13337824   -0.00135279
     atom   52 type  4   force =    -0.00774345   -0.01066816    0.00876064
     atom   53 type  2   force =     0.00626647   -0.00721420    0.00576909
     atom   54 type  1   force =     0.00059563   -0.00453943    0.00802457
     atom   55 type  1   force =     0.00498710   -0.00626394    0.00682412
     atom   56 type  1   force =     0.00080358    0.00584513    0.00314838
     atom   57 type  1   force =     0.00086303    0.02203564   -0.01381759
     atom   58 type  1   force =     0.00154416   -0.00343589    0.00256033
     atom   59 type  1   force =     0.00247161   -0.01014994    0.00387540
     atom   60 type  1   force =    -0.00683519   -0.00288044    0.00378746
     atom   61 type  1   force =    -0.00461362   -0.00503435    0.00676226
     atom   62 type  1   force =    -0.00360434    0.00592957   -0.00061996
     atom   63 type  1   force =    -0.01105313    0.02515969   -0.01743579
     atom   64 type  1   force =    -0.00224431    0.00112580   -0.00058744
     atom   65 type  3   force =     0.04516396   -0.11954467    0.01963689
     atom   66 type  3   force =     0.00158574   -0.00444570    0.00058827
     atom   67 type  3   force =    -0.04072377    0.12368691   -0.00682787
     atom   68 type  3   force =     0.06329592   -0.00210117    0.00757546
     atom   69 type  4   force =     0.01270527   -0.01730294   -0.00288579
     atom   70 type  4   force =    -0.00170918    0.00349056   -0.00046392
     atom   71 type  4   force =    -0.00182149    0.00339474    0.00532009
     atom   72 type  4   force =     0.00466227    0.00157360    0.00073008
     atom   73 type  4   force =     0.00872096   -0.01689343    0.01189707
     atom   74 type  4   force =    -0.00439850   -0.00336905    0.00933739
     atom   75 type  4   force =     0.00355022    0.00866008    0.00450453
     atom   76 type  4   force =     0.00591230    0.00079744   -0.00209489
     atom   77 type  4   force =     0.00612330   -0.00179322   -0.00106337
     atom   78 type  4   force =     0.04536750   -0.14095001    0.00575584
     atom   79 type  4   force =     0.00023945    0.00035391   -0.00071692
     atom   80 type  4   force =     0.00149918    0.00187447    0.00217420
     atom   81 type  4   force =     0.06744805    0.00013310    0.00647964
     atom   82 type  4   force =     0.00018761    0.00237977    0.00130422
     atom   83 type  4   force =    -0.03904348    0.13795663   -0.00268376
     atom   84 type  4   force =    -0.00107084   -0.01068185    0.00376581
     atom   85 type  3   force =     0.03948467   -0.12370609    0.02503896
     atom   86 type  3   force =    -0.06327081   -0.00171652   -0.00370777
     atom   87 type  3   force =    -0.04610938    0.12084724   -0.01041227
     atom   88 type  3   force =    -0.00011148   -0.00164027    0.00284410
     atom   89 type  4   force =     0.00859535   -0.01531171   -0.00488615
     atom   90 type  4   force =    -0.00454971    0.00104197   -0.00090028
     atom   91 type  4   force =    -0.00950989    0.00833545    0.00548020
     atom   92 type  4   force =     0.00042237   -0.00002181    0.00000669
     atom   93 type  4   force =     0.00122559   -0.01175714    0.00078326
     atom   94 type  4   force =    -0.00909222   -0.00291664    0.00825753
     atom   95 type  4   force =    -0.00030544    0.00777071    0.00294353
     atom   96 type  4   force =    -0.00087121    0.00069441    0.00011323
     atom   97 type  4   force =    -0.00101393    0.00194541   -0.00013184
     atom   98 type  4   force =     0.04057338   -0.13924495    0.00482373
     atom   99 type  4   force =    -0.06738219   -0.00087392   -0.00600316
     atom  100 type  4   force =    -0.00049182    0.00279028    0.00290645
     atom  101 type  4   force =    -0.00119701    0.00010297    0.00143793
     atom  102 type  4   force =    -0.00688175    0.00544849    0.00154761
     atom  103 type  4   force =    -0.04032924    0.13541694   -0.00427194
     atom  104 type  4   force =    -0.00600786   -0.01005509    0.00505236
     atom  105 type  2   force =    -0.00023825    0.00027354   -0.00007609
     atom  106 type  1   force =     0.00041279   -0.00051831   -0.00045826
     atom  107 type  1   force =     0.00030589   -0.00002566    0.00043956
     atom  108 type  1   force =    -0.00066021   -0.00003586   -0.00052748
     atom  109 type  1   force =     0.00020330   -0.00075243   -0.00031118
     atom  110 type  1   force =    -0.00042829    0.00003646   -0.00042730
     atom  111 type  1   force =     0.00002712   -0.00033702    0.00025327
     atom  112 type  1   force =     0.00005860    0.00037689   -0.00041947
     atom  113 type  1   force =     0.00017410   -0.00045733   -0.00029756
     atom  114 type  1   force =    -0.00017195    0.00001564    0.00009314
     atom  115 type  1   force =     0.00003512    0.00036709   -0.00025376
     atom  116 type  1   force =    -0.00041139    0.00016570   -0.00024324
     atom  117 type  3   force =    -0.00078823   -0.00085499    0.00024596
     atom  118 type  3   force =    -0.00014939   -0.00005604    0.00021677
     atom  119 type  3   force =     0.00000066    0.00007347   -0.00056434
     atom  120 type  3   force =     0.00008945   -0.00014477   -0.00008848
     atom  121 type  4   force =     0.00043925    0.00026983    0.00075352
     atom  122 type  4   force =    -0.00020733    0.00020768    0.00013799
     atom  123 type  4   force =     0.00008144   -0.00013098   -0.00015510
     atom  124 type  4   force =     0.00042046   -0.00042610    0.00006734
     atom  125 type  4   force =     0.00058761    0.00042759   -0.00050928
     atom  126 type  4   force =    -0.00012780   -0.00015732   -0.00017494
     atom  127 type  4   force =     0.00050433   -0.00028153   -0.00001511
     atom  128 type  4   force =    -0.00001020    0.00043431   -0.00003819
     atom  129 type  4   force =     0.00037344   -0.00016194    0.00025750
     atom  130 type  4   force =    -0.00015338   -0.00011860    0.00024778
     atom  131 type  4   force =    -0.00077497   -0.00034738   -0.00001675
     atom  132 type  4   force =     0.00010005   -0.00009939   -0.00026320
     atom  133 type  4   force =    -0.00003326    0.00020591   -0.00022807
     atom  134 type  4   force =     0.00002296    0.00021539   -0.00030640
     atom  135 type  4   force =     0.00040751    0.00078000   -0.00035785
     atom  136 type  4   force =    -0.00031609   -0.00002803   -0.00008230
     atom  137 type  3   force =    -0.00052597    0.00005509    0.00018061
     atom  138 type  3   force =     0.00012833    0.00001620    0.00003334
     atom  139 type  3   force =    -0.00019554   -0.00032483    0.00009259
     atom  140 type  3   force =     0.00054340   -0.00045626    0.00087309
     atom  141 type  4   force =     0.00011253   -0.00015504    0.00013278
     atom  142 type  4   force =     0.00013273   -0.00004862    0.00011134
     atom  143 type  4   force =    -0.00009604   -0.00010014   -0.00023454
     atom  144 type  4   force =    -0.00035329   -0.00058684   -0.00071772
     atom  145 type  4   force =    -0.00013878   -0.00022401   -0.00059315
     atom  146 type  4   force =    -0.00021896    0.00010848   -0.00006517
     atom  147 type  4   force =     0.00024020   -0.00016265    0.00003733
     atom  148 type  4   force =    -0.00068694   -0.00016396   -0.00047510
     atom  149 type  4   force =    -0.00005987    0.00038411   -0.00005967
     atom  150 type  4   force =    -0.00017297   -0.00019386   -0.00017592
     atom  151 type  4   force =    -0.00020162   -0.00000966    0.00035438
     atom  152 type  4   force =    -0.00003868   -0.00035034   -0.00016886
     atom  153 type  4   force =    -0.00013647    0.00023805   -0.00000527
     atom  154 type  4   force =     0.00009304    0.00023767    0.00001983
     atom  155 type  4   force =    -0.00003384   -0.00002339    0.00005942
     atom  156 type  4   force =     0.00009298    0.00019871   -0.00002816
     atom  157 type  4   force =    -0.01083427   -0.00682679   -0.00298806
     atom  158 type  5   force =     0.01079672    0.00712263    0.00358878

     Total force =     0.665189     Total SCF correction =     0.003910
 
     init_run     :      7.39s CPU      8.10s WALL (       1 calls)
     electrons    :    734.52s CPU    771.39s WALL (       1 calls)
     forces       :      3.49s CPU      3.89s WALL (       1 calls)
     force_london :      0.09s CPU      0.09s WALL (       1 calls)

     Called by init_run:
     wfcinit      :      4.38s CPU      4.57s WALL (       1 calls)
     potinit      :      0.56s CPU      0.74s WALL (       1 calls)
     hinit0       :      1.25s CPU      1.37s WALL (       1 calls)

     Called by electrons:
     c_bands      :    588.30s CPU    607.98s WALL (      55 calls)
     sum_band     :     92.31s CPU    100.83s WALL (      55 calls)
     v_of_rho     :     11.68s CPU     12.92s WALL (      56 calls)
     newd         :     27.19s CPU     33.76s WALL (      56 calls)
     mix_rho      :     14.83s CPU     14.91s WALL (      55 calls)
     energy_londo :      0.09s CPU      0.09s WALL (       1 calls)

     Called by c_bands:
     init_us_2    :      1.65s CPU      1.70s WALL (     224 calls)
     init_us_2:cp :      1.65s CPU      1.70s WALL (     224 calls)
     regterg      :    576.38s CPU    595.89s WALL (     113 calls)

     Called by *egterg:
     rdiaghg      :    174.22s CPU    183.80s WALL (     528 calls)
     h_psi        :    218.08s CPU    222.81s WALL (     530 calls)
     s_psi        :     41.37s CPU     41.39s WALL (     530 calls)
     g_psi        :      0.28s CPU      0.29s WALL (     415 calls)

     Called by h_psi:
     h_psi:calbec :     56.37s CPU     60.15s WALL (     530 calls)
     vloc_psi     :    119.07s CPU    119.57s WALL (     530 calls)
     add_vuspsi   :     42.09s CPU     42.54s WALL (     530 calls)

     General routines
     calbec       :     82.80s CPU     88.38s WALL (     648 calls)
     fft          :     14.23s CPU     15.73s WALL (    1021 calls)
     ffts         :      8.68s CPU      8.71s WALL (    6809 calls)
     fftw         :    135.03s CPU    135.56s WALL (  189942 calls)
     interpolate  :      0.93s CPU      0.99s WALL (     112 calls)
 
     Parallel routines
 
     PWSCF        :  12m27.44s CPU  13m 5.72s WALL

 
   This run was terminated on:  21:17:23  19Nov2025            

=------------------------------------------------------------------------------=
   JOB DONE.
=------------------------------------------------------------------------------=
