
     Program PWSCF v.7.2 starts on 19Nov2025 at 20:16:12 

     This program is part of the open-source Quantum ESPRESSO suite
     for quantum simulation of materials; please cite
         "P. Giannozzi et al., J. Phys.:Condens. Matter 21 395502 (2009);
         "P. Giannozzi et al., J. Phys.:Condens. Matter 29 465901 (2017);
         "P. Giannozzi et al., J. Chem. Phys. 152 154105 (2020);
          URL http://www.quantum-espresso.org", 
     in publications or presentations arising from this work. More details at
     http://www.quantum-espresso.org/quote

     Parallel version (MPI), running on    64 processors

     MPI processes distributed on     4 nodes
     421847 MiB available memory on the printing compute node when the environment starts
 
     Reading input from PWINPUT_atm157_zp

     Current dimensions of program PWSCF are:
     Max number of different atomic species (ntypx) = 10
     Max number of k-points (npk) =  40000
     Max angular momentum in pseudopotentials (lmaxx) =  4
     Presently no symmetry can be used with electric field

     file Ni.pbe-n-rrkjus_psl.1.0.0.UPF: wavefunction(s)  3D renormalized
     file Mn.pbe-spn-rrkjus_psl.0.3.1.UPF: wavefunction(s)  3D renormalized
     file O.pbe-rrkjus.UPF: wavefunction(s)  2S renormalized
     file H.pbe-rrkjus.UPF: wavefunction(s)  1S renormalized

     gamma-point specific algorithms are used
 
     R & G space division:  proc/nbgrp/npool/nimage =      64
     Subspace diagonalization in iterative solution of the eigenvalue problem:
     one sub-group per band group will be used
     custom distributed-memory algorithm (size of sub-group:  6*  6 procs)

 
     Parallelization info
     --------------------
     sticks:   dense  smooth     PW     G-vecs:    dense   smooth      PW
     Min         208      82     20                59912    15118    1876
     Max         210      84     22                59974    15196    1926
     Sum       13399    5355   1345              3836275   970529  121367
 
     Using Slab Decomposition
 


     bravais-lattice index     =            0
     lattice parameter (alat)  =      17.7004  a.u.
     unit-cell volume          =   20319.7251 (a.u.)^3
     number of atoms/cell      =          158
     number of atomic types    =            5
     number of electrons       =      1078.00
     number of Kohn-Sham states=          647
     kinetic-energy cutoff     =      50.0000  Ry
     charge density cutoff     =     500.0000  Ry
     scf convergence threshold =      1.0E-06
     mixing beta               =       0.1000
     number of iterations used =            8  local-TF  mixing
     Exchange-correlation=  SLA  PW   PBE  PBE
                           (   1   4   3   4   0   0   0)

     celldm(1)=  17.700384  celldm(2)=   0.000000  celldm(3)=   0.000000
     celldm(4)=   0.000000  celldm(5)=   0.000000  celldm(6)=   0.000000

     crystal axes: (cart. coord. in units of alat)
               a(1) = (   1.000000   0.000000   0.000000 )  
               a(2) = (   0.000000   1.075730   0.000000 )  
               a(3) = (   0.000000   0.000000   3.406172 )  

     reciprocal axes: (cart. coord. in units 2 pi/alat)
               b(1) = (  1.000000  0.000000  0.000000 )  
               b(2) = (  0.000000  0.929602  0.000000 )  
               b(3) = (  0.000000  0.000000  0.293585 )  


     PseudoPot. # 1 for Ni read from file:
     ~/PSEUDO/Ni.pbe-n-rrkjus_psl.1.0.0.UPF
     MD5 check sum: Not computed, couldn't open file
     Pseudo is Ultrasoft + core correction, Zval = 10.0
     Generated using "atomic" code by A. Dal Corso  v.5.1.2
     Using radial grid of 1195 points,  6 beta functions with: 
                l(1) =   0
                l(2) =   0
                l(3) =   1
                l(4) =   1
                l(5) =   2
                l(6) =   2
     Q(r) pseudized with 0 coefficients 


     PseudoPot. # 2 for Mn read from file:
     ~/PSEUDO/Mn.pbe-spn-rrkjus_psl.0.3.1.UPF
     MD5 check sum: Not computed, couldn't open file
     Pseudo is Ultrasoft + core correction, Zval = 15.0
     Generated using &quot;atomic&quot; code by A. Dal Corso  v.6.2.2
     Using radial grid of 1187 points,  6 beta functions with: 
                l(1) =   0
                l(2) =   0
                l(3) =   1
                l(4) =   1
                l(5) =   2
                l(6) =   2
     Q(r) pseudized with 0 coefficients 


     PseudoPot. # 3 for P  read from file:
     ~/PSEUDO/P.pbe-n-rrkjus_psl.1.0.0.UPF
     MD5 check sum: Not computed, couldn't open file
     Pseudo is Ultrasoft + core correction, Zval =  5.0
     Generated using "atomic" code by A. Dal Corso  v.5.1
     Using radial grid of 1147 points,  6 beta functions with: 
                l(1) =   0
                l(2) =   0
                l(3) =   1
                l(4) =   1
                l(5) =   2
                l(6) =   2
     Q(r) pseudized with 0 coefficients 


     PseudoPot. # 4 for O  read from file:
     ~/PSEUDO/O.pbe-rrkjus.UPF
     MD5 check sum: Not computed, couldn't open file
     Pseudo is Ultrasoft, Zval =  6.0
     Generated by new atomic code, or converted to UPF format
     Using radial grid of 1269 points,  4 beta functions with: 
                l(1) =   0
                l(2) =   0
                l(3) =   1
                l(4) =   1
     Q(r) pseudized with 0 coefficients 


     PseudoPot. # 5 for H  read from file:
     ~/PSEUDO/H.pbe-rrkjus.UPF
     MD5 check sum: Not computed, couldn't open file
     Pseudo is Ultrasoft, Zval =  1.0
     Generated by new atomic code, or converted to UPF format
     Using radial grid of 1061 points,  2 beta functions with: 
                l(1) =   0
                l(2) =   0
     Q(r) pseudized with 0 coefficients 


     atomic species   valence    mass     pseudopotential
     Ni               10.00    58.69300     Ni( 1.00)
     Mn               15.00    54.93800     Mn( 1.00)
     P                 5.00    30.97300     P ( 1.00)
     O                 6.00    15.99900     O ( 1.00)
     H                 1.00     1.00790     H ( 1.00)

     Starting magnetic structure 
     atomic species   magnetization
     Ni              1.000
     Mn              1.000
     P               1.000
     O               1.000
     H               0.000

     No symmetry found



   Cartesian axes

     site n.     atom                  positions (alat units)
         1        Mn     tau(   1) = (   0.2404744   0.8371250   0.1168501  )
         2        Ni     tau(   2) = (   0.4968126   0.7726670   0.4415546  )
         3        Ni     tau(   3) = (   0.0066150   0.2936743   0.1241053  )
         4        Ni     tau(   4) = (   0.2585722   0.2355858   0.4448848  )
         5        Ni     tau(   5) = (   0.9987350   1.0696411   0.2854926  )
         6        Ni     tau(   6) = (   0.2517397   0.5330511   0.2829322  )
         7        Ni     tau(   7) = (   0.7451645   0.8337543   0.1221751  )
         8        Ni     tau(   8) = (   0.9939181   0.7738804   0.4407595  )
         9        Ni     tau(   9) = (   0.5111533   0.2924088   0.1251865  )
        10        Ni     tau(  10) = (   0.7606326   0.2319267   0.4451372  )
        11        Ni     tau(  11) = (   0.5024065   1.0688133   0.2870502  )
        12        Ni     tau(  12) = (   0.7529977   0.5317900   0.2845227  )
        13        P      tau(  13) = (   0.2092944   0.9731097   0.4345035  )
        14        P      tau(  14) = (   0.4655727   0.6359535   0.1274635  )
        15        P      tau(  15) = (   0.2910699   0.1027363   0.1296098  )
        16        P      tau(  16) = (   0.0396216   0.4288395   0.4398838  )
        17        O      tau(  17) = (   0.1294378   0.9013260   0.3010618  )
        18        O      tau(  18) = (   0.3874505   0.7054774   0.2637003  )
        19        O      tau(  19) = (   0.3702540   0.1714799   0.2660028  )
        20        O      tau(  20) = (   0.1184398   0.3582958   0.3038353  )
        21        O      tau(  21) = (   0.1451572   0.8850881   0.5587578  )
        22        O      tau(  22) = (   0.4048762   0.7245585   0.0017492  )
        23        O      tau(  23) = (   0.3523506   0.1900579   0.0035744  )
        24        O      tau(  24) = (   0.1017610   0.3410484   0.5656572  )
        25        O      tau(  25) = (   0.0975396   0.5849288   0.4357922  )
        26        O      tau(  26) = (   0.3483552   1.0314945   0.1270322  )
        27        O      tau(  27) = (   0.3784305   0.4225118   0.4308928  )
        28        O      tau(  28) = (   0.1268237   0.1067944   0.1392744  )
        29        O      tau(  29) = (   0.1212267   0.6424170   0.1362896  )
        30        O      tau(  30) = (   0.4053315   0.4809387   0.1300622  )
        31        O      tau(  31) = (   0.1536621   0.0446918   0.4373386  )
        32        O      tau(  32) = (   0.3732349   0.9631717   0.4256642  )
        33        P      tau(  33) = (   0.7119823   0.9695974   0.4373010  )
        34        P      tau(  34) = (   0.9615208   0.6363392   0.1262932  )
        35        P      tau(  35) = (   0.7927710   0.0970060   0.1292164  )
        36        P      tau(  36) = (   0.5426404   0.4269675   0.4410738  )
        37        O      tau(  37) = (   0.6326879   0.8991182   0.3013240  )
        38        O      tau(  38) = (   0.8842163   0.7083206   0.2625155  )
        39        O      tau(  39) = (   0.8716178   0.1677751   0.2653504  )
        40        O      tau(  40) = (   0.6212010   0.3558666   0.3051085  )
        41        O      tau(  41) = (   0.6507714   0.8812342   0.5631722  )
        42        O      tau(  42) = (   0.9014054   0.7264458   0.0010676  )
        43        O      tau(  43) = (   0.8548963   0.1847909   0.0035471  )
        44        O      tau(  44) = (   0.6044469   0.3378706   0.5660366  )
        45        O      tau(  45) = (   0.6024424   0.5823140   0.4379016  )
        46        O      tau(  46) = (   0.8498940   1.0254482   0.1275156  )
        47        O      tau(  47) = (   0.8798395   0.4205825   0.4305771  )
        48        O      tau(  48) = (   0.6286921   0.1034636   0.1397346  )
        49        O      tau(  49) = (   0.6294973   0.6427753   0.1372553  )
        50        O      tau(  50) = (   0.9024339   0.4810312   0.1296418  )
        51        O      tau(  51) = (   0.6547812   0.0410987   0.4396636  )
        52        O      tau(  52) = (   0.8760507   0.9632605   0.4264507  )
        53        Mn     tau(  53) = (   0.2404744   0.8246335   0.7367378  )
        54        Ni     tau(  54) = (   0.4968126   0.7601755   1.0614423  )
        55        Ni     tau(  55) = (   0.0066150   0.2811828   0.7439929  )
        56        Ni     tau(  56) = (   0.2585722   0.2230943   1.0647725  )
        57        Ni     tau(  57) = (   0.9987350   1.0571496   0.9053803  )
        58        Ni     tau(  58) = (   0.2517397   0.5205596   0.9028199  )
        59        Ni     tau(  59) = (   0.7451645   0.8212628   0.7420628  )
        60        Ni     tau(  60) = (   0.9939181   0.7613889   1.0606471  )
        61        Ni     tau(  61) = (   0.5111533   0.2799173   0.7450742  )
        62        Ni     tau(  62) = (   0.7606326   0.2194352   1.0650249  )
        63        Ni     tau(  63) = (   0.5024065   1.0563218   0.9069379  )
        64        Ni     tau(  64) = (   0.7529977   0.5192985   0.9044104  )
        65        P      tau(  65) = (   0.2092944   0.9606182   1.0543912  )
        66        P      tau(  66) = (   0.4655727   0.6234620   0.7473512  )
        67        P      tau(  67) = (   0.2910699   0.0902448   0.7494974  )
        68        P      tau(  68) = (   0.0396216   0.4163480   1.0597715  )
        69        O      tau(  69) = (   0.1294378   0.8888345   0.9209495  )
        70        O      tau(  70) = (   0.3874505   0.6929859   0.8835880  )
        71        O      tau(  71) = (   0.3702540   0.1589885   0.8858904  )
        72        O      tau(  72) = (   0.1184398   0.3458043   0.9237230  )
        73        O      tau(  73) = (   0.1451572   0.8725966   1.1786454  )
        74        O      tau(  74) = (   0.4048762   0.7120670   0.6216369  )
        75        O      tau(  75) = (   0.3523506   0.1775664   0.6234620  )
        76        O      tau(  76) = (   0.1017610   0.3285569   1.1855448  )
        77        O      tau(  77) = (   0.0975396   0.5724373   1.0556799  )
        78        O      tau(  78) = (   0.3483552   1.0190030   0.7469198  )
        79        O      tau(  79) = (   0.3784305   0.4100203   1.0507804  )
        80        O      tau(  80) = (   0.1268237   0.0943029   0.7591620  )
        81        O      tau(  81) = (   0.1212267   0.6299255   0.7561772  )
        82        O      tau(  82) = (   0.4053315   0.4684472   0.7499499  )
        83        O      tau(  83) = (   0.1536621   0.0322003   1.0572263  )
        84        O      tau(  84) = (   0.3732349   0.9506802   1.0455518  )
        85        P      tau(  85) = (   0.7119823   0.9571059   1.0571887  )
        86        P      tau(  86) = (   0.9615208   0.6238477   0.7461808  )
        87        P      tau(  87) = (   0.7927710   0.0845145   0.7491041  )
        88        P      tau(  88) = (   0.5426404   0.4144760   1.0609615  )
        89        O      tau(  89) = (   0.6326879   0.8866267   0.9212117  )
        90        O      tau(  90) = (   0.8842163   0.6958291   0.8824032  )
        91        O      tau(  91) = (   0.8716178   0.1552836   0.8852381  )
        92        O      tau(  92) = (   0.6212010   0.3433751   0.9249961  )
        93        O      tau(  93) = (   0.6507714   0.8687427   1.1830599  )
        94        O      tau(  94) = (   0.9014054   0.7139543   0.6209553  )
        95        O      tau(  95) = (   0.8548963   0.1722994   0.6234348  )
        96        O      tau(  96) = (   0.6044469   0.3253792   1.1859242  )
        97        O      tau(  97) = (   0.6024424   0.5698225   1.0577892  )
        98        O      tau(  98) = (   0.8498940   1.0129567   0.7474033  )
        99        O      tau(  99) = (   0.8798395   0.4080910   1.0504647  )
       100        O      tau( 100) = (   0.6286921   0.0909721   0.7596222  )
       101        O      tau( 101) = (   0.6294973   0.6302838   0.7571429  )
       102        O      tau( 102) = (   0.9024339   0.4685397   0.7495295  )
       103        O      tau( 103) = (   0.6547812   0.0286072   1.0595512  )
       104        O      tau( 104) = (   0.8760507   0.9507690   1.0463383  )
       105        Mn     tau( 105) = (   0.2366231   0.8099108   1.3652025  )
       106        Ni     tau( 106) = (   0.5054159   0.7462824   1.6760027  )
       107        Ni     tau( 107) = (   0.0089171   0.2673656   1.3686123  )
       108        Ni     tau( 108) = (   0.2644416   0.1993195   1.7084151  )
       109        Ni     tau( 109) = (   1.0061379   1.0432337   1.5350349  )
       110        Ni     tau( 110) = (   0.2518568   0.5022264   1.5321875  )
       111        Ni     tau( 111) = (   0.7428918   0.8054563   1.3680737  )
       112        Ni     tau( 112) = (   1.0041850   0.7431092   1.6780598  )
       113        Ni     tau( 113) = (   0.5112288   0.2659826   1.3709479  )
       114        Ni     tau( 114) = (   0.7532805   0.2088052   1.6753652  )
       115        Ni     tau( 115) = (   0.5047699   1.0448721   1.5373338  )
       116        Ni     tau( 116) = (   0.7503649   0.5053471   1.5308247  )
       117        P      tau( 117) = (   0.2161577   0.9302828   1.6982302  )
       118        P      tau( 118) = (   0.4629997   0.6076656   1.3708803  )
       119        P      tau( 119) = (   0.2923548   0.0759931   1.3761085  )
       120        P      tau( 120) = (   0.0403728   0.3936694   1.6855939  )
       121        O      tau( 121) = (   0.1364693   0.8668413   1.5531897  )
       122        O      tau( 122) = (   0.3862188   0.6762237   1.5077855  )
       123        O      tau( 123) = (   0.3702313   0.1459453   1.5113118  )
       124        O      tau( 124) = (   0.1164972   0.3354481   1.5416341  )
       125        O      tau( 125) = (   0.1561077   0.8312184   1.8121815  )
       126        O      tau( 126) = (   0.4024345   0.6977036   1.2456547  )
       127        O      tau( 127) = (   0.3529885   0.1608260   1.2478482  )
       128        O      tau( 128) = (   0.0988259   0.2967762   1.8028337  )
       129        O      tau( 129) = (   0.0955223   0.5521437   1.6882589  )
       130        O      tau( 130) = (   0.3501042   0.9948817   1.3794940  )
       131        O      tau( 131) = (   0.3769862   0.3955830   1.6820705  )
       132        O      tau( 132) = (   0.1282711   0.0787148   1.3850164  )
       133        O      tau( 133) = (   0.1228222   0.6171400   1.3807433  )
       134        O      tau( 134) = (   0.4031340   0.4526637   1.3730383  )
       135        O      tau( 135) = (   0.1564153   0.0102487   1.6911737  )
       136        O      tau( 136) = (   0.3803451   0.9249762   1.6777280  )
       137        P      tau( 137) = (   0.7174345   0.9334429   1.6935398  )
       138        P      tau( 138) = (   0.9584537   0.6093492   1.3691178  )
       139        P      tau( 139) = (   0.7939811   0.0700328   1.3725244  )
       140        P      tau( 140) = (   0.5416921   0.3997600   1.6930504  )
       141        O      tau( 141) = (   0.6378837   0.8729788   1.5477586  )
       142        O      tau( 142) = (   0.8828523   0.6807110   1.5061576  )
       143        O      tau( 143) = (   0.8725292   0.1417236   1.5079952  )
       144        O      tau( 144) = (   0.6175250   0.3342570   1.5484665  )
       145        O      tau( 145) = (   0.6556870   0.8369021   1.8084207  )
       146        O      tau( 146) = (   0.8987137   0.6988347   1.2434250  )
       147        O      tau( 147) = (   0.8547435   0.1573124   1.2458538  )
       148        O      tau( 148) = (   0.6058869   0.3057682   1.8100154  )
       149        O      tau( 149) = (   0.5996895   0.5564472   1.6887454  )
       150        O      tau( 150) = (   0.8537678   0.9909218   1.3764211  )
       151        O      tau( 151) = (   0.8747176   0.3908074   1.6749590  )
       152        O      tau( 152) = (   0.6300578   0.0775778   1.3854873  )
       153        O      tau( 153) = (   0.6270029   0.6154737   1.3814513  )
       154        O      tau( 154) = (   0.8992703   0.4545543   1.3717766  )
       155        O      tau( 155) = (   0.6630869   0.0162628   1.6912339  )
       156        O      tau( 156) = (   0.8822397   0.9273982   1.6791779  )
       157        O      tau( 157) = (   0.3793940   0.1173447   1.8424508  )
       158        H      tau( 158) = (   0.4636452   0.1772953   1.8643216  )

     -------------------------------------------------
     Parameters for Dispersion (Grimme-D2) Correction:
     -------------------------------------------------
       atom      VdW radius       C_6     

        Ni         2.952        374.666
        Mn         2.952        374.666
        P          3.222        271.980
        O          2.536         24.284
        H          1.892          4.857

     number of k points=     1  Gaussian smearing, width (Ry)=  0.0100
                       cart. coord. in units 2pi/alat
        k(    1) = (   0.0000000   0.0000000   0.0000000), wk =   1.0000000

     Dense  grid:  1918138 G-vectors     FFT dimensions: ( 125, 135, 432)

     Smooth grid:   485265 G-vectors     FFT dimensions: (  80,  90, 288)

     Estimated max dynamical RAM per process >     320.12 MB

     Estimated total dynamical RAM >      20.01 GB
     Generating pointlists ...
     new r_m :   0.0803 (alat units)  1.4214 (a.u.) for type    1
     new r_m :   0.0869 (alat units)  1.5388 (a.u.) for type    2
     new r_m :   0.0650 (alat units)  1.1499 (a.u.) for type    3
     new r_m :   0.0436 (alat units)  0.7717 (a.u.) for type    4
     new r_m :   0.0436 (alat units)  0.7717 (a.u.) for type    5

     Initial potential from superposition of free atoms

     starting charge    1077.8900, renormalised to    1078.0000

     negative rho (up, down):  1.237E-03 4.538E-04
 
     Adding external electric field

     Computed dipole along edir(3) : 
        Dipole                1.6236 Ry au,          4.1268 Debye
        Dipole field          0.0010 Ry au, 
 
        Potential amp.       -0.1090 Ry
        Total length         54.2615 bohr
 
 
     Adding external electric field

     Computed dipole along edir(3) : 
        Dipole                1.6236 Ry au,          4.1268 Debye
        Dipole field          0.0010 Ry au, 
 
        Potential amp.       -0.1090 Ry
        Total length         54.2615 bohr
 
     Starting wfcs are  812 randomized atomic wfcs

     total cpu time spent up to now is       10.6 secs

     Self-consistent Calculation

     iteration #  1     ecut=    50.00 Ry     beta= 0.10
     Davidson diagonalization with overlap
     ethr =  1.00E-02,  avg # of iterations =  6.0

     negative rho (up, down):  3.276E-01 7.682E-07
 
     Adding external electric field

     Computed dipole along edir(3) : 
        Dipole               -3.5872 Ry au,         -9.1179 Debye
        Dipole field         -0.0022 Ry au, 
 
        Potential amp.        0.2408 Ry
        Total length         54.2615 bohr
 
 
     Adding external electric field

     Computed dipole along edir(3) : 
        Dipole               -3.5872 Ry au,         -9.1179 Debye
        Dipole field         -0.0022 Ry au, 
 
        Potential amp.        0.2408 Ry
        Total length         54.2615 bohr
 

     total cpu time spent up to now is       38.9 secs

     total energy              =   -7177.90732634 Ry
     estimated scf accuracy    <     755.81138082 Ry

     total magnetization       =   216.00 Bohr mag/cell
     absolute magnetization    =   296.76 Bohr mag/cell

     iteration #  2     ecut=    50.00 Ry     beta= 0.10
     Davidson diagonalization with overlap
     ethr =  1.00E-02,  avg # of iterations =  2.0

     negative rho (up, down):  3.131E-01 4.430E-07
 
     Adding external electric field

     Computed dipole along edir(3) : 
        Dipole               -2.3342 Ry au,         -5.9329 Debye
        Dipole field         -0.0014 Ry au, 
 
        Potential amp.        0.1567 Ry
        Total length         54.2615 bohr
 
 
     Adding external electric field

     Computed dipole along edir(3) : 
        Dipole               -2.3342 Ry au,         -5.9329 Debye
        Dipole field         -0.0014 Ry au, 
 
        Potential amp.        0.1567 Ry
        Total length         54.2615 bohr
 

     total cpu time spent up to now is       55.0 secs

     total energy              =   -7261.66670531 Ry
     estimated scf accuracy    <     218.91621416 Ry

     total magnetization       =   151.95 Bohr mag/cell
     absolute magnetization    =   201.24 Bohr mag/cell

     iteration #  3     ecut=    50.00 Ry     beta= 0.10
     Davidson diagonalization with overlap
     ethr =  1.00E-02,  avg # of iterations =  1.5

     negative rho (up, down):  2.773E-01 4.539E-07
 
     Adding external electric field

     Computed dipole along edir(3) : 
        Dipole               -2.0449 Ry au,         -5.1977 Debye
        Dipole field         -0.0013 Ry au, 
 
        Potential amp.        0.1372 Ry
        Total length         54.2615 bohr
 
 
     Adding external electric field

     Computed dipole along edir(3) : 
        Dipole               -2.0449 Ry au,         -5.1977 Debye
        Dipole field         -0.0013 Ry au, 
 
        Potential amp.        0.1372 Ry
        Total length         54.2615 bohr
 

     total cpu time spent up to now is       67.8 secs

     total energy              =   -7291.19521019 Ry
     estimated scf accuracy    <      97.25260438 Ry

     total magnetization       =   126.68 Bohr mag/cell
     absolute magnetization    =   180.10 Bohr mag/cell

     iteration #  4     ecut=    50.00 Ry     beta= 0.10
     Davidson diagonalization with overlap
     ethr =  9.02E-03,  avg # of iterations =  1.5

     negative rho (up, down):  2.078E-01 1.159E-07
 
     Adding external electric field

     Computed dipole along edir(3) : 
        Dipole               -1.9284 Ry au,         -4.9014 Debye
        Dipole field         -0.0012 Ry au, 
 
        Potential amp.        0.1294 Ry
        Total length         54.2615 bohr
 
 
     Adding external electric field

     Computed dipole along edir(3) : 
        Dipole               -1.9284 Ry au,         -4.9014 Debye
        Dipole field         -0.0012 Ry au, 
 
        Potential amp.        0.1294 Ry
        Total length         54.2615 bohr
 

     total cpu time spent up to now is       82.7 secs

     total energy              =   -7326.09830280 Ry
     estimated scf accuracy    <      79.15402178 Ry

     total magnetization       =   111.75 Bohr mag/cell
     absolute magnetization    =   165.94 Bohr mag/cell

     iteration #  5     ecut=    50.00 Ry     beta= 0.10
     Davidson diagonalization with overlap
     ethr =  7.34E-03,  avg # of iterations =  1.5

     negative rho (up, down):  1.313E-02 2.318E-06
 
     Adding external electric field

     Computed dipole along edir(3) : 
        Dipole               -1.5050 Ry au,         -3.8255 Debye
        Dipole field         -0.0009 Ry au, 
 
        Potential amp.        0.1010 Ry
        Total length         54.2615 bohr
 
 
     Adding external electric field

     Computed dipole along edir(3) : 
        Dipole               -1.5050 Ry au,         -3.8255 Debye
        Dipole field         -0.0009 Ry au, 
 
        Potential amp.        0.1010 Ry
        Total length         54.2615 bohr
 

     total cpu time spent up to now is       95.3 secs

     total energy              =   -7385.03488992 Ry
     estimated scf accuracy    <      61.55678797 Ry

     total magnetization       =    88.04 Bohr mag/cell
     absolute magnetization    =   146.30 Bohr mag/cell

     iteration #  6     ecut=    50.00 Ry     beta= 0.10
     Davidson diagonalization with overlap
     ethr =  5.71E-03,  avg # of iterations =  1.5

     negative rho (up, down):  7.120E-04 9.718E-04
 
     Adding external electric field

     Computed dipole along edir(3) : 
        Dipole               -1.1988 Ry au,         -3.0471 Debye
        Dipole field         -0.0007 Ry au, 
 
        Potential amp.        0.0805 Ry
        Total length         54.2615 bohr
 
 
     Adding external electric field

     Computed dipole along edir(3) : 
        Dipole               -1.1988 Ry au,         -3.0471 Debye
        Dipole field         -0.0007 Ry au, 
 
        Potential amp.        0.0805 Ry
        Total length         54.2615 bohr
 

     total cpu time spent up to now is      108.1 secs

     total energy              =   -7395.35536430 Ry
     estimated scf accuracy    <      10.59204271 Ry

     total magnetization       =    82.00 Bohr mag/cell
     absolute magnetization    =   116.52 Bohr mag/cell

     iteration #  7     ecut=    50.00 Ry     beta= 0.10
     Davidson diagonalization with overlap
     ethr =  9.83E-04,  avg # of iterations =  4.5

     negative rho (up, down):  7.020E-04 9.738E-04
 
     Adding external electric field

     Computed dipole along edir(3) : 
        Dipole               -1.1917 Ry au,         -3.0290 Debye
        Dipole field         -0.0007 Ry au, 
 
        Potential amp.        0.0800 Ry
        Total length         54.2615 bohr
 
 
     Adding external electric field

     Computed dipole along edir(3) : 
        Dipole               -1.1917 Ry au,         -3.0290 Debye
        Dipole field         -0.0007 Ry au, 
 
        Potential amp.        0.0800 Ry
        Total length         54.2615 bohr
 

     total cpu time spent up to now is      127.2 secs

     total energy              =   -7397.64266007 Ry
     estimated scf accuracy    <      11.67679103 Ry

     total magnetization       =    70.94 Bohr mag/cell
     absolute magnetization    =    88.25 Bohr mag/cell

     iteration #  8     ecut=    50.00 Ry     beta= 0.10
     Davidson diagonalization with overlap
     ethr =  9.83E-04,  avg # of iterations =  1.0

     negative rho (up, down):  7.008E-04 9.636E-04
 
     Adding external electric field

     Computed dipole along edir(3) : 
        Dipole               -1.1824 Ry au,         -3.0053 Debye
        Dipole field         -0.0007 Ry au, 
 
        Potential amp.        0.0794 Ry
        Total length         54.2615 bohr
 
 
     Adding external electric field

     Computed dipole along edir(3) : 
        Dipole               -1.1824 Ry au,         -3.0053 Debye
        Dipole field         -0.0007 Ry au, 
 
        Potential amp.        0.0794 Ry
        Total length         54.2615 bohr
 

     total cpu time spent up to now is      139.6 secs

     total energy              =   -7397.66161650 Ry
     estimated scf accuracy    <      11.07963001 Ry

     total magnetization       =    71.24 Bohr mag/cell
     absolute magnetization    =    88.18 Bohr mag/cell

     iteration #  9     ecut=    50.00 Ry     beta= 0.10
     Davidson diagonalization with overlap
     ethr =  9.83E-04,  avg # of iterations =  1.0

     negative rho (up, down):  6.864E-04 9.624E-04
 
     Adding external electric field

     Computed dipole along edir(3) : 
        Dipole               -1.1608 Ry au,         -2.9504 Debye
        Dipole field         -0.0007 Ry au, 
 
        Potential amp.        0.0779 Ry
        Total length         54.2615 bohr
 
 
     Adding external electric field

     Computed dipole along edir(3) : 
        Dipole               -1.1608 Ry au,         -2.9504 Debye
        Dipole field         -0.0007 Ry au, 
 
        Potential amp.        0.0779 Ry
        Total length         54.2615 bohr
 

     total cpu time spent up to now is      151.6 secs

     total energy              =   -7397.67529842 Ry
     estimated scf accuracy    <      10.81876746 Ry

     total magnetization       =    71.37 Bohr mag/cell
     absolute magnetization    =    88.02 Bohr mag/cell

     iteration # 10     ecut=    50.00 Ry     beta= 0.10
     Davidson diagonalization with overlap
     ethr =  9.83E-04,  avg # of iterations =  1.0

     negative rho (up, down):  9.773E-04 1.656E-03
 
     Adding external electric field

     Computed dipole along edir(3) : 
        Dipole               -0.7413 Ry au,         -1.8843 Debye
        Dipole field         -0.0005 Ry au, 
 
        Potential amp.        0.0498 Ry
        Total length         54.2615 bohr
 
 
     Adding external electric field

     Computed dipole along edir(3) : 
        Dipole               -0.7413 Ry au,         -1.8843 Debye
        Dipole field         -0.0005 Ry au, 
 
        Potential amp.        0.0498 Ry
        Total length         54.2615 bohr
 

     total cpu time spent up to now is      162.4 secs

     total energy              =   -7397.62564187 Ry
     estimated scf accuracy    <      10.61031754 Ry

     total magnetization       =    71.43 Bohr mag/cell
     absolute magnetization    =    87.73 Bohr mag/cell

     iteration # 11     ecut=    50.00 Ry     beta= 0.10
     Davidson diagonalization with overlap
     ethr =  9.83E-04,  avg # of iterations =  1.5

     negative rho (up, down):  6.204E-04 1.389E-03
 
     Adding external electric field

     Computed dipole along edir(3) : 
        Dipole               -0.8447 Ry au,         -2.1469 Debye
        Dipole field         -0.0005 Ry au, 
 
        Potential amp.        0.0567 Ry
        Total length         54.2615 bohr
 
 
     Adding external electric field

     Computed dipole along edir(3) : 
        Dipole               -0.8447 Ry au,         -2.1469 Debye
        Dipole field         -0.0005 Ry au, 
 
        Potential amp.        0.0567 Ry
        Total length         54.2615 bohr
 

     total cpu time spent up to now is      174.2 secs

     total energy              =   -7397.71445941 Ry
     estimated scf accuracy    <       7.48043996 Ry

     total magnetization       =    73.87 Bohr mag/cell
     absolute magnetization    =    86.09 Bohr mag/cell

     iteration # 12     ecut=    50.00 Ry     beta= 0.10
     Davidson diagonalization with overlap
     ethr =  6.94E-04,  avg # of iterations =  2.0

     negative rho (up, down):  5.758E-04 1.220E-03
 
     Adding external electric field

     Computed dipole along edir(3) : 
        Dipole               -0.8718 Ry au,         -2.2158 Debye
        Dipole field         -0.0005 Ry au, 
 
        Potential amp.        0.0585 Ry
        Total length         54.2615 bohr
 
 
     Adding external electric field

     Computed dipole along edir(3) : 
        Dipole               -0.8718 Ry au,         -2.2158 Debye
        Dipole field         -0.0005 Ry au, 
 
        Potential amp.        0.0585 Ry
        Total length         54.2615 bohr
 

     total cpu time spent up to now is      185.5 secs

     total energy              =   -7397.72556555 Ry
     estimated scf accuracy    <       6.91120641 Ry

     total magnetization       =    72.69 Bohr mag/cell
     absolute magnetization    =    85.03 Bohr mag/cell

     iteration # 13     ecut=    50.00 Ry     beta= 0.10
     Davidson diagonalization with overlap
     ethr =  6.41E-04,  avg # of iterations =  1.0

     negative rho (up, down):  1.787E-03 3.176E-03
 
     Adding external electric field

     Computed dipole along edir(3) : 
        Dipole               -0.7205 Ry au,         -1.8315 Debye
        Dipole field         -0.0004 Ry au, 
 
        Potential amp.        0.0484 Ry
        Total length         54.2615 bohr
 
 
     Adding external electric field

     Computed dipole along edir(3) : 
        Dipole               -0.7205 Ry au,         -1.8315 Debye
        Dipole field         -0.0004 Ry au, 
 
        Potential amp.        0.0484 Ry
        Total length         54.2615 bohr
 

     total cpu time spent up to now is      196.1 secs

     total energy              =   -7397.61275894 Ry
     estimated scf accuracy    <       7.17559237 Ry

     total magnetization       =    72.33 Bohr mag/cell
     absolute magnetization    =    84.92 Bohr mag/cell

     iteration # 14     ecut=    50.00 Ry     beta= 0.10
     Davidson diagonalization with overlap
     ethr =  6.41E-04,  avg # of iterations =  2.0

     negative rho (up, down):  1.222E-03 2.645E-03
 
     Adding external electric field

     Computed dipole along edir(3) : 
        Dipole               -0.8122 Ry au,         -2.0645 Debye
        Dipole field         -0.0005 Ry au, 
 
        Potential amp.        0.0545 Ry
        Total length         54.2615 bohr
 
 
     Adding external electric field

     Computed dipole along edir(3) : 
        Dipole               -0.8122 Ry au,         -2.0645 Debye
        Dipole field         -0.0005 Ry au, 
 
        Potential amp.        0.0545 Ry
        Total length         54.2615 bohr
 

     total cpu time spent up to now is      207.9 secs

     total energy              =   -7397.76798254 Ry
     estimated scf accuracy    <       1.28593219 Ry

     total magnetization       =    79.12 Bohr mag/cell
     absolute magnetization    =    88.14 Bohr mag/cell

     iteration # 15     ecut=    50.00 Ry     beta= 0.10
     Davidson diagonalization with overlap
     ethr =  1.19E-04,  avg # of iterations = 15.0

     negative rho (up, down):  6.239E-04 1.799E-03
 
     Adding external electric field

     Computed dipole along edir(3) : 
        Dipole               -1.0494 Ry au,         -2.6673 Debye
        Dipole field         -0.0006 Ry au, 
 
        Potential amp.        0.0704 Ry
        Total length         54.2615 bohr
 
 
     Adding external electric field

     Computed dipole along edir(3) : 
        Dipole               -1.0494 Ry au,         -2.6673 Debye
        Dipole field         -0.0006 Ry au, 
 
        Potential amp.        0.0704 Ry
        Total length         54.2615 bohr
 

     total cpu time spent up to now is      232.5 secs

     total energy              =   -7397.78611479 Ry
     estimated scf accuracy    <       0.83537562 Ry

     total magnetization       =    79.54 Bohr mag/cell
     absolute magnetization    =    87.53 Bohr mag/cell

     iteration # 16     ecut=    50.00 Ry     beta= 0.10
     Davidson diagonalization with overlap
     ethr =  7.75E-05,  avg # of iterations =  9.5

     negative rho (up, down):  7.047E-04 1.718E-03
 
     Adding external electric field

     Computed dipole along edir(3) : 
        Dipole               -1.0137 Ry au,         -2.5766 Debye
        Dipole field         -0.0006 Ry au, 
 
        Potential amp.        0.0680 Ry
        Total length         54.2615 bohr
 
 
     Adding external electric field

     Computed dipole along edir(3) : 
        Dipole               -1.0137 Ry au,         -2.5766 Debye
        Dipole field         -0.0006 Ry au, 
 
        Potential amp.        0.0680 Ry
        Total length         54.2615 bohr
 

     total cpu time spent up to now is      254.4 secs

     total energy              =   -7397.86018281 Ry
     estimated scf accuracy    <       1.00769796 Ry

     total magnetization       =    79.54 Bohr mag/cell
     absolute magnetization    =    86.24 Bohr mag/cell

     iteration # 17     ecut=    50.00 Ry     beta= 0.10
     Davidson diagonalization with overlap
     ethr =  7.75E-05,  avg # of iterations =  1.0

     negative rho (up, down):  1.386E-03 1.778E-03
 
     Adding external electric field

     Computed dipole along edir(3) : 
        Dipole               -0.9559 Ry au,         -2.4298 Debye
        Dipole field         -0.0006 Ry au, 
 
        Potential amp.        0.0642 Ry
        Total length         54.2615 bohr
 
 
     Adding external electric field

     Computed dipole along edir(3) : 
        Dipole               -0.9559 Ry au,         -2.4298 Debye
        Dipole field         -0.0006 Ry au, 
 
        Potential amp.        0.0642 Ry
        Total length         54.2615 bohr
 

     total cpu time spent up to now is      265.3 secs

     total energy              =   -7397.95365226 Ry
     estimated scf accuracy    <       0.65354251 Ry

     total magnetization       =    79.92 Bohr mag/cell
     absolute magnetization    =    86.29 Bohr mag/cell

     iteration # 18     ecut=    50.00 Ry     beta= 0.10
     Davidson diagonalization with overlap
     ethr =  6.06E-05,  avg # of iterations =  1.0

     negative rho (up, down):  2.882E-03 2.718E-03
 
     Adding external electric field

     Computed dipole along edir(3) : 
        Dipole               -0.9913 Ry au,         -2.5196 Debye
        Dipole field         -0.0006 Ry au, 
 
        Potential amp.        0.0665 Ry
        Total length         54.2615 bohr
 
 
     Adding external electric field

     Computed dipole along edir(3) : 
        Dipole               -0.9913 Ry au,         -2.5196 Debye
        Dipole field         -0.0006 Ry au, 
 
        Potential amp.        0.0665 Ry
        Total length         54.2615 bohr
 

     total cpu time spent up to now is      275.7 secs

     total energy              =   -7398.01406325 Ry
     estimated scf accuracy    <       0.45700786 Ry

     total magnetization       =    80.05 Bohr mag/cell
     absolute magnetization    =    85.14 Bohr mag/cell

     iteration # 19     ecut=    50.00 Ry     beta= 0.10
     Davidson diagonalization with overlap
     ethr =  4.24E-05,  avg # of iterations =  2.0

     negative rho (up, down):  2.214E-03 2.030E-03
 
     Adding external electric field

     Computed dipole along edir(3) : 
        Dipole               -0.9055 Ry au,         -2.3015 Debye
        Dipole field         -0.0006 Ry au, 
 
        Potential amp.        0.0608 Ry
        Total length         54.2615 bohr
 
 
     Adding external electric field

     Computed dipole along edir(3) : 
        Dipole               -0.9055 Ry au,         -2.3015 Debye
        Dipole field         -0.0006 Ry au, 
 
        Potential amp.        0.0608 Ry
        Total length         54.2615 bohr
 

     total cpu time spent up to now is      289.2 secs

     total energy              =   -7398.03516731 Ry
     estimated scf accuracy    <       0.19906692 Ry

     total magnetization       =    80.85 Bohr mag/cell
     absolute magnetization    =    83.14 Bohr mag/cell

     iteration # 20     ecut=    50.00 Ry     beta= 0.10
     Davidson diagonalization with overlap
     ethr =  1.85E-05,  avg # of iterations =  2.0

     negative rho (up, down):  2.333E-03 1.987E-03
 
     Adding external electric field

     Computed dipole along edir(3) : 
        Dipole               -0.8570 Ry au,         -2.1782 Debye
        Dipole field         -0.0005 Ry au, 
 
        Potential amp.        0.0575 Ry
        Total length         54.2615 bohr
 
 
     Adding external electric field

     Computed dipole along edir(3) : 
        Dipole               -0.8570 Ry au,         -2.1782 Debye
        Dipole field         -0.0005 Ry au, 
 
        Potential amp.        0.0575 Ry
        Total length         54.2615 bohr
 

     total cpu time spent up to now is      301.4 secs

     total energy              =   -7398.03891410 Ry
     estimated scf accuracy    <       0.10871118 Ry

     total magnetization       =    80.55 Bohr mag/cell
     absolute magnetization    =    82.46 Bohr mag/cell

     iteration # 21     ecut=    50.00 Ry     beta= 0.10
     Davidson diagonalization with overlap
     ethr =  1.01E-05,  avg # of iterations =  2.0

     negative rho (up, down):  2.678E-03 2.242E-03
 
     Adding external electric field

     Computed dipole along edir(3) : 
        Dipole               -0.8251 Ry au,         -2.0972 Debye
        Dipole field         -0.0005 Ry au, 
 
        Potential amp.        0.0554 Ry
        Total length         54.2615 bohr
 
 
     Adding external electric field

     Computed dipole along edir(3) : 
        Dipole               -0.8251 Ry au,         -2.0972 Debye
        Dipole field         -0.0005 Ry au, 
 
        Potential amp.        0.0554 Ry
        Total length         54.2615 bohr
 

     total cpu time spent up to now is      314.1 secs

     total energy              =   -7398.03841770 Ry
     estimated scf accuracy    <       0.15122998 Ry

     total magnetization       =    80.15 Bohr mag/cell
     absolute magnetization    =    81.77 Bohr mag/cell

     iteration # 22     ecut=    50.00 Ry     beta= 0.10
     Davidson diagonalization with overlap
     ethr =  1.01E-05,  avg # of iterations =  2.0

     negative rho (up, down):  2.475E-03 1.955E-03
 
     Adding external electric field

     Computed dipole along edir(3) : 
        Dipole               -0.7878 Ry au,         -2.0025 Debye
        Dipole field         -0.0005 Ry au, 
 
        Potential amp.        0.0529 Ry
        Total length         54.2615 bohr
 
 
     Adding external electric field

     Computed dipole along edir(3) : 
        Dipole               -0.7878 Ry au,         -2.0025 Debye
        Dipole field         -0.0005 Ry au, 
 
        Potential amp.        0.0529 Ry
        Total length         54.2615 bohr
 

     total cpu time spent up to now is      326.1 secs

     total energy              =   -7398.03522531 Ry
     estimated scf accuracy    <       0.08632138 Ry

     total magnetization       =    80.48 Bohr mag/cell
     absolute magnetization    =    81.92 Bohr mag/cell

     iteration # 23     ecut=    50.00 Ry     beta= 0.10
     Davidson diagonalization with overlap
     ethr =  8.01E-06,  avg # of iterations =  2.0

     negative rho (up, down):  2.136E-03 1.610E-03
 
     Adding external electric field

     Computed dipole along edir(3) : 
        Dipole               -0.7496 Ry au,         -1.9054 Debye
        Dipole field         -0.0005 Ry au, 
 
        Potential amp.        0.0503 Ry
        Total length         54.2615 bohr
 
 
     Adding external electric field

     Computed dipole along edir(3) : 
        Dipole               -0.7496 Ry au,         -1.9054 Debye
        Dipole field         -0.0005 Ry au, 
 
        Potential amp.        0.0503 Ry
        Total length         54.2615 bohr
 

     total cpu time spent up to now is      338.1 secs

     total energy              =   -7398.03577815 Ry
     estimated scf accuracy    <       0.12179756 Ry

     total magnetization       =    80.07 Bohr mag/cell
     absolute magnetization    =    81.36 Bohr mag/cell

     iteration # 24     ecut=    50.00 Ry     beta= 0.10
     Davidson diagonalization with overlap
     ethr =  8.01E-06,  avg # of iterations =  2.0

     negative rho (up, down):  2.191E-03 1.613E-03
 
     Adding external electric field

     Computed dipole along edir(3) : 
        Dipole               -0.7325 Ry au,         -1.8619 Debye
        Dipole field         -0.0005 Ry au, 
 
        Potential amp.        0.0492 Ry
        Total length         54.2615 bohr
 
 
     Adding external electric field

     Computed dipole along edir(3) : 
        Dipole               -0.7325 Ry au,         -1.8619 Debye
        Dipole field         -0.0005 Ry au, 
 
        Potential amp.        0.0492 Ry
        Total length         54.2615 bohr
 

     total cpu time spent up to now is      350.5 secs

     total energy              =   -7398.03438402 Ry
     estimated scf accuracy    <       0.16239618 Ry

     total magnetization       =    79.88 Bohr mag/cell
     absolute magnetization    =    81.14 Bohr mag/cell

     iteration # 25     ecut=    50.00 Ry     beta= 0.10
     Davidson diagonalization with overlap
     ethr =  8.01E-06,  avg # of iterations =  2.0

     negative rho (up, down):  8.785E-04 5.333E-04
 
     Adding external electric field

     Computed dipole along edir(3) : 
        Dipole               -0.6897 Ry au,         -1.7531 Debye
        Dipole field         -0.0004 Ry au, 
 
        Potential amp.        0.0463 Ry
        Total length         54.2615 bohr
 
 
     Adding external electric field

     Computed dipole along edir(3) : 
        Dipole               -0.6897 Ry au,         -1.7531 Debye
        Dipole field         -0.0004 Ry au, 
 
        Potential amp.        0.0463 Ry
        Total length         54.2615 bohr
 

     total cpu time spent up to now is      362.6 secs

     total energy              =   -7398.03927773 Ry
     estimated scf accuracy    <       0.13730843 Ry

     total magnetization       =    79.99 Bohr mag/cell
     absolute magnetization    =    81.19 Bohr mag/cell

     iteration # 26     ecut=    50.00 Ry     beta= 0.10
     Davidson diagonalization with overlap
     ethr =  8.01E-06,  avg # of iterations =  2.0

     negative rho (up, down):  4.634E-04 2.486E-04
 
     Adding external electric field

     Computed dipole along edir(3) : 
        Dipole               -0.6497 Ry au,         -1.6514 Debye
        Dipole field         -0.0004 Ry au, 
 
        Potential amp.        0.0436 Ry
        Total length         54.2615 bohr
 
 
     Adding external electric field

     Computed dipole along edir(3) : 
        Dipole               -0.6497 Ry au,         -1.6514 Debye
        Dipole field         -0.0004 Ry au, 
 
        Potential amp.        0.0436 Ry
        Total length         54.2615 bohr
 

     total cpu time spent up to now is      375.6 secs

     total energy              =   -7398.04396012 Ry
     estimated scf accuracy    <       0.60946352 Ry

     total magnetization       =    78.89 Bohr mag/cell
     absolute magnetization    =    80.20 Bohr mag/cell

     iteration # 27     ecut=    50.00 Ry     beta= 0.10
     Davidson diagonalization with overlap
     ethr =  8.01E-06,  avg # of iterations =  2.0

     negative rho (up, down):  1.427E-03 1.038E-03
 
     Adding external electric field

     Computed dipole along edir(3) : 
        Dipole               -0.6895 Ry au,         -1.7525 Debye
        Dipole field         -0.0004 Ry au, 
 
        Potential amp.        0.0463 Ry
        Total length         54.2615 bohr
 
 
     Adding external electric field

     Computed dipole along edir(3) : 
        Dipole               -0.6895 Ry au,         -1.7525 Debye
        Dipole field         -0.0004 Ry au, 
 
        Potential amp.        0.0463 Ry
        Total length         54.2615 bohr
 

     total cpu time spent up to now is      388.8 secs

     total energy              =   -7398.03307000 Ry
     estimated scf accuracy    <       0.61877894 Ry

     total magnetization       =    78.88 Bohr mag/cell
     absolute magnetization    =    80.26 Bohr mag/cell

     iteration # 28     ecut=    50.00 Ry     beta= 0.10
     Davidson diagonalization with overlap
     ethr =  8.01E-06,  avg # of iterations =  1.5

     negative rho (up, down):  6.949E-04 8.043E-04
 
     Adding external electric field

     Computed dipole along edir(3) : 
        Dipole               -0.7061 Ry au,         -1.7947 Debye
        Dipole field         -0.0004 Ry au, 
 
        Potential amp.        0.0474 Ry
        Total length         54.2615 bohr
 
 
     Adding external electric field

     Computed dipole along edir(3) : 
        Dipole               -0.7061 Ry au,         -1.7947 Debye
        Dipole field         -0.0004 Ry au, 
 
        Potential amp.        0.0474 Ry
        Total length         54.2615 bohr
 

     total cpu time spent up to now is      399.7 secs

     total energy              =   -7398.03546502 Ry
     estimated scf accuracy    <       0.19726035 Ry

     total magnetization       =    79.72 Bohr mag/cell
     absolute magnetization    =    80.89 Bohr mag/cell

     iteration # 29     ecut=    50.00 Ry     beta= 0.10
     Davidson diagonalization with overlap
     ethr =  8.01E-06,  avg # of iterations =  2.0

     negative rho (up, down):  2.573E-04 5.825E-04
 
     Adding external electric field

     Computed dipole along edir(3) : 
        Dipole               -0.6849 Ry au,         -1.7409 Debye
        Dipole field         -0.0004 Ry au, 
 
        Potential amp.        0.0460 Ry
        Total length         54.2615 bohr
 
 
     Adding external electric field

     Computed dipole along edir(3) : 
        Dipole               -0.6849 Ry au,         -1.7409 Debye
        Dipole field         -0.0004 Ry au, 
 
        Potential amp.        0.0460 Ry
        Total length         54.2615 bohr
 

     total cpu time spent up to now is      412.1 secs

     total energy              =   -7398.03359768 Ry
     estimated scf accuracy    <       0.10432870 Ry

     total magnetization       =    79.94 Bohr mag/cell
     absolute magnetization    =    81.08 Bohr mag/cell

     iteration # 30     ecut=    50.00 Ry     beta= 0.10
     Davidson diagonalization with overlap
     ethr =  8.01E-06,  avg # of iterations =  2.0

     negative rho (up, down):  1.084E-04 4.222E-04
 
     Adding external electric field

     Computed dipole along edir(3) : 
        Dipole               -0.6605 Ry au,         -1.6787 Debye
        Dipole field         -0.0004 Ry au, 
 
        Potential amp.        0.0443 Ry
        Total length         54.2615 bohr
 
 
     Adding external electric field

     Computed dipole along edir(3) : 
        Dipole               -0.6605 Ry au,         -1.6787 Debye
        Dipole field         -0.0004 Ry au, 
 
        Potential amp.        0.0443 Ry
        Total length         54.2615 bohr
 

     total cpu time spent up to now is      424.9 secs

     total energy              =   -7398.03206188 Ry
     estimated scf accuracy    <       0.04580152 Ry

     total magnetization       =    80.21 Bohr mag/cell
     absolute magnetization    =    81.41 Bohr mag/cell

     iteration # 31     ecut=    50.00 Ry     beta= 0.10
     Davidson diagonalization with overlap
     c_bands:  2 eigenvalues not converged
     ethr =  4.25E-06,  avg # of iterations = 29.5

     negative rho (up, down):  9.381E-05 2.681E-04
 
     Adding external electric field

     Computed dipole along edir(3) : 
        Dipole               -0.6931 Ry au,         -1.7616 Debye
        Dipole field         -0.0004 Ry au, 
 
        Potential amp.        0.0465 Ry
        Total length         54.2615 bohr
 
 
     Adding external electric field

     Computed dipole along edir(3) : 
        Dipole               -0.6931 Ry au,         -1.7616 Debye
        Dipole field         -0.0004 Ry au, 
 
        Potential amp.        0.0465 Ry
        Total length         54.2615 bohr
 

     total cpu time spent up to now is      457.8 secs

     total energy              =   -7398.03269727 Ry
     estimated scf accuracy    <       0.03332857 Ry

     total magnetization       =    80.43 Bohr mag/cell
     absolute magnetization    =    81.59 Bohr mag/cell

     iteration # 32     ecut=    50.00 Ry     beta= 0.10
     Davidson diagonalization with overlap
     ethr =  3.09E-06,  avg # of iterations =  2.0

     negative rho (up, down):  3.455E-05 7.223E-05
 
     Adding external electric field

     Computed dipole along edir(3) : 
        Dipole               -0.6885 Ry au,         -1.7499 Debye
        Dipole field         -0.0004 Ry au, 
 
        Potential amp.        0.0462 Ry
        Total length         54.2615 bohr
 
 
     Adding external electric field

     Computed dipole along edir(3) : 
        Dipole               -0.6885 Ry au,         -1.7499 Debye
        Dipole field         -0.0004 Ry au, 
 
        Potential amp.        0.0462 Ry
        Total length         54.2615 bohr
 

     total cpu time spent up to now is      470.5 secs

     total energy              =   -7398.03552564 Ry
     estimated scf accuracy    <       0.02685821 Ry

     total magnetization       =    80.54 Bohr mag/cell
     absolute magnetization    =    81.64 Bohr mag/cell

     iteration # 33     ecut=    50.00 Ry     beta= 0.10
     Davidson diagonalization with overlap
     ethr =  2.49E-06,  avg # of iterations =  2.0

     negative rho (up, down):  1.806E-04 2.767E-04
 
     Adding external electric field

     Computed dipole along edir(3) : 
        Dipole               -0.6956 Ry au,         -1.7679 Debye
        Dipole field         -0.0004 Ry au, 
 
        Potential amp.        0.0467 Ry
        Total length         54.2615 bohr
 
 
     Adding external electric field

     Computed dipole along edir(3) : 
        Dipole               -0.6956 Ry au,         -1.7679 Debye
        Dipole field         -0.0004 Ry au, 
 
        Potential amp.        0.0467 Ry
        Total length         54.2615 bohr
 

     total cpu time spent up to now is      482.3 secs

     total energy              =   -7398.03631074 Ry
     estimated scf accuracy    <       0.01998209 Ry

     total magnetization       =    80.52 Bohr mag/cell
     absolute magnetization    =    81.74 Bohr mag/cell

     iteration # 34     ecut=    50.00 Ry     beta= 0.10
     Davidson diagonalization with overlap
     ethr =  1.85E-06,  avg # of iterations =  1.5

     negative rho (up, down):  3.739E-04 5.399E-04
 
     Adding external electric field

     Computed dipole along edir(3) : 
        Dipole               -0.7160 Ry au,         -1.8200 Debye
        Dipole field         -0.0004 Ry au, 
 
        Potential amp.        0.0481 Ry
        Total length         54.2615 bohr
 
 
     Adding external electric field

     Computed dipole along edir(3) : 
        Dipole               -0.7160 Ry au,         -1.8200 Debye
        Dipole field         -0.0004 Ry au, 
 
        Potential amp.        0.0481 Ry
        Total length         54.2615 bohr
 

     total cpu time spent up to now is      493.9 secs

     total energy              =   -7398.03604857 Ry
     estimated scf accuracy    <       0.01878556 Ry

     total magnetization       =    80.51 Bohr mag/cell
     absolute magnetization    =    81.80 Bohr mag/cell

     iteration # 35     ecut=    50.00 Ry     beta= 0.10
     Davidson diagonalization with overlap
     ethr =  1.74E-06,  avg # of iterations =  2.0

     negative rho (up, down):  1.200E-04 2.065E-04
 
     Adding external electric field

     Computed dipole along edir(3) : 
        Dipole               -0.6466 Ry au,         -1.6435 Debye
        Dipole field         -0.0004 Ry au, 
 
        Potential amp.        0.0434 Ry
        Total length         54.2615 bohr
 
 
     Adding external electric field

     Computed dipole along edir(3) : 
        Dipole               -0.6466 Ry au,         -1.6435 Debye
        Dipole field         -0.0004 Ry au, 
 
        Potential amp.        0.0434 Ry
        Total length         54.2615 bohr
 

     total cpu time spent up to now is      505.6 secs

     total energy              =   -7398.03673585 Ry
     estimated scf accuracy    <       0.01946311 Ry

     total magnetization       =    80.56 Bohr mag/cell
     absolute magnetization    =    81.86 Bohr mag/cell

     iteration # 36     ecut=    50.00 Ry     beta= 0.10
     Davidson diagonalization with overlap
     ethr =  1.74E-06,  avg # of iterations =  2.0

     negative rho (up, down):  1.748E-04 3.012E-04
 
     Adding external electric field

     Computed dipole along edir(3) : 
        Dipole               -0.6596 Ry au,         -1.6766 Debye
        Dipole field         -0.0004 Ry au, 
 
        Potential amp.        0.0443 Ry
        Total length         54.2615 bohr
 
 
     Adding external electric field

     Computed dipole along edir(3) : 
        Dipole               -0.6596 Ry au,         -1.6766 Debye
        Dipole field         -0.0004 Ry au, 
 
        Potential amp.        0.0443 Ry
        Total length         54.2615 bohr
 

     total cpu time spent up to now is      518.8 secs

     total energy              =   -7398.03628539 Ry
     estimated scf accuracy    <       0.02167219 Ry

     total magnetization       =    80.42 Bohr mag/cell
     absolute magnetization    =    81.75 Bohr mag/cell

     iteration # 37     ecut=    50.00 Ry     beta= 0.10
     Davidson diagonalization with overlap
     ethr =  1.74E-06,  avg # of iterations =  1.0

     negative rho (up, down):  1.351E-04 2.250E-04
 
     Adding external electric field

     Computed dipole along edir(3) : 
        Dipole               -0.6522 Ry au,         -1.6577 Debye
        Dipole field         -0.0004 Ry au, 
 
        Potential amp.        0.0438 Ry
        Total length         54.2615 bohr
 
 
     Adding external electric field

     Computed dipole along edir(3) : 
        Dipole               -0.6522 Ry au,         -1.6577 Debye
        Dipole field         -0.0004 Ry au, 
 
        Potential amp.        0.0438 Ry
        Total length         54.2615 bohr
 

     total cpu time spent up to now is      529.4 secs

     total energy              =   -7398.03706141 Ry
     estimated scf accuracy    <       0.01902645 Ry

     total magnetization       =    80.48 Bohr mag/cell
     absolute magnetization    =    81.82 Bohr mag/cell

     iteration # 38     ecut=    50.00 Ry     beta= 0.10
     Davidson diagonalization with overlap
     ethr =  1.74E-06,  avg # of iterations =  1.5

     negative rho (up, down):  3.835E-04 5.712E-04
 
     Adding external electric field

     Computed dipole along edir(3) : 
        Dipole               -0.6446 Ry au,         -1.6383 Debye
        Dipole field         -0.0004 Ry au, 
 
        Potential amp.        0.0433 Ry
        Total length         54.2615 bohr
 
 
     Adding external electric field

     Computed dipole along edir(3) : 
        Dipole               -0.6446 Ry au,         -1.6383 Debye
        Dipole field         -0.0004 Ry au, 
 
        Potential amp.        0.0433 Ry
        Total length         54.2615 bohr
 

     total cpu time spent up to now is      541.9 secs

     total energy              =   -7398.03573070 Ry
     estimated scf accuracy    <       0.02143524 Ry

     total magnetization       =    80.42 Bohr mag/cell
     absolute magnetization    =    81.74 Bohr mag/cell

     iteration # 39     ecut=    50.00 Ry     beta= 0.10
     Davidson diagonalization with overlap
     ethr =  1.74E-06,  avg # of iterations =  2.0

     negative rho (up, down):  1.466E-04 2.544E-04
 
     Adding external electric field

     Computed dipole along edir(3) : 
        Dipole               -0.6841 Ry au,         -1.7389 Debye
        Dipole field         -0.0004 Ry au, 
 
        Potential amp.        0.0459 Ry
        Total length         54.2615 bohr
 
 
     Adding external electric field

     Computed dipole along edir(3) : 
        Dipole               -0.6841 Ry au,         -1.7389 Debye
        Dipole field         -0.0004 Ry au, 
 
        Potential amp.        0.0459 Ry
        Total length         54.2615 bohr
 

     total cpu time spent up to now is      554.4 secs

     total energy              =   -7398.03622251 Ry
     estimated scf accuracy    <       0.01943488 Ry

     total magnetization       =    80.53 Bohr mag/cell
     absolute magnetization    =    81.82 Bohr mag/cell

     iteration # 40     ecut=    50.00 Ry     beta= 0.10
     Davidson diagonalization with overlap
     ethr =  1.74E-06,  avg # of iterations =  1.5

     negative rho (up, down):  1.648E-04 3.033E-04
 
     Adding external electric field

     Computed dipole along edir(3) : 
        Dipole               -0.6895 Ry au,         -1.7525 Debye
        Dipole field         -0.0004 Ry au, 
 
        Potential amp.        0.0463 Ry
        Total length         54.2615 bohr
 
 
     Adding external electric field

     Computed dipole along edir(3) : 
        Dipole               -0.6895 Ry au,         -1.7525 Debye
        Dipole field         -0.0004 Ry au, 
 
        Potential amp.        0.0463 Ry
        Total length         54.2615 bohr
 

     total cpu time spent up to now is      565.7 secs

     total energy              =   -7398.03548917 Ry
     estimated scf accuracy    <       0.01858880 Ry

     total magnetization       =    80.52 Bohr mag/cell
     absolute magnetization    =    81.86 Bohr mag/cell

     iteration # 41     ecut=    50.00 Ry     beta= 0.10
     Davidson diagonalization with overlap
     ethr =  1.72E-06,  avg # of iterations =  1.5

     negative rho (up, down):  2.351E-04 3.121E-04
 
     Adding external electric field

     Computed dipole along edir(3) : 
        Dipole               -0.6597 Ry au,         -1.6768 Debye
        Dipole field         -0.0004 Ry au, 
 
        Potential amp.        0.0443 Ry
        Total length         54.2615 bohr
 
 
     Adding external electric field

     Computed dipole along edir(3) : 
        Dipole               -0.6597 Ry au,         -1.6768 Debye
        Dipole field         -0.0004 Ry au, 
 
        Potential amp.        0.0443 Ry
        Total length         54.2615 bohr
 

     total cpu time spent up to now is      577.6 secs

     total energy              =   -7398.03788265 Ry
     estimated scf accuracy    <       0.01950436 Ry

     total magnetization       =    80.51 Bohr mag/cell
     absolute magnetization    =    81.86 Bohr mag/cell

     iteration # 42     ecut=    50.00 Ry     beta= 0.10
     Davidson diagonalization with overlap
     ethr =  1.72E-06,  avg # of iterations =  1.5

     negative rho (up, down):  9.382E-05 1.353E-04
 
     Adding external electric field

     Computed dipole along edir(3) : 
        Dipole               -0.6535 Ry au,         -1.6609 Debye
        Dipole field         -0.0004 Ry au, 
 
        Potential amp.        0.0439 Ry
        Total length         54.2615 bohr
 
 
     Adding external electric field

     Computed dipole along edir(3) : 
        Dipole               -0.6535 Ry au,         -1.6609 Debye
        Dipole field         -0.0004 Ry au, 
 
        Potential amp.        0.0439 Ry
        Total length         54.2615 bohr
 

     total cpu time spent up to now is      589.1 secs

     total energy              =   -7398.03814673 Ry
     estimated scf accuracy    <       0.01809387 Ry

     total magnetization       =    80.55 Bohr mag/cell
     absolute magnetization    =    81.95 Bohr mag/cell

     iteration # 43     ecut=    50.00 Ry     beta= 0.10
     Davidson diagonalization with overlap
     ethr =  1.68E-06,  avg # of iterations =  1.0

     negative rho (up, down):  5.003E-05 7.774E-05
 
     Adding external electric field

     Computed dipole along edir(3) : 
        Dipole               -0.6480 Ry au,         -1.6470 Debye
        Dipole field         -0.0004 Ry au, 
 
        Potential amp.        0.0435 Ry
        Total length         54.2615 bohr
 
 
     Adding external electric field

     Computed dipole along edir(3) : 
        Dipole               -0.6480 Ry au,         -1.6470 Debye
        Dipole field         -0.0004 Ry au, 
 
        Potential amp.        0.0435 Ry
        Total length         54.2615 bohr
 

     total cpu time spent up to now is      600.1 secs

     total energy              =   -7398.03841629 Ry
     estimated scf accuracy    <       0.01784767 Ry

     total magnetization       =    80.53 Bohr mag/cell
     absolute magnetization    =    81.92 Bohr mag/cell

     iteration # 44     ecut=    50.00 Ry     beta= 0.10
     Davidson diagonalization with overlap
     ethr =  1.66E-06,  avg # of iterations =  1.5

     negative rho (up, down):  4.176E-05 6.447E-05
 
     Adding external electric field

     Computed dipole along edir(3) : 
        Dipole               -0.6523 Ry au,         -1.6580 Debye
        Dipole field         -0.0004 Ry au, 
 
        Potential amp.        0.0438 Ry
        Total length         54.2615 bohr
 
 
     Adding external electric field

     Computed dipole along edir(3) : 
        Dipole               -0.6523 Ry au,         -1.6580 Debye
        Dipole field         -0.0004 Ry au, 
 
        Potential amp.        0.0438 Ry
        Total length         54.2615 bohr
 

     total cpu time spent up to now is      611.5 secs

     total energy              =   -7398.03828333 Ry
     estimated scf accuracy    <       0.01794715 Ry

     total magnetization       =    80.54 Bohr mag/cell
     absolute magnetization    =    81.93 Bohr mag/cell

     iteration # 45     ecut=    50.00 Ry     beta= 0.10
     Davidson diagonalization with overlap
     ethr =  1.66E-06,  avg # of iterations =  1.0

     negative rho (up, down):  4.702E-04 5.553E-04
 
     Adding external electric field

     Computed dipole along edir(3) : 
        Dipole               -0.6371 Ry au,         -1.6194 Debye
        Dipole field         -0.0004 Ry au, 
 
        Potential amp.        0.0428 Ry
        Total length         54.2615 bohr
 
 
     Adding external electric field

     Computed dipole along edir(3) : 
        Dipole               -0.6371 Ry au,         -1.6194 Debye
        Dipole field         -0.0004 Ry au, 
 
        Potential amp.        0.0428 Ry
        Total length         54.2615 bohr
 

     total cpu time spent up to now is      621.7 secs

     total energy              =   -7398.03868264 Ry
     estimated scf accuracy    <       0.01800040 Ry

     total magnetization       =    80.53 Bohr mag/cell
     absolute magnetization    =    81.92 Bohr mag/cell

     iteration # 46     ecut=    50.00 Ry     beta= 0.10
     Davidson diagonalization with overlap
     ethr =  1.66E-06,  avg # of iterations =  2.0

     negative rho (up, down):  9.400E-04 9.871E-04
 
     Adding external electric field

     Computed dipole along edir(3) : 
        Dipole               -0.6617 Ry au,         -1.6820 Debye
        Dipole field         -0.0004 Ry au, 
 
        Potential amp.        0.0444 Ry
        Total length         54.2615 bohr
 
 
     Adding external electric field

     Computed dipole along edir(3) : 
        Dipole               -0.6617 Ry au,         -1.6820 Debye
        Dipole field         -0.0004 Ry au, 
 
        Potential amp.        0.0444 Ry
        Total length         54.2615 bohr
 

     total cpu time spent up to now is      634.4 secs

     total energy              =   -7398.03844660 Ry
     estimated scf accuracy    <       0.01618603 Ry

     total magnetization       =    80.55 Bohr mag/cell
     absolute magnetization    =    81.93 Bohr mag/cell

     iteration # 47     ecut=    50.00 Ry     beta= 0.10
     Davidson diagonalization with overlap
     ethr =  1.50E-06,  avg # of iterations =  1.0

     negative rho (up, down):  8.433E-04 7.613E-04
 
     Adding external electric field

     Computed dipole along edir(3) : 
        Dipole               -0.6619 Ry au,         -1.6824 Debye
        Dipole field         -0.0004 Ry au, 
 
        Potential amp.        0.0444 Ry
        Total length         54.2615 bohr
 
 
     Adding external electric field

     Computed dipole along edir(3) : 
        Dipole               -0.6619 Ry au,         -1.6824 Debye
        Dipole field         -0.0004 Ry au, 
 
        Potential amp.        0.0444 Ry
        Total length         54.2615 bohr
 

     total cpu time spent up to now is      645.4 secs

     total energy              =   -7398.03787472 Ry
     estimated scf accuracy    <       0.01409749 Ry

     total magnetization       =    80.59 Bohr mag/cell
     absolute magnetization    =    81.97 Bohr mag/cell

     iteration # 48     ecut=    50.00 Ry     beta= 0.10
     Davidson diagonalization with overlap
     ethr =  1.31E-06,  avg # of iterations =  2.0

     negative rho (up, down):  2.172E-03 2.049E-03
 
     Adding external electric field

     Computed dipole along edir(3) : 
        Dipole               -0.6246 Ry au,         -1.5876 Debye
        Dipole field         -0.0004 Ry au, 
 
        Potential amp.        0.0419 Ry
        Total length         54.2615 bohr
 
 
     Adding external electric field

     Computed dipole along edir(3) : 
        Dipole               -0.6246 Ry au,         -1.5876 Debye
        Dipole field         -0.0004 Ry au, 
 
        Potential amp.        0.0419 Ry
        Total length         54.2615 bohr
 

     total cpu time spent up to now is      658.2 secs

     total energy              =   -7398.03729327 Ry
     estimated scf accuracy    <       0.01228452 Ry

     total magnetization       =    80.58 Bohr mag/cell
     absolute magnetization    =    81.96 Bohr mag/cell

     iteration # 49     ecut=    50.00 Ry     beta= 0.10
     Davidson diagonalization with overlap
     ethr =  1.14E-06,  avg # of iterations =  2.0

     negative rho (up, down):  7.444E-03 7.335E-03
 
     Adding external electric field

     Computed dipole along edir(3) : 
        Dipole               -0.5149 Ry au,         -1.3088 Debye
        Dipole field         -0.0003 Ry au, 
 
        Potential amp.        0.0346 Ry
        Total length         54.2615 bohr
 
 
     Adding external electric field

     Computed dipole along edir(3) : 
        Dipole               -0.5149 Ry au,         -1.3088 Debye
        Dipole field         -0.0003 Ry au, 
 
        Potential amp.        0.0346 Ry
        Total length         54.2615 bohr
 

     total cpu time spent up to now is      671.8 secs

     total energy              =   -7398.03620321 Ry
     estimated scf accuracy    <       0.01085744 Ry

     total magnetization       =    80.58 Bohr mag/cell
     absolute magnetization    =    81.97 Bohr mag/cell

     iteration # 50     ecut=    50.00 Ry     beta= 0.10
     Davidson diagonalization with overlap
     c_bands:  1 eigenvalues not converged
     ethr =  1.01E-06,  avg # of iterations = 12.0

     negative rho (up, down):  8.482E-03 8.471E-03
 
     Adding external electric field

     Computed dipole along edir(3) : 
        Dipole               -0.4936 Ry au,         -1.2547 Debye
        Dipole field         -0.0003 Ry au, 
 
        Potential amp.        0.0331 Ry
        Total length         54.2615 bohr
 
 
     Adding external electric field

     Computed dipole along edir(3) : 
        Dipole               -0.4936 Ry au,         -1.2547 Debye
        Dipole field         -0.0003 Ry au, 
 
        Potential amp.        0.0331 Ry
        Total length         54.2615 bohr
 

     total cpu time spent up to now is      690.7 secs

     total energy              =   -7398.03644515 Ry
     estimated scf accuracy    <       0.00946540 Ry

     total magnetization       =    80.57 Bohr mag/cell
     absolute magnetization    =    81.95 Bohr mag/cell

     iteration # 51     ecut=    50.00 Ry     beta= 0.10
     Davidson diagonalization with overlap
     ethr =  8.78E-07,  avg # of iterations =  2.0

     negative rho (up, down):  1.017E-02 1.032E-02
 
     Adding external electric field

     Computed dipole along edir(3) : 
        Dipole               -0.4634 Ry au,         -1.1779 Debye
        Dipole field         -0.0003 Ry au, 
 
        Potential amp.        0.0311 Ry
        Total length         54.2615 bohr
 
 
     Adding external electric field

     Computed dipole along edir(3) : 
        Dipole               -0.4634 Ry au,         -1.1779 Debye
        Dipole field         -0.0003 Ry au, 
 
        Potential amp.        0.0311 Ry
        Total length         54.2615 bohr
 

     total cpu time spent up to now is      702.9 secs

     total energy              =   -7398.03665580 Ry
     estimated scf accuracy    <       0.00926880 Ry

     total magnetization       =    80.57 Bohr mag/cell
     absolute magnetization    =    81.96 Bohr mag/cell

     iteration # 52     ecut=    50.00 Ry     beta= 0.10
     Davidson diagonalization with overlap
     ethr =  8.60E-07,  avg # of iterations =  2.0

     negative rho (up, down):  5.444E-03 6.044E-03
 
     Adding external electric field

     Computed dipole along edir(3) : 
        Dipole               -0.4185 Ry au,         -1.0636 Debye
        Dipole field         -0.0003 Ry au, 
 
        Potential amp.        0.0281 Ry
        Total length         54.2615 bohr
 
 
     Adding external electric field

     Computed dipole along edir(3) : 
        Dipole               -0.4185 Ry au,         -1.0636 Debye
        Dipole field         -0.0003 Ry au, 
 
        Potential amp.        0.0281 Ry
        Total length         54.2615 bohr
 

     total cpu time spent up to now is      715.8 secs

     total energy              =   -7398.03535520 Ry
     estimated scf accuracy    <       0.00733111 Ry

     total magnetization       =    80.55 Bohr mag/cell
     absolute magnetization    =    81.99 Bohr mag/cell

     iteration # 53     ecut=    50.00 Ry     beta= 0.10
     Davidson diagonalization with overlap
     ethr =  6.80E-07,  avg # of iterations = 10.0

     negative rho (up, down):  4.371E-03 4.869E-03
 
     Adding external electric field

     Computed dipole along edir(3) : 
        Dipole               -0.3709 Ry au,         -0.9427 Debye
        Dipole field         -0.0002 Ry au, 
 
        Potential amp.        0.0249 Ry
        Total length         54.2615 bohr
 
 
     Adding external electric field

     Computed dipole along edir(3) : 
        Dipole               -0.3709 Ry au,         -0.9427 Debye
        Dipole field         -0.0002 Ry au, 
 
        Potential amp.        0.0249 Ry
        Total length         54.2615 bohr
 

     total cpu time spent up to now is      732.9 secs

     total energy              =   -7398.03534739 Ry
     estimated scf accuracy    <       0.00496322 Ry

     total magnetization       =    80.48 Bohr mag/cell
     absolute magnetization    =    82.04 Bohr mag/cell

     iteration # 54     ecut=    50.00 Ry     beta= 0.10
     Davidson diagonalization with overlap
     ethr =  4.60E-07,  avg # of iterations =  2.0

     negative rho (up, down):  5.491E-03 6.013E-03
 
     Adding external electric field

     Computed dipole along edir(3) : 
        Dipole               -0.3414 Ry au,         -0.8677 Debye
        Dipole field         -0.0002 Ry au, 
 
        Potential amp.        0.0229 Ry
        Total length         54.2615 bohr
 
 
     Adding external electric field

     Computed dipole along edir(3) : 
        Dipole               -0.3414 Ry au,         -0.8677 Debye
        Dipole field         -0.0002 Ry au, 
 
        Potential amp.        0.0229 Ry
        Total length         54.2615 bohr
 

     total cpu time spent up to now is      745.5 secs

     total energy              =   -7398.03515305 Ry
     estimated scf accuracy    <       0.00401217 Ry

     total magnetization       =    80.48 Bohr mag/cell
     absolute magnetization    =    82.08 Bohr mag/cell

     iteration # 55     ecut=    50.00 Ry     beta= 0.10
     Davidson diagonalization with overlap
     ethr =  3.72E-07,  avg # of iterations =  1.5

     negative rho (up, down):  5.484E-03 5.805E-03
 
     Adding external electric field

     Computed dipole along edir(3) : 
        Dipole               -0.2799 Ry au,         -0.7115 Debye
        Dipole field         -0.0002 Ry au, 
 
        Potential amp.        0.0188 Ry
        Total length         54.2615 bohr
 
 
     Adding external electric field

     Computed dipole along edir(3) : 
        Dipole               -0.2799 Ry au,         -0.7115 Debye
        Dipole field         -0.0002 Ry au, 
 
        Potential amp.        0.0188 Ry
        Total length         54.2615 bohr
 

     total cpu time spent up to now is      758.2 secs

     total energy              =   -7398.03553321 Ry
     estimated scf accuracy    <       0.00330322 Ry

     total magnetization       =    80.49 Bohr mag/cell
     absolute magnetization    =    82.15 Bohr mag/cell

     iteration # 56     ecut=    50.00 Ry     beta= 0.10
     Davidson diagonalization with overlap
     ethr =  3.06E-07,  avg # of iterations =  2.0

     negative rho (up, down):  6.376E-03 6.824E-03
 
     Adding external electric field

     Computed dipole along edir(3) : 
        Dipole               -0.2960 Ry au,         -0.7524 Debye
        Dipole field         -0.0002 Ry au, 
 
        Potential amp.        0.0199 Ry
        Total length         54.2615 bohr
 
 
     Adding external electric field

     Computed dipole along edir(3) : 
        Dipole               -0.2960 Ry au,         -0.7524 Debye
        Dipole field         -0.0002 Ry au, 
 
        Potential amp.        0.0199 Ry
        Total length         54.2615 bohr
 

     total cpu time spent up to now is      770.8 secs

     total energy              =   -7398.03553300 Ry
     estimated scf accuracy    <       0.00332016 Ry

     total magnetization       =    80.51 Bohr mag/cell
     absolute magnetization    =    82.17 Bohr mag/cell

     iteration # 57     ecut=    50.00 Ry     beta= 0.10
     Davidson diagonalization with overlap
     ethr =  3.06E-07,  avg # of iterations =  1.5

     negative rho (up, down):  2.469E-03 2.523E-03
 
     Adding external electric field

     Computed dipole along edir(3) : 
        Dipole               -0.2820 Ry au,         -0.7168 Debye
        Dipole field         -0.0002 Ry au, 
 
        Potential amp.        0.0189 Ry
        Total length         54.2615 bohr
 
 
     Adding external electric field

     Computed dipole along edir(3) : 
        Dipole               -0.2820 Ry au,         -0.7168 Debye
        Dipole field         -0.0002 Ry au, 
 
        Potential amp.        0.0189 Ry
        Total length         54.2615 bohr
 

     total cpu time spent up to now is      782.9 secs

     total energy              =   -7398.03566293 Ry
     estimated scf accuracy    <       0.00373265 Ry

     total magnetization       =    80.52 Bohr mag/cell
     absolute magnetization    =    82.17 Bohr mag/cell

     iteration # 58     ecut=    50.00 Ry     beta= 0.10
     Davidson diagonalization with overlap
     ethr =  3.06E-07,  avg # of iterations =  2.0

     negative rho (up, down):  1.694E-03 1.677E-03
 
     Adding external electric field

     Computed dipole along edir(3) : 
        Dipole               -0.2892 Ry au,         -0.7351 Debye
        Dipole field         -0.0002 Ry au, 
 
        Potential amp.        0.0194 Ry
        Total length         54.2615 bohr
 
 
[...]
    -5.9968  -5.9699  -5.9587  -5.9255  -5.9117  -5.8683  -5.8601  -5.8510
    -5.8143  -5.8075  -5.7526  -5.7373  -5.7259  -5.7089  -5.6956  -5.6812
    -5.6720  -5.6673  -5.6354  -5.6195  -5.6119  -5.5791  -5.5322  -5.5074
    -5.4719  -5.4348  -5.4075  -5.4002  -5.3874  -5.3512  -5.3075  -5.2868
    -5.2401  -5.2136  -5.1876  -5.1720  -5.1704  -5.0822  -5.0801  -5.0573
    -4.9847  -4.9759  -4.9363  -4.9127  -4.8886  -4.8759  -4.8586  -4.7968
    -4.7798  -4.7613  -4.7504  -4.7340  -4.6437  -4.6279  -4.5735  -4.5504
    -4.5183  -4.5159  -4.4978  -4.4593  -4.4049  -4.3924  -4.3788  -4.3704
    -4.3574  -4.2943  -4.2913  -4.2291  -4.1738  -4.1433  -4.1061  -4.0938
    -4.0784  -4.0468  -4.0354  -3.9943  -3.9629  -3.9548  -3.9133  -3.8982
    -3.8764  -3.8398  -3.8248  -3.8077  -3.7959  -3.7621  -3.7482  -3.7319
    -3.7002  -3.6844  -3.6653  -3.6441  -3.6422  -3.6357  -3.5931  -3.5821
    -3.5444  -3.5265  -3.5112  -3.4946  -3.4876  -3.4750  -3.4535  -3.4416
    -3.4295  -3.3989  -3.3855  -3.3484  -3.3375  -3.3147  -3.2638  -3.2509
    -3.2333  -3.2158  -3.2140  -3.1838  -3.1775  -3.1665  -3.1499  -3.1428
    -3.1286  -3.0781  -3.0374  -3.0316  -3.0052  -3.0009  -2.9680  -2.9398
    -2.9181  -2.9174  -2.9006  -2.8720  -2.8578  -2.8367  -2.8176  -2.8090
    -2.7976  -2.7865  -2.7796  -2.7674  -2.7453  -2.7378  -2.7248  -2.6993
    -2.6813  -2.6662  -2.6622  -2.6508  -2.6241  -2.6114  -2.5926  -2.5793
    -2.5510  -2.5361  -2.5271  -2.5182  -2.4944  -2.4798  -2.4680  -2.4366
    -2.4127  -2.3979  -2.3932  -2.3699  -2.3568  -2.3132  -2.2937  -2.2848
    -2.2637  -2.2412  -2.2294  -2.2090  -2.1763  -2.1581  -2.1264  -2.1216
    -2.1105  -2.0864  -2.0781  -2.0708  -2.0690  -2.0376  -2.0058  -1.9898
    -1.9755  -1.9633  -1.9560  -1.9405  -1.9270  -1.9197  -1.8909  -1.8571
    -1.8422  -1.8194  -1.7886  -1.7647  -1.7372  -1.7237  -1.6989  -1.6940
    -1.6568  -1.6524  -1.6473  -1.6295  -1.6146  -1.6074  -1.5847  -1.5484
    -1.5348  -1.5140  -1.4725  -1.4660  -1.4430  -1.4339  -1.4202  -1.4129
    -1.3875  -1.3830  -1.3402  -1.3202  -1.2984  -1.2377  -1.2336  -1.2048
    -1.1488  -1.1007  -1.0707  -1.0539  -1.0151  -0.9281  -0.8967  -0.8778
    -0.7663  -0.6668  -0.6152  -0.5955  -0.4649  -0.3682  -0.2957  -0.2605
     0.1020   0.1245   0.1531   0.1908   0.2244   0.2416   0.2586   0.2703
     0.2787   0.2958   0.2992   0.3015   0.3085   0.3297   0.3421   0.3479
     0.3537   0.3558   0.3728   0.3785   0.3827   0.3933   0.3954   0.4066
     0.4106   0.4134   0.4227   0.4360   0.4433   0.4511   0.4561   0.4599
     0.4633   0.4696   0.4723   0.4907   0.4920   0.4984   0.5105   0.5129
     0.5198   0.5420   0.5443   0.5484   0.5577   0.5633   0.5659   0.5711
     0.5759   0.5868   0.5911   0.5929   0.6072   0.6138   0.6217   0.6342
     0.6373   0.6462   0.6531   0.6649   0.6734   0.6741   0.6858   0.6903
     0.6913   0.7000   0.7093   0.7130   0.7184   0.7340   0.7387   0.7437
     0.7470   0.7535   0.7675   0.7788   0.7853   0.7962   0.8061   0.8199
     0.8263   0.8356   0.8426   0.8600   0.8626   0.8702   0.8783   0.8801
     0.8959   0.9123   0.9183   0.9247   0.9341   0.9707   0.9850   1.0407
     1.0701   1.1339   1.6029   1.6565   1.6993   1.7107   1.7124   1.7402
     1.7696   1.8327   1.8685   1.8719   1.8936   1.9296   1.9342   1.9643
     1.9765   1.9892   2.0146   2.0369   2.0502   2.0706   2.0825   2.1092
     2.1417   2.1542   2.1779   2.1884   2.1959   2.2146   2.2233   2.2429
     2.2501   2.2533   2.2666   2.2798   2.2861   2.2953   2.3053   2.3219
     2.3364   2.3420   2.3639   2.3856   2.4017   2.4177   2.4320   2.4455
     2.4543   2.4725   2.4971   2.5041   2.5121   2.5306   2.5533   2.5661
     2.5781   2.5853   2.6093   2.6362   2.6577   2.6715   2.7340   2.7601
     2.7817   2.8319   2.8404   2.9032   2.9159   3.5878   3.5887   3.6630
     3.7589   3.8239   3.8409   3.8553   3.8600   3.9981   4.0633   4.5885
     4.6444   4.7063   4.7729   4.9239   4.9472   5.0183   5.4132   6.2949
     6.3597   6.5413   6.5881   6.7773   6.8142   6.8421   6.8788   6.9233
     7.0131   7.0656   7.0964   7.1188   7.3192   7.3636   7.3765   7.4134
     7.4981   7.5538   7.6555   7.6751   7.6896   7.7533   7.7866   7.8084
     7.8615   7.9197   7.9494   7.9791   8.0202   8.0305   8.0597   8.0687
     8.0921   8.1158   8.1592   8.2000   8.2333   8.2630   8.2988   8.3267
     8.3789   8.4092   8.4169   8.4414   8.4603   8.4775   8.4995   8.5102
     8.5323   8.5568   8.5830   8.5957   8.6199   8.6421   8.6787   8.6891
     8.7207   8.7654   8.7935   8.7953   8.8232   8.8600   8.8627

     the Fermi energy is     1.5636 ev

!    total energy              =   -7398.03617502 Ry
     estimated scf accuracy    <       0.00000082 Ry
     smearing contrib. (-TS)   =      -0.01404119 Ry
     internal energy E=F+TS    =   -7398.02213383 Ry

     The total energy is F=E-TS. E is the sum of the following terms:
     one-electron contribution =  -91680.50457657 Ry
     hartree contribution      =   46488.14387278 Ry
     xc contribution           =   -2260.27003292 Ry
     ewald contribution        =   40056.44206726 Ry
     Dispersion Correction     =      -1.83347913 Ry
     electric field correction =       0.00001475 Ry

     total magnetization       =    80.47 Bohr mag/cell
     absolute magnetization    =    82.00 Bohr mag/cell

     convergence has been achieved in  76 iterations

     negative rho (up, down):  9.307E-04 5.478E-04

     Forces acting on atoms (cartesian axes, Ry/au):

     atom    1 type  2   force =     0.03090347   -0.01970871   -0.01628091
     atom    2 type  1   force =     0.00228553   -0.00391046   -0.01071191
     atom    3 type  1   force =    -0.02169365   -0.02074860    0.01825560
     atom    4 type  1   force =     0.00139415    0.01022340   -0.01265863
     atom    5 type  1   force =    -0.00489600    0.02907970   -0.01843986
     atom    6 type  1   force =     0.00587302    0.00043850   -0.00045832
     atom    7 type  1   force =     0.02702211   -0.02110693    0.01748456
     atom    8 type  1   force =    -0.00974687   -0.00308647   -0.01102093
     atom    9 type  1   force =    -0.02995237   -0.01824134    0.01620678
     atom   10 type  1   force =    -0.00112592    0.00801296   -0.01292606
     atom   11 type  1   force =    -0.01307545    0.03041841   -0.02057909
     atom   12 type  1   force =     0.00128933    0.00664031   -0.00413309
     atom   13 type  3   force =     0.05101513   -0.11002562    0.00919724
     atom   14 type  3   force =    -0.02902685    0.03592393   -0.06515478
     atom   15 type  3   force =    -0.00920963    0.17549801   -0.08314425
     atom   16 type  3   force =     0.06069862    0.00054792   -0.00435749
     atom   17 type  4   force =     0.01519674   -0.02180678   -0.00972407
     atom   18 type  4   force =    -0.00535431    0.00477043    0.02961180
     atom   19 type  4   force =     0.00211089    0.00095747    0.03066478
     atom   20 type  4   force =     0.00508456    0.00192719    0.00244537
     atom   21 type  4   force =     0.00057710   -0.01197710   -0.00005708
     atom   22 type  4   force =    -0.00090116    0.00382451    0.03260011
     atom   23 type  4   force =    -0.00610466    0.01461533    0.02757769
     atom   24 type  4   force =     0.00862732    0.00326339   -0.00434930
     atom   25 type  4   force =     0.00644309   -0.00333687    0.00155546
     atom   26 type  4   force =     0.03113925   -0.17824430    0.00726703
     atom   27 type  4   force =     0.00296935    0.00098994    0.00169260
     atom   28 type  4   force =    -0.01693353    0.00169891    0.00477413
     atom   29 type  4   force =     0.09122954    0.00313076    0.00807502
     atom   30 type  4   force =     0.01313496   -0.02504882   -0.00087018
     atom   31 type  4   force =    -0.03842616    0.13327268   -0.00018806
     atom   32 type  4   force =    -0.00557792   -0.01186258    0.00652984
     atom   33 type  3   force =     0.04158247   -0.11920629    0.00964899
     atom   34 type  3   force =    -0.10168088    0.04258147   -0.07572024
     atom   35 type  3   force =    -0.01352022    0.16599847   -0.08807984
     atom   36 type  3   force =    -0.00358294    0.00254829   -0.01040393
     atom   37 type  4   force =     0.00828860   -0.01462951   -0.00228364
     atom   38 type  4   force =    -0.00583145   -0.00176915    0.02733017
     atom   39 type  4   force =    -0.00472927    0.00717777    0.03207418
     atom   40 type  4   force =     0.00125584    0.00010061    0.00256085
     atom   41 type  4   force =    -0.00146084   -0.00958325   -0.00157748
     atom   42 type  4   force =     0.00543365   -0.00059138    0.02950468
     atom   43 type  4   force =    -0.01048006    0.01344671    0.02722032
     atom   44 type  4   force =     0.00441873    0.00352959   -0.00455222
     atom   45 type  4   force =    -0.00034228   -0.00071248    0.00200265
     atom   46 type  4   force =     0.02807146   -0.17043758    0.00545506
     atom   47 type  4   force =    -0.06541068   -0.00073991   -0.00310980
     atom   48 type  4   force =    -0.01972811    0.00392721    0.00533155
     atom   49 type  4   force =     0.01393719    0.00085831    0.00207469
     atom   50 type  4   force =     0.00799831   -0.02426729   -0.00012125
     atom   51 type  4   force =    -0.03969151    0.13322466   -0.00137323
     atom   52 type  4   force =    -0.00791018   -0.01066452    0.00875687
     atom   53 type  2   force =     0.00629826   -0.00720276    0.00565307
     atom   54 type  1   force =     0.00080200   -0.00447481    0.00809237
     atom   55 type  1   force =     0.00493841   -0.00633611    0.00666787
     atom   56 type  1   force =     0.00066193    0.00584968    0.00311644
     atom   57 type  1   force =     0.00077397    0.02208421   -0.01386607
     atom   58 type  1   force =     0.00147505   -0.00351089    0.00254917
     atom   59 type  1   force =     0.00257756   -0.01010179    0.00373351
     atom   60 type  1   force =    -0.00693613   -0.00288151    0.00381527
     atom   61 type  1   force =    -0.00467770   -0.00510934    0.00661043
     atom   62 type  1   force =    -0.00359619    0.00590300   -0.00063854
     atom   63 type  1   force =    -0.01095801    0.02515304   -0.01745878
     atom   64 type  1   force =    -0.00218603    0.00115183   -0.00061764
     atom   65 type  3   force =     0.04516288   -0.11955527    0.01965642
     atom   66 type  3   force =     0.00159267   -0.00444647    0.00060414
     atom   67 type  3   force =    -0.04072949    0.12369681   -0.00681361
     atom   68 type  3   force =     0.06329476   -0.00209397    0.00759454
     atom   69 type  4   force =     0.01271879   -0.01725002   -0.00282642
     atom   70 type  4   force =    -0.00166093    0.00344791   -0.00050425
     atom   71 type  4   force =    -0.00186310    0.00335466    0.00524724
     atom   72 type  4   force =     0.00462108    0.00162013    0.00081562
     atom   73 type  4   force =     0.00872879   -0.01685169    0.01182873
     atom   74 type  4   force =    -0.00433425   -0.00342158    0.00940872
     atom   75 type  4   force =     0.00348682    0.00860074    0.00462503
     atom   76 type  4   force =     0.00586803    0.00083941   -0.00218319
     atom   77 type  4   force =     0.00607221   -0.00189710   -0.00107595
     atom   78 type  4   force =     0.04532265   -0.14080951    0.00577860
     atom   79 type  4   force =     0.00032547    0.00034248   -0.00071975
     atom   80 type  4   force =     0.00163516    0.00189697    0.00218694
     atom   81 type  4   force =     0.06732852    0.00011843    0.00648888
     atom   82 type  4   force =     0.00024264    0.00247389    0.00131863
     atom   83 type  4   force =    -0.03900062    0.13787465   -0.00270817
     atom   84 type  4   force =    -0.00112700   -0.01066600    0.00375513
     atom   85 type  3   force =     0.03949708   -0.12371475    0.02505569
     atom   86 type  3   force =    -0.06327326   -0.00171311   -0.00369372
     atom   87 type  3   force =    -0.04611271    0.12085845   -0.01039628
     atom   88 type  3   force =    -0.00011114   -0.00162875    0.00285328
     atom   89 type  4   force =     0.00865258   -0.01524436   -0.00479696
     atom   90 type  4   force =    -0.00451564    0.00099117   -0.00097314
     atom   91 type  4   force =    -0.00955670    0.00827473    0.00539540
     atom   92 type  4   force =     0.00038963    0.00002466    0.00008761
     atom   93 type  4   force =     0.00128889   -0.01170095    0.00067706
     atom   94 type  4   force =    -0.00903561   -0.00298576    0.00837485
     atom   95 type  4   force =    -0.00037801    0.00770163    0.00307711
     atom   96 type  4   force =    -0.00089891    0.00073455    0.00004914
     atom   97 type  4   force =    -0.00104637    0.00184768   -0.00014258
     atom   98 type  4   force =     0.04049202   -0.13907798    0.00485822
     atom   99 type  4   force =    -0.06726106   -0.00087537   -0.00600867
     atom  100 type  4   force =    -0.00034753    0.00279936    0.00291872
     atom  101 type  4   force =    -0.00130464    0.00010727    0.00144841
     atom  102 type  4   force =    -0.00682027    0.00556745    0.00156784
     atom  103 type  4   force =    -0.04026273    0.13530088   -0.00429944
     atom  104 type  4   force =    -0.00613788   -0.01004819    0.00503529
     atom  105 type  2   force =    -0.00032771    0.00020691   -0.00033868
     atom  106 type  1   force =     0.00061357   -0.00031682   -0.00066252
     atom  107 type  1   force =     0.00031103    0.00006192    0.00023929
     atom  108 type  1   force =     0.00161219   -0.00154831    0.00196777
     atom  109 type  1   force =     0.00016534   -0.00071590   -0.00043247
     atom  110 type  1   force =    -0.00048171   -0.00009330   -0.00053678
     atom  111 type  1   force =     0.00006092   -0.00036374   -0.00005662
     atom  112 type  1   force =     0.00024166    0.00036751   -0.00058266
     atom  113 type  1   force =     0.00015234   -0.00026545   -0.00051887
     atom  114 type  1   force =    -0.00028130    0.00016563   -0.00010134
     atom  115 type  1   force =     0.00020281    0.00025023   -0.00026656
     atom  116 type  1   force =    -0.00039485    0.00013227   -0.00046285
     atom  117 type  3   force =    -0.00085673   -0.00089567    0.00032741
     atom  118 type  3   force =    -0.00014461   -0.00003969    0.00021931
     atom  119 type  3   force =    -0.00004576    0.00002113   -0.00058484
     atom  120 type  3   force =     0.00015989   -0.00025311    0.00004994
     atom  121 type  4   force =     0.00043468    0.00029675    0.00078458
     atom  122 type  4   force =    -0.00019056    0.00020795    0.00013623
     atom  123 type  4   force =     0.00008116   -0.00012160    0.00018622
     atom  124 type  4   force =     0.00040032   -0.00039479    0.00002626
     atom  125 type  4   force =     0.00058372    0.00041314   -0.00049243
     atom  126 type  4   force =    -0.00008134   -0.00019373   -0.00015508
     atom  127 type  4   force =     0.00049297   -0.00029752    0.00005324
     atom  128 type  4   force =    -0.00005408    0.00047528    0.00001642
     atom  129 type  4   force =     0.00037952   -0.00013467    0.00022550
     atom  130 type  4   force =    -0.00009632   -0.00006796    0.00023591
     atom  131 type  4   force =    -0.00071427   -0.00056035    0.00003160
     atom  132 type  4   force =     0.00013136   -0.00008093   -0.00028463
     atom  133 type  4   force =    -0.00006139    0.00016273   -0.00024484
     atom  134 type  4   force =     0.00005199    0.00024295   -0.00031519
     atom  135 type  4   force =     0.00066076    0.00103123   -0.00024254
     atom  136 type  4   force =    -0.00022713    0.00011166   -0.00003378
     atom  137 type  3   force =    -0.00049103   -0.00003818    0.00020738
     atom  138 type  3   force =     0.00014529    0.00002057    0.00004320
     atom  139 type  3   force =    -0.00016994   -0.00032939    0.00009170
     atom  140 type  3   force =     0.00029973   -0.00017729    0.00057635
     atom  141 type  4   force =     0.00013928   -0.00011731    0.00014790
     atom  142 type  4   force =     0.00012463   -0.00005813    0.00007688
     atom  143 type  4   force =    -0.00011761   -0.00009332   -0.00024852
     atom  144 type  4   force =    -0.00038891   -0.00057208   -0.00060111
     atom  145 type  4   force =    -0.00015561   -0.00022378   -0.00057959
     atom  146 type  4   force =    -0.00019443    0.00006252   -0.00000739
     atom  147 type  4   force =     0.00019896   -0.00019733    0.00008334
     atom  148 type  4   force =    -0.00066997   -0.00046257   -0.00027208
     atom  149 type  4   force =    -0.00004272    0.00026038   -0.00001243
     atom  150 type  4   force =    -0.00021230   -0.00014146   -0.00019689
     atom  151 type  4   force =    -0.00027202   -0.00000449    0.00032780
     atom  152 type  4   force =    -0.00001774   -0.00034807   -0.00018045
     atom  153 type  4   force =    -0.00017394    0.00023643   -0.00002129
     atom  154 type  4   force =     0.00010923    0.00028331    0.00000276
     atom  155 type  4   force =    -0.00011281    0.00005956    0.00008697
     atom  156 type  4   force =     0.00009015    0.00022341   -0.00004237
     atom  157 type  4   force =    -0.00542416    0.00003783   -0.00393686
     atom  158 type  5   force =     0.00285395    0.00183712    0.00142306

     Total force =     0.664706     Total SCF correction =     0.003949
 
     init_run     :      7.65s CPU      8.38s WALL (       1 calls)
     electrons    :    980.97s CPU   1029.31s WALL (       1 calls)
     forces       :      3.64s CPU      4.01s WALL (       1 calls)
     force_london :      0.09s CPU      0.09s WALL (       1 calls)

     Called by init_run:
     wfcinit      :      4.70s CPU      4.91s WALL (       1 calls)
     potinit      :      0.57s CPU      0.76s WALL (       1 calls)
     hinit0       :      1.14s CPU      1.24s WALL (       1 calls)

     Called by electrons:
     c_bands      :    781.84s CPU    807.76s WALL (      76 calls)
     sum_band     :    128.71s CPU    140.69s WALL (      76 calls)
     v_of_rho     :     13.86s CPU     15.07s WALL (      77 calls)
     newd         :     36.59s CPU     45.87s WALL (      77 calls)
     mix_rho      :     19.37s CPU     19.53s WALL (      76 calls)
     energy_londo :      0.10s CPU      0.10s WALL (       1 calls)

     Called by c_bands:
     init_us_2    :      2.24s CPU      2.30s WALL (     308 calls)
     init_us_2:cp :      2.23s CPU      2.30s WALL (     308 calls)
     regterg      :    765.40s CPU    791.09s WALL (     155 calls)

     Called by *egterg:
     rdiaghg      :    224.45s CPU    236.47s WALL (     657 calls)
     h_psi        :    295.95s CPU    301.94s WALL (     659 calls)
     s_psi        :     55.96s CPU     55.98s WALL (     659 calls)
     g_psi        :      0.38s CPU      0.39s WALL (     502 calls)

     Called by h_psi:
     h_psi:calbec :     77.02s CPU     81.73s WALL (     659 calls)
     vloc_psi     :    161.19s CPU    161.87s WALL (     659 calls)
     add_vuspsi   :     56.96s CPU     57.57s WALL (     659 calls)

     General routines
     calbec       :    114.15s CPU    121.19s WALL (     819 calls)
     fft          :     15.50s CPU     17.10s WALL (    1399 calls)
     ffts         :     11.82s CPU     11.84s WALL (    9455 calls)
     fftw         :    183.54s CPU    184.26s WALL (  258120 calls)
     interpolate  :      1.15s CPU      1.25s WALL (     154 calls)
 
     Parallel routines
 
     PWSCF        :  16m34.40s CPU  17m24.10s WALL

 
   This run was terminated on:  20:33:36  19Nov2025            

=------------------------------------------------------------------------------=
   JOB DONE.
=------------------------------------------------------------------------------=
