
     Program PWSCF v.7.2 starts on 17Nov2025 at 22:31:33 

     This program is part of the open-source Quantum ESPRESSO suite
     for quantum simulation of materials; please cite
         "P. Giannozzi et al., J. Phys.:Condens. Matter 21 395502 (2009);
         "P. Giannozzi et al., J. Phys.:Condens. Matter 29 465901 (2017);
         "P. Giannozzi et al., J. Chem. Phys. 152 154105 (2020);
          URL http://www.quantum-espresso.org", 
     in publications or presentations arising from this work. More details at
     http://www.quantum-espresso.org/quote

     Parallel version (MPI), running on    64 processors

     MPI processes distributed on     4 nodes
     455771 MiB available memory on the printing compute node when the environment starts
 
     Reading input from PWINPUT_atm158_xm

     Current dimensions of program PWSCF are:
     Max number of different atomic species (ntypx) = 10
     Max number of k-points (npk) =  40000
     Max angular momentum in pseudopotentials (lmaxx) =  4
     Presently no symmetry can be used with electric field

     file Ni.pbe-n-rrkjus_psl.1.0.0.UPF: wavefunction(s)  3D renormalized
     file Mn.pbe-spn-rrkjus_psl.0.3.1.UPF: wavefunction(s)  3D renormalized
     file O.pbe-rrkjus.UPF: wavefunction(s)  2S renormalized
     file H.pbe-rrkjus.UPF: wavefunction(s)  1S renormalized

     gamma-point specific algorithms are used
 
     R & G space division:  proc/nbgrp/npool/nimage =      64
     Subspace diagonalization in iterative solution of the eigenvalue problem:
     one sub-group per band group will be used
     custom distributed-memory algorithm (size of sub-group:  7*  7 procs)

 
     Parallelization info
     --------------------
     sticks:   dense  smooth     PW     G-vecs:    dense   smooth      PW
     Min         214      85     20                61830    15614    1928
     Max         216      86     22                61864    15658    1982
     Sum       13727    5503   1375              3958051  1001255  125211
 
     Using Slab Decomposition
 


     bravais-lattice index     =            0
     lattice parameter (alat)  =      17.8532  a.u.
     unit-cell volume          =   20962.6682 (a.u.)^3
     number of atoms/cell      =          158
     number of atomic types    =            5
     number of electrons       =      1108.00
     number of Kohn-Sham states=          665
     kinetic-energy cutoff     =      50.0000  Ry
     charge density cutoff     =     500.0000  Ry
     scf convergence threshold =      1.0E-06
     mixing beta               =       0.1000
     number of iterations used =            8  local-TF  mixing
     Exchange-correlation=  SLA  PW   PBE  PBE
                           (   1   4   3   4   0   0   0)

     celldm(1)=  17.853155  celldm(2)=   0.000000  celldm(3)=   0.000000
     celldm(4)=   0.000000  celldm(5)=   0.000000  celldm(6)=   0.000000

     crystal axes: (cart. coord. in units of alat)
               a(1) = (   1.000000   0.000000   0.000000 )  
               a(2) = (   0.003237   1.081997   0.000000 )  
               a(3) = (   0.000000   0.000000   3.404673 )  

     reciprocal axes: (cart. coord. in units 2 pi/alat)
               b(1) = (  1.000000 -0.002992  0.000000 )  
               b(2) = (  0.000000  0.924217  0.000000 )  
               b(3) = (  0.000000  0.000000  0.293714 )  


     PseudoPot. # 1 for Ni read from file:
     ~/PSEUDO/Ni.pbe-n-rrkjus_psl.1.0.0.UPF
     MD5 check sum: Not computed, couldn't open file
     Pseudo is Ultrasoft + core correction, Zval = 10.0
     Generated using "atomic" code by A. Dal Corso  v.5.1.2
     Using radial grid of 1195 points,  6 beta functions with: 
                l(1) =   0
                l(2) =   0
                l(3) =   1
                l(4) =   1
                l(5) =   2
                l(6) =   2
     Q(r) pseudized with 0 coefficients 


     PseudoPot. # 2 for Mn read from file:
     ~/PSEUDO/Mn.pbe-spn-rrkjus_psl.0.3.1.UPF
     MD5 check sum: Not computed, couldn't open file
     Pseudo is Ultrasoft + core correction, Zval = 15.0
     Generated using &quot;atomic&quot; code by A. Dal Corso  v.6.2.2
     Using radial grid of 1187 points,  6 beta functions with: 
                l(1) =   0
                l(2) =   0
                l(3) =   1
                l(4) =   1
                l(5) =   2
                l(6) =   2
     Q(r) pseudized with 0 coefficients 


     PseudoPot. # 3 for P  read from file:
     ~/PSEUDO/P.pbe-n-rrkjus_psl.1.0.0.UPF
     MD5 check sum: Not computed, couldn't open file
     Pseudo is Ultrasoft + core correction, Zval =  5.0
     Generated using "atomic" code by A. Dal Corso  v.5.1
     Using radial grid of 1147 points,  6 beta functions with: 
                l(1) =   0
                l(2) =   0
                l(3) =   1
                l(4) =   1
                l(5) =   2
                l(6) =   2
     Q(r) pseudized with 0 coefficients 


     PseudoPot. # 4 for O  read from file:
     ~/PSEUDO/O.pbe-rrkjus.UPF
     MD5 check sum: Not computed, couldn't open file
     Pseudo is Ultrasoft, Zval =  6.0
     Generated by new atomic code, or converted to UPF format
     Using radial grid of 1269 points,  4 beta functions with: 
                l(1) =   0
                l(2) =   0
                l(3) =   1
                l(4) =   1
     Q(r) pseudized with 0 coefficients 


     PseudoPot. # 5 for H  read from file:
     ~/PSEUDO/H.pbe-rrkjus.UPF
     MD5 check sum: Not computed, couldn't open file
     Pseudo is Ultrasoft, Zval =  1.0
     Generated by new atomic code, or converted to UPF format
     Using radial grid of 1061 points,  2 beta functions with: 
                l(1) =   0
                l(2) =   0
     Q(r) pseudized with 0 coefficients 


     atomic species   valence    mass     pseudopotential
     Ni               10.00    58.69300     Ni( 1.00)
     Mn               15.00    54.93800     Mn( 1.00)
     P                 5.00    30.97300     P ( 1.00)
     O                 6.00    15.99900     O ( 1.00)
     H                 1.00     1.00790     H ( 1.00)

     Starting magnetic structure 
     atomic species   magnetization
     Ni              1.000
     Mn              1.000
     P               1.000
     O               1.000
     H               0.000

     No symmetry found



   Cartesian axes

     site n.     atom                  positions (alat units)
         1        Ni     tau(   1) = (   0.2448189   0.8359134   0.1216996  )
         2        Ni     tau(   2) = (   0.4920952   0.7731948   0.4438949  )
         3        Mn     tau(   3) = (   0.0113021   0.2918949   0.1160512  )
         4        Ni     tau(   4) = (   0.2586115   0.2268566   0.4417628  )
         5        Ni     tau(   5) = (   1.0019827   1.0705803   0.2835623  )
         6        Ni     tau(   6) = (   0.2518099   0.5339061   0.2823483  )
         7        Ni     tau(   7) = (   0.7400999   0.8349186   0.1225624  )
         8        Mn     tau(   8) = (   0.9886961   0.7700845   0.4492175  )
         9        Mn     tau(   9) = (   0.5113421   0.2944667   0.1158892  )
        10        Ni     tau(  10) = (   0.7560857   0.2263843   0.4422798  )
        11        Ni     tau(  11) = (   0.5009386   1.0712238   0.2822610  )
        12        Ni     tau(  12) = (   0.7496978   0.5336600   0.2834396  )
        13        P      tau(  13) = (   0.2147792   0.9686896   0.4382665  )
        14        P      tau(  14) = (   0.4607377   0.6441916   0.1265334  )
        15        P      tau(  15) = (   0.2883218   0.0913464   0.1265752  )
        16        P      tau(  16) = (   0.0408981   0.4221836   0.4354960  )
        17        O      tau(  17) = (   0.1380864   0.9007819   0.3023220  )
        18        O      tau(  18) = (   0.3817439   0.7113683   0.2624610  )
        19        O      tau(  19) = (   0.3638364   0.1608547   0.2624417  )
        20        O      tau(  20) = (   0.1207568   0.3545755   0.3021219  )
        21        O      tau(  21) = (   0.1552194   0.8797563   0.5625160  )
        22        O      tau(  22) = (   0.4022820   0.7317969   0.0010585  )
        23        O      tau(  23) = (   0.3454844   0.1823965   0.0026336  )
        24        O      tau(  24) = (   0.1017019   0.3344979   0.5594858  )
        25        O      tau(  25) = (   0.0970074   0.5770714   0.4346455  )
        26        O      tau(  26) = (   0.3534166   1.0203677   0.1270707  )
        27        O      tau(  27) = (   0.3778024   0.4172402   0.4261028  )
        28        O      tau(  28) = (   0.1256171   0.0954063   0.1372153  )
        29        O      tau(  29) = (   0.1232168   0.6482422   0.1385172  )
        30        O      tau(  30) = (   0.4028533   0.4897833   0.1289718  )
        31        O      tau(  31) = (   0.1511050   0.0405554   0.4369979  )
        32        O      tau(  32) = (   0.3776556   0.9624293   0.4288159  )
        33        P      tau(  33) = (   0.7084770   0.9682119   0.4394551  )
        34        P      tau(  34) = (   0.9603154   0.6409658   0.1292469  )
        35        P      tau(  35) = (   0.7875734   0.0899770   0.1274098  )
        36        P      tau(  36) = (   0.5405152   0.4272620   0.4364455  )
        37        O      tau(  37) = (   0.6323583   0.8977630   0.3036670  )
        38        O      tau(  38) = (   0.8809646   0.7091921   0.2627111  )
        39        O      tau(  39) = (   0.8631054   0.1587239   0.2636487  )
        40        O      tau(  40) = (   0.6202581   0.3578380   0.3034239  )
        41        O      tau(  41) = (   0.6499160   0.8772596   0.5630912  )
        42        O      tau(  42) = (   0.8990171   0.7283464   0.0054426  )
        43        O      tau(  43) = (   0.8448361   0.1806154   0.0030658  )
        44        O      tau(  44) = (   0.6023096   0.3392612   0.5600469  )
        45        O      tau(  45) = (   0.5960222   0.5826131   0.4346340  )
        46        O      tau(  46) = (   0.8515023   1.0184215   0.1281632  )
        47        O      tau(  47) = (   0.8779640   0.4148900   0.4260983  )
        48        O      tau(  48) = (   0.6251159   0.0957170   0.1376895  )
        49        O      tau(  49) = (   0.6237654   0.6481585   0.1378370  )
        50        O      tau(  50) = (   0.9038046   0.4863338   0.1307354  )
        51        O      tau(  51) = (   0.6458737   0.0402574   0.4377979  )
        52        O      tau(  52) = (   0.8712434   0.9635255   0.4285638  )
        53        Ni     tau(  53) = (   0.2420320   0.8169913   0.7491577  )
        54        Ni     tau(  54) = (   0.4893084   0.7542727   1.0713530  )
        55        Mn     tau(  55) = (   0.0085152   0.2729728   0.7435093  )
        56        Ni     tau(  56) = (   0.2558246   0.2079345   1.0692209  )
        57        Ni     tau(  57) = (   0.9991959   1.0516583   0.9110204  )
        58        Ni     tau(  58) = (   0.2490231   0.5149840   0.9098064  )
        59        Ni     tau(  59) = (   0.7373131   0.8159965   0.7500205  )
        60        Mn     tau(  60) = (   0.9859093   0.7511625   1.0766756  )
        61        Mn     tau(  61) = (   0.5085552   0.2755447   0.7433473  )
        62        Ni     tau(  62) = (   0.7532989   0.2074622   1.0697379  )
        63        Ni     tau(  63) = (   0.4981517   1.0523018   0.9097191  )
        64        Ni     tau(  64) = (   0.7469109   0.5147379   0.9108977  )
        65        P      tau(  65) = (   0.2119924   0.9497675   1.0657246  )
        66        P      tau(  66) = (   0.4579509   0.6252695   0.7539915  )
        67        P      tau(  67) = (   0.2855349   0.0724244   0.7540333  )
        68        P      tau(  68) = (   0.0381112   0.4032615   1.0629541  )
        69        O      tau(  69) = (   0.1352995   0.8818598   0.9297801  )
        70        O      tau(  70) = (   0.3789570   0.6924463   0.8899191  )
        71        O      tau(  71) = (   0.3610496   0.1419327   0.8898998  )
        72        O      tau(  72) = (   0.1179700   0.3356534   0.9295800  )
        73        O      tau(  73) = (   0.1524325   0.8608343   1.1899741  )
        74        O      tau(  74) = (   0.3994952   0.7128748   0.6285166  )
        75        O      tau(  75) = (   0.3426976   0.1634744   0.6300917  )
        76        O      tau(  76) = (   0.0989151   0.3155758   1.1869439  )
        77        O      tau(  77) = (   0.0942206   0.5581494   1.0621036  )
        78        O      tau(  78) = (   0.3506297   1.0014456   0.7545288  )
        79        O      tau(  79) = (   0.3750155   0.3983181   1.0535609  )
        80        O      tau(  80) = (   0.1228303   0.0764842   0.7646734  )
        81        O      tau(  81) = (   0.1204299   0.6293201   0.7659753  )
        82        O      tau(  82) = (   0.4000664   0.4708612   0.7564299  )
        83        O      tau(  83) = (   0.1483182   0.0216333   1.0644560  )
        84        O      tau(  84) = (   0.3748687   0.9435072   1.0562740  )
        85        P      tau(  85) = (   0.7056901   0.9492898   1.0669132  )
        86        P      tau(  86) = (   0.9575286   0.6220438   0.7567050  )
        87        P      tau(  87) = (   0.7847866   0.0710549   0.7548679  )
        88        P      tau(  88) = (   0.5377283   0.4083400   1.0639036  )
        89        O      tau(  89) = (   0.6295714   0.8788409   0.9311251  )
        90        O      tau(  90) = (   0.8781778   0.6902700   0.8901692  )
        91        O      tau(  91) = (   0.8603186   0.1398018   0.8911068  )
        92        O      tau(  92) = (   0.6174712   0.3389159   0.9308820  )
        93        O      tau(  93) = (   0.6471291   0.8583376   1.1905493  )
        94        O      tau(  94) = (   0.8962302   0.7094244   0.6329007  )
        95        O      tau(  95) = (   0.8420493   0.1616933   0.6305239  )
        96        O      tau(  96) = (   0.5995227   0.3203391   1.1875050  )
        97        O      tau(  97) = (   0.5932354   0.5636910   1.0620921  )
        98        O      tau(  98) = (   0.8487155   0.9994995   0.7556213  )
        99        O      tau(  99) = (   0.8751772   0.3959680   1.0535564  )
       100        O      tau( 100) = (   0.6223291   0.0767949   0.7651476  )
       101        O      tau( 101) = (   0.6209785   0.6292365   0.7652951  )
       102        O      tau( 102) = (   0.9010178   0.4674118   0.7581935  )
       103        O      tau( 103) = (   0.6430869   0.0213354   1.0652560  )
       104        O      tau( 104) = (   0.8684566   0.9446034   1.0560219  )
       105        Ni     tau( 105) = (   0.2384978   0.7977595   1.3788694  )
       106        Ni     tau( 106) = (   0.4977364   0.7374783   1.6806186  )
       107        Mn     tau( 107) = (   0.0074064   0.2578144   1.3744489  )
       108        Ni     tau( 108) = (   0.2437957   0.1954136   1.6827143  )
       109        Ni     tau( 109) = (   1.0006497   1.0326434   1.5404833  )
       110        Ni     tau( 110) = (   0.2439992   0.4967508   1.5401191  )
       111        Ni     tau( 111) = (   0.7374428   0.7984296   1.3777262  )
       112        Mn     tau( 112) = (   0.9966803   0.7366577   1.7115429  )
       113        Mn     tau( 113) = (   0.5076556   0.2589984   1.3732312  )
       114        Ni     tau( 114) = (   0.7423887   0.1965493   1.6832389  )
       115        Ni     tau( 115) = (   0.4997824   1.0361881   1.5381360  )
       116        Ni     tau( 116) = (   0.7435623   0.4992904   1.5465492  )
       117        P      tau( 117) = (   0.2144549   0.9278899   1.6995636  )
       118        P      tau( 118) = (   0.4551955   0.6050722   1.3802014  )
       119        P      tau( 119) = (   0.2849604   0.0539795   1.3804579  )
       120        P      tau( 120) = (   0.0337229   0.3834112   1.7005366  )
       121        O      tau( 121) = (   0.1305203   0.8570033   1.5637456  )
       122        O      tau( 122) = (   0.3757482   0.6729749   1.5155776  )
       123        O      tau( 123) = (   0.3613724   0.1249247   1.5151439  )
       124        O      tau( 124) = (   0.1129169   0.3224918   1.5571838  )
       125        O      tau( 125) = (   0.1580226   0.8374540   1.8209462  )
       126        O      tau( 126) = (   0.3964371   0.6927973   1.2548158  )
       127        O      tau( 127) = (   0.3425460   0.1434071   1.2554580  )
       128        O      tau( 128) = (   0.0951476   0.2873483   1.8142913  )
       129        O      tau( 129) = (   0.0915744   0.5399361   1.6925782  )
       130        O      tau( 130) = (   0.3476648   0.9823179   1.3836286  )
       131        O      tau( 131) = (   0.3686904   0.3789818   1.6819772  )
       132        O      tau( 132) = (   0.1222508   0.0604368   1.3930584  )
       133        O      tau( 133) = (   0.1179118   0.6106013   1.3948723  )
       134        O      tau( 134) = (   0.3966368   0.4509867   1.3826334  )
       135        O      tau( 135) = (   0.1546825   0.0015702   1.6934648  )
       136        O      tau( 136) = (   0.3773232   0.9216783   1.6812421  )
       137        P      tau( 137) = (   0.7088550   0.9300633   1.6956615  )
       138        P      tau( 138) = (   0.9546391   0.6039920   1.3882016  )
       139        P      tau( 139) = (   0.7861313   0.0539690   1.3808971  )
       140        P      tau( 140) = (   0.5320716   0.3863344   1.7004805  )
       141        O      tau( 141) = (   0.6333026   0.8679629   1.5520824  )
       142        O      tau( 142) = (   0.8777710   0.6729500   1.5224461  )
       143        O      tau( 143) = (   0.8617708   0.1227652   1.5169485  )
       144        O      tau( 144) = (   0.6127642   0.3270143   1.5579163  )
       145        O      tau( 145) = (   0.6483538   0.8329242   1.8103769  )
       146        O      tau( 146) = (   0.8943529   0.6911253   1.2630188  )
       147        O      tau( 147) = (   0.8429851   0.1446062   1.2562262  )
       148        O      tau( 148) = (   0.5929067   0.2897237   1.8141651  )
       149        O      tau( 149) = (   0.5848154   0.5442225   1.6989682  )
       150        O      tau( 150) = (   0.8496775   0.9825043   1.3815819  )
       151        O      tau( 151) = (   0.8705103   0.3772225   1.6832178  )
       152        O      tau( 152) = (   0.6234977   0.0619490   1.3925952  )
       153        O      tau( 153) = (   0.6178427   0.6111075   1.3950142  )
       154        O      tau( 154) = (   0.8977226   0.4494998   1.3884974  )
       155        O      tau( 155) = (   0.6505054   0.0039779   1.6957510  )
       156        O      tau( 156) = (   0.8731762   0.9239488   1.6850968  )
       157        O      tau( 157) = (   0.8871652   0.6670336   1.8454411  )
       158        H      tau( 158) = (   0.7930065   0.7158124   1.8550683  )

     -------------------------------------------------
     Parameters for Dispersion (Grimme-D2) Correction:
     -------------------------------------------------
       atom      VdW radius       C_6     

        Ni         2.952        374.666
        Mn         2.952        374.666
        P          3.222        271.980
        O          2.536         24.284
        H          1.892          4.857

     number of k points=     1  Gaussian smearing, width (Ry)=  0.0100
                       cart. coord. in units 2pi/alat
        k(    1) = (   0.0000000   0.0000000   0.0000000), wk =   1.0000000

     Dense  grid:  1979026 G-vectors     FFT dimensions: ( 128, 144, 450)

     Smooth grid:   500628 G-vectors     FFT dimensions: (  81,  90, 288)

     Estimated max dynamical RAM per process >     333.40 MB

     Estimated total dynamical RAM >      20.84 GB

     Check: negative core charge=   -0.000002
     Generating pointlists ...
     new r_m :   0.0878 (alat units)  1.5669 (a.u.) for type    1
     new r_m :   0.0769 (alat units)  1.3732 (a.u.) for type    2
     new r_m :   0.0664 (alat units)  1.1861 (a.u.) for type    3
     new r_m :   0.0439 (alat units)  0.7842 (a.u.) for type    4
     new r_m :   0.0439 (alat units)  0.7842 (a.u.) for type    5

     Initial potential from superposition of free atoms

     starting charge    1107.8886, renormalised to    1108.0000

     negative rho (up, down):  1.549E-03 4.674E-04
 
     Adding external electric field

     Computed dipole along edir(3) : 
        Dipole                1.6140 Ry au,          4.1023 Debye
        Dipole field          0.0010 Ry au, 
 
        Potential amp.       -0.1059 Ry
        Total length         54.7057 bohr
 
 
     Adding external electric field

     Computed dipole along edir(3) : 
        Dipole                1.6140 Ry au,          4.1023 Debye
        Dipole field          0.0010 Ry au, 
 
        Potential amp.       -0.1059 Ry
        Total length         54.7057 bohr
 
     Starting wfcs are  818 randomized atomic wfcs

     total cpu time spent up to now is       15.9 secs

     Self-consistent Calculation

     iteration #  1     ecut=    50.00 Ry     beta= 0.10
     Davidson diagonalization with overlap
     ethr =  1.00E-02,  avg # of iterations =  5.5

     negative rho (up, down):  4.313E-01 9.047E-07
 
     Adding external electric field

     Computed dipole along edir(3) : 
        Dipole               -3.7273 Ry au,         -9.4740 Debye
        Dipole field         -0.0022 Ry au, 
 
        Potential amp.        0.2445 Ry
        Total length         54.7057 bohr
 
 
     Adding external electric field

     Computed dipole along edir(3) : 
        Dipole               -3.7273 Ry au,         -9.4740 Debye
        Dipole field         -0.0022 Ry au, 
 
        Potential amp.        0.2445 Ry
        Total length         54.7057 bohr
 

     total cpu time spent up to now is       58.3 secs

     total energy              =   -7858.09557977 Ry
     estimated scf accuracy    <     745.06783915 Ry

     total magnetization       =   222.00 Bohr mag/cell
     absolute magnetization    =   319.00 Bohr mag/cell

     iteration #  2     ecut=    50.00 Ry     beta= 0.10
     Davidson diagonalization with overlap
     ethr =  1.00E-02,  avg # of iterations =  2.0

     negative rho (up, down):  4.051E-01 6.325E-07
 
     Adding external electric field

     Computed dipole along edir(3) : 
        Dipole               -2.5537 Ry au,         -6.4908 Debye
        Dipole field         -0.0015 Ry au, 
 
        Potential amp.        0.1675 Ry
        Total length         54.7057 bohr
 
 
     Adding external electric field

     Computed dipole along edir(3) : 
        Dipole               -2.5537 Ry au,         -6.4908 Debye
        Dipole field         -0.0015 Ry au, 
 
        Potential amp.        0.1675 Ry
        Total length         54.7057 bohr
 

     total cpu time spent up to now is       83.2 secs

     total energy              =   -7939.66216520 Ry
     estimated scf accuracy    <     201.03707958 Ry

     total magnetization       =   165.82 Bohr mag/cell
     absolute magnetization    =   212.82 Bohr mag/cell

     iteration #  3     ecut=    50.00 Ry     beta= 0.10
     Davidson diagonalization with overlap
     ethr =  1.00E-02,  avg # of iterations =  1.0

     negative rho (up, down):  3.616E-01 5.497E-07
 
     Adding external electric field

     Computed dipole along edir(3) : 
        Dipole               -2.2071 Ry au,         -5.6099 Debye
        Dipole field         -0.0013 Ry au, 
 
        Potential amp.        0.1448 Ry
        Total length         54.7057 bohr
 
 
     Adding external electric field

     Computed dipole along edir(3) : 
        Dipole               -2.2071 Ry au,         -5.6099 Debye
        Dipole field         -0.0013 Ry au, 
 
        Potential amp.        0.1448 Ry
        Total length         54.7057 bohr
 

     total cpu time spent up to now is      101.9 secs

     total energy              =   -7969.17586598 Ry
     estimated scf accuracy    <     104.60117582 Ry

     total magnetization       =   142.84 Bohr mag/cell
     absolute magnetization    =   192.04 Bohr mag/cell

     iteration #  4     ecut=    50.00 Ry     beta= 0.10
     Davidson diagonalization with overlap
     ethr =  9.44E-03,  avg # of iterations =  1.0

     negative rho (up, down):  2.870E-01 8.566E-08
 
     Adding external electric field

     Computed dipole along edir(3) : 
        Dipole               -2.0336 Ry au,         -5.1689 Debye
        Dipole field         -0.0012 Ry au, 
 
        Potential amp.        0.1334 Ry
        Total length         54.7057 bohr
 
 
     Adding external electric field

     Computed dipole along edir(3) : 
        Dipole               -2.0336 Ry au,         -5.1689 Debye
        Dipole field         -0.0012 Ry au, 
 
        Potential amp.        0.1334 Ry
        Total length         54.7057 bohr
 

     total cpu time spent up to now is      120.2 secs

     total energy              =   -8001.45056385 Ry
     estimated scf accuracy    <      84.80372648 Ry

     total magnetization       =   127.79 Bohr mag/cell
     absolute magnetization    =   178.33 Bohr mag/cell

     iteration #  5     ecut=    50.00 Ry     beta= 0.10
     Davidson diagonalization with overlap
     ethr =  7.65E-03,  avg # of iterations =  1.0

     negative rho (up, down):  5.070E-02 5.924E-09
 
     Adding external electric field

     Computed dipole along edir(3) : 
        Dipole               -1.5939 Ry au,         -4.0512 Debye
        Dipole field         -0.0010 Ry au, 
 
        Potential amp.        0.1045 Ry
        Total length         54.7057 bohr
 
 
     Adding external electric field

     Computed dipole along edir(3) : 
        Dipole               -1.5939 Ry au,         -4.0512 Debye
        Dipole field         -0.0010 Ry au, 
 
        Potential amp.        0.1045 Ry
        Total length         54.7057 bohr
 

     total cpu time spent up to now is      139.9 secs

     total energy              =   -8061.18918228 Ry
     estimated scf accuracy    <      68.42289031 Ry

     total magnetization       =   106.28 Bohr mag/cell
     absolute magnetization    =   160.09 Bohr mag/cell

     iteration #  6     ecut=    50.00 Ry     beta= 0.10
     Davidson diagonalization with overlap
     ethr =  6.18E-03,  avg # of iterations =  1.0

     negative rho (up, down):  8.685E-04 1.696E-03
 
     Adding external electric field

     Computed dipole along edir(3) : 
        Dipole               -1.2394 Ry au,         -3.1502 Debye
        Dipole field         -0.0007 Ry au, 
 
        Potential amp.        0.0813 Ry
        Total length         54.7057 bohr
 
 
     Adding external electric field

     Computed dipole along edir(3) : 
        Dipole               -1.2394 Ry au,         -3.1502 Debye
        Dipole field         -0.0007 Ry au, 
 
        Potential amp.        0.0813 Ry
        Total length         54.7057 bohr
 

     total cpu time spent up to now is      160.9 secs

     total energy              =   -8075.98628290 Ry
     estimated scf accuracy    <      16.99690611 Ry

     total magnetization       =   100.00 Bohr mag/cell
     absolute magnetization    =   133.80 Bohr mag/cell

     iteration #  7     ecut=    50.00 Ry     beta= 0.10
     Davidson diagonalization with overlap
     ethr =  1.53E-03,  avg # of iterations =  6.5

     negative rho (up, down):  8.389E-04 1.640E-03
 
     Adding external electric field

     Computed dipole along edir(3) : 
        Dipole               -1.2399 Ry au,         -3.1516 Debye
        Dipole field         -0.0007 Ry au, 
 
        Potential amp.        0.0813 Ry
        Total length         54.7057 bohr
 
 
     Adding external electric field

     Computed dipole along edir(3) : 
        Dipole               -1.2399 Ry au,         -3.1516 Debye
        Dipole field         -0.0007 Ry au, 
 
        Potential amp.        0.0813 Ry
        Total length         54.7057 bohr
 

     total cpu time spent up to now is      195.0 secs

     total energy              =   -8078.97740325 Ry
     estimated scf accuracy    <      33.51676726 Ry

     total magnetization       =    65.17 Bohr mag/cell
     absolute magnetization    =    83.35 Bohr mag/cell

     iteration #  8     ecut=    50.00 Ry     beta= 0.10
     Davidson diagonalization with overlap
     ethr =  1.53E-03,  avg # of iterations =  1.0

     negative rho (up, down):  8.414E-04 1.619E-03
 
     Adding external electric field

     Computed dipole along edir(3) : 
        Dipole               -1.2346 Ry au,         -3.1381 Debye
        Dipole field         -0.0007 Ry au, 
 
        Potential amp.        0.0810 Ry
        Total length         54.7057 bohr
 
 
     Adding external electric field

     Computed dipole along edir(3) : 
        Dipole               -1.2346 Ry au,         -3.1381 Debye
        Dipole field         -0.0007 Ry au, 
 
        Potential amp.        0.0810 Ry
        Total length         54.7057 bohr
 

     total cpu time spent up to now is      213.8 secs

     total energy              =   -8079.03659116 Ry
     estimated scf accuracy    <      32.57544363 Ry

     total magnetization       =    65.64 Bohr mag/cell
     absolute magnetization    =    83.31 Bohr mag/cell

     iteration #  9     ecut=    50.00 Ry     beta= 0.10
     Davidson diagonalization with overlap
     ethr =  1.53E-03,  avg # of iterations =  1.0

     negative rho (up, down):  8.332E-04 1.557E-03
 
     Adding external electric field

     Computed dipole along edir(3) : 
        Dipole               -1.2735 Ry au,         -3.2370 Debye
        Dipole field         -0.0008 Ry au, 
 
        Potential amp.        0.0835 Ry
        Total length         54.7057 bohr
 
 
     Adding external electric field

     Computed dipole along edir(3) : 
        Dipole               -1.2735 Ry au,         -3.2370 Debye
        Dipole field         -0.0008 Ry au, 
 
        Potential amp.        0.0835 Ry
        Total length         54.7057 bohr
 

     total cpu time spent up to now is      232.7 secs

     total energy              =   -8079.13512655 Ry
     estimated scf accuracy    <      32.14458541 Ry

     total magnetization       =    65.82 Bohr mag/cell
     absolute magnetization    =    83.13 Bohr mag/cell

     iteration # 10     ecut=    50.00 Ry     beta= 0.10
     Davidson diagonalization with overlap
     ethr =  1.53E-03,  avg # of iterations =  1.0

     negative rho (up, down):  2.741E-03 5.142E-03
 
     Adding external electric field

     Computed dipole along edir(3) : 
        Dipole               -1.0488 Ry au,         -2.6659 Debye
        Dipole field         -0.0006 Ry au, 
 
        Potential amp.        0.0688 Ry
        Total length         54.7057 bohr
 
 
     Adding external electric field

     Computed dipole along edir(3) : 
        Dipole               -1.0488 Ry au,         -2.6659 Debye
        Dipole field         -0.0006 Ry au, 
 
        Potential amp.        0.0688 Ry
        Total length         54.7057 bohr
 

     total cpu time spent up to now is      250.9 secs

     total energy              =   -8078.61050024 Ry
     estimated scf accuracy    <      34.37310229 Ry

     total magnetization       =    65.04 Bohr mag/cell
     absolute magnetization    =    82.43 Bohr mag/cell

     iteration # 11     ecut=    50.00 Ry     beta= 0.10
     Davidson diagonalization with overlap
     ethr =  1.53E-03,  avg # of iterations =  1.0

     negative rho (up, down):  2.255E-03 4.438E-03
 
     Adding external electric field

     Computed dipole along edir(3) : 
        Dipole               -1.0581 Ry au,         -2.6894 Debye
        Dipole field         -0.0006 Ry au, 
 
        Potential amp.        0.0694 Ry
        Total length         54.7057 bohr
 
 
     Adding external electric field

     Computed dipole along edir(3) : 
        Dipole               -1.0581 Ry au,         -2.6894 Debye
        Dipole field         -0.0006 Ry au, 
 
        Potential amp.        0.0694 Ry
        Total length         54.7057 bohr
 

     total cpu time spent up to now is      268.7 secs

     total energy              =   -8078.72846494 Ry
     estimated scf accuracy    <      22.04283266 Ry

     total magnetization       =    69.85 Bohr mag/cell
     absolute magnetization    =    84.48 Bohr mag/cell

     iteration # 12     ecut=    50.00 Ry     beta= 0.10
     Davidson diagonalization with overlap
     ethr =  1.53E-03,  avg # of iterations =  1.0

     negative rho (up, down):  1.444E-03 2.940E-03
 
     Adding external electric field

     Computed dipole along edir(3) : 
        Dipole               -1.0956 Ry au,         -2.7846 Debye
        Dipole field         -0.0007 Ry au, 
 
        Potential amp.        0.0719 Ry
        Total length         54.7057 bohr
 
 
     Adding external electric field

     Computed dipole along edir(3) : 
        Dipole               -1.0956 Ry au,         -2.7846 Debye
        Dipole field         -0.0007 Ry au, 
 
        Potential amp.        0.0719 Ry
        Total length         54.7057 bohr
 

     total cpu time spent up to now is      286.6 secs

     total energy              =   -8078.90311712 Ry
     estimated scf accuracy    <      23.01510110 Ry

     total magnetization       =    69.03 Bohr mag/cell
     absolute magnetization    =    83.67 Bohr mag/cell

     iteration # 13     ecut=    50.00 Ry     beta= 0.10
     Davidson diagonalization with overlap
     ethr =  1.53E-03,  avg # of iterations =  1.0

     negative rho (up, down):  1.240E-03 2.613E-03
 
     Adding external electric field

     Computed dipole along edir(3) : 
        Dipole               -1.1270 Ry au,         -2.8646 Debye
        Dipole field         -0.0007 Ry au, 
 
        Potential amp.        0.0739 Ry
        Total length         54.7057 bohr
 
 
     Adding external electric field

     Computed dipole along edir(3) : 
        Dipole               -1.1270 Ry au,         -2.8646 Debye
        Dipole field         -0.0007 Ry au, 
 
        Potential amp.        0.0739 Ry
        Total length         54.7057 bohr
 

     total cpu time spent up to now is      305.5 secs

     total energy              =   -8078.64227251 Ry
     estimated scf accuracy    <      27.44255080 Ry

     total magnetization       =    67.07 Bohr mag/cell
     absolute magnetization    =    82.41 Bohr mag/cell

     iteration # 14     ecut=    50.00 Ry     beta= 0.10
     Davidson diagonalization with overlap
     ethr =  1.53E-03,  avg # of iterations =  1.0

     negative rho (up, down):  2.699E-02 1.962E-02
 
     Adding external electric field

     Computed dipole along edir(3) : 
        Dipole               -0.8532 Ry au,         -2.1686 Debye
        Dipole field         -0.0005 Ry au, 
 
        Potential amp.        0.0560 Ry
        Total length         54.7057 bohr
 
 
     Adding external electric field

     Computed dipole along edir(3) : 
        Dipole               -0.8532 Ry au,         -2.1686 Debye
        Dipole field         -0.0005 Ry au, 
 
        Potential amp.        0.0560 Ry
        Total length         54.7057 bohr
 

     total cpu time spent up to now is      323.2 secs

     total energy              =   -8076.78682222 Ry
     estimated scf accuracy    <      21.97176140 Ry

     total magnetization       =    69.08 Bohr mag/cell
     absolute magnetization    =    83.07 Bohr mag/cell

     iteration # 15     ecut=    50.00 Ry     beta= 0.10
     Davidson diagonalization with overlap
     ethr =  1.53E-03,  avg # of iterations =  1.5

     negative rho (up, down):  2.071E-02 1.816E-02
 
     Adding external electric field

     Computed dipole along edir(3) : 
        Dipole               -0.8199 Ry au,         -2.0839 Debye
        Dipole field         -0.0005 Ry au, 
 
        Potential amp.        0.0538 Ry
        Total length         54.7057 bohr
 
 
     Adding external electric field

     Computed dipole along edir(3) : 
        Dipole               -0.8199 Ry au,         -2.0839 Debye
        Dipole field         -0.0005 Ry au, 
 
        Potential amp.        0.0538 Ry
        Total length         54.7057 bohr
 

     total cpu time spent up to now is      342.6 secs

     total energy              =   -8078.53146888 Ry
     estimated scf accuracy    <       2.03461153 Ry

     total magnetization       =    97.98 Bohr mag/cell
     absolute magnetization    =   105.00 Bohr mag/cell

     iteration # 16     ecut=    50.00 Ry     beta= 0.10
     Davidson diagonalization with overlap
     ethr =  1.84E-04,  avg # of iterations =  6.5

     negative rho (up, down):  6.131E-03 1.150E-02
 
     Adding external electric field

     Computed dipole along edir(3) : 
        Dipole               -0.7497 Ry au,         -1.9056 Debye
        Dipole field         -0.0004 Ry au, 
 
        Potential amp.        0.0492 Ry
        Total length         54.7057 bohr
 
 
     Adding external electric field

     Computed dipole along edir(3) : 
        Dipole               -0.7497 Ry au,         -1.9056 Debye
        Dipole field         -0.0004 Ry au, 
 
        Potential amp.        0.0492 Ry
        Total length         54.7057 bohr
 

     total cpu time spent up to now is      368.0 secs

     total energy              =   -8078.28489743 Ry
     estimated scf accuracy    <       1.59314035 Ry

     total magnetization       =    97.87 Bohr mag/cell
     absolute magnetization    =   104.40 Bohr mag/cell

     iteration # 17     ecut=    50.00 Ry     beta= 0.10
     Davidson diagonalization with overlap
     ethr =  1.44E-04,  avg # of iterations =  1.5

     negative rho (up, down):  5.710E-03 1.156E-02
 
     Adding external electric field

     Computed dipole along edir(3) : 
        Dipole               -0.7448 Ry au,         -1.8930 Debye
        Dipole field         -0.0004 Ry au, 
 
        Potential amp.        0.0488 Ry
        Total length         54.7057 bohr
 
 
     Adding external electric field

     Computed dipole along edir(3) : 
        Dipole               -0.7448 Ry au,         -1.8930 Debye
        Dipole field         -0.0004 Ry au, 
 
        Potential amp.        0.0488 Ry
        Total length         54.7057 bohr
 

     total cpu time spent up to now is      387.2 secs

     total energy              =   -8078.37075007 Ry
     estimated scf accuracy    <       3.22432896 Ry

     total magnetization       =    91.42 Bohr mag/cell
     absolute magnetization    =    97.21 Bohr mag/cell

     iteration # 18     ecut=    50.00 Ry     beta= 0.10
     Davidson diagonalization with overlap
     ethr =  1.44E-04,  avg # of iterations =  1.0

     negative rho (up, down):  7.583E-03 1.295E-02
 
     Adding external electric field

     Computed dipole along edir(3) : 
        Dipole               -0.7485 Ry au,         -1.9024 Debye
        Dipole field         -0.0004 Ry au, 
 
        Potential amp.        0.0491 Ry
        Total length         54.7057 bohr
 
 
     Adding external electric field

     Computed dipole along edir(3) : 
        Dipole               -0.7485 Ry au,         -1.9024 Debye
        Dipole field         -0.0004 Ry au, 
 
        Potential amp.        0.0491 Ry
        Total length         54.7057 bohr
 

     total cpu time spent up to now is      404.5 secs

     total energy              =   -8078.41004670 Ry
     estimated scf accuracy    <       3.18455984 Ry

     total magnetization       =    91.15 Bohr mag/cell
     absolute magnetization    =    96.59 Bohr mag/cell

     iteration # 19     ecut=    50.00 Ry     beta= 0.10
     Davidson diagonalization with overlap
     ethr =  1.44E-04,  avg # of iterations =  1.5

     negative rho (up, down):  5.853E-03 9.802E-03
 
     Adding external electric field

     Computed dipole along edir(3) : 
        Dipole               -0.7532 Ry au,         -1.9145 Debye
        Dipole field         -0.0005 Ry au, 
 
        Potential amp.        0.0494 Ry
        Total length         54.7057 bohr
 
 
     Adding external electric field

     Computed dipole along edir(3) : 
        Dipole               -0.7532 Ry au,         -1.9145 Debye
        Dipole field         -0.0005 Ry au, 
 
        Potential amp.        0.0494 Ry
        Total length         54.7057 bohr
 

     total cpu time spent up to now is      424.1 secs

     total energy              =   -8078.49419499 Ry
     estimated scf accuracy    <       0.88530529 Ry

     total magnetization       =    95.42 Bohr mag/cell
     absolute magnetization    =    99.68 Bohr mag/cell

     iteration # 20     ecut=    50.00 Ry     beta= 0.10
     Davidson diagonalization with overlap
     ethr =  7.99E-05,  avg # of iterations = 10.5

     negative rho (up, down):  2.781E-03 3.914E-03
 
     Adding external electric field

     Computed dipole along edir(3) : 
        Dipole               -0.7661 Ry au,         -1.9471 Debye
        Dipole field         -0.0005 Ry au, 
 
        Potential amp.        0.0502 Ry
        Total length         54.7057 bohr
 
 
     Adding external electric field

     Computed dipole along edir(3) : 
        Dipole               -0.7661 Ry au,         -1.9471 Debye
        Dipole field         -0.0005 Ry au, 
 
        Potential amp.        0.0502 Ry
        Total length         54.7057 bohr
 

     total cpu time spent up to now is      451.2 secs

     total energy              =   -8078.56722353 Ry
     estimated scf accuracy    <       0.60539803 Ry

     total magnetization       =    96.72 Bohr mag/cell
     absolute magnetization    =    99.96 Bohr mag/cell

     iteration # 21     ecut=    50.00 Ry     beta= 0.10
     Davidson diagonalization with overlap
     ethr =  5.46E-05,  avg # of iterations =  7.0

     negative rho (up, down):  2.341E-03 3.376E-03
 
     Adding external electric field

     Computed dipole along edir(3) : 
        Dipole               -0.7641 Ry au,         -1.9420 Debye
        Dipole field         -0.0005 Ry au, 
 
        Potential amp.        0.0501 Ry
        Total length         54.7057 bohr
 
 
     Adding external electric field

     Computed dipole along edir(3) : 
        Dipole               -0.7641 Ry au,         -1.9420 Debye
        Dipole field         -0.0005 Ry au, 
 
        Potential amp.        0.0501 Ry
        Total length         54.7057 bohr
 

     total cpu time spent up to now is      477.0 secs

     total energy              =   -8078.57941668 Ry
     estimated scf accuracy    <       0.51879814 Ry

     total magnetization       =    95.98 Bohr mag/cell
     absolute magnetization    =    98.68 Bohr mag/cell

     iteration # 22     ecut=    50.00 Ry     beta= 0.10
     Davidson diagonalization with overlap
     ethr =  4.68E-05,  avg # of iterations =  1.5

     negative rho (up, down):  1.246E-03 1.992E-03
 
     Adding external electric field

     Computed dipole along edir(3) : 
        Dipole               -0.7796 Ry au,         -1.9817 Debye
        Dipole field         -0.0005 Ry au, 
 
        Potential amp.        0.0511 Ry
        Total length         54.7057 bohr
 
 
     Adding external electric field

     Computed dipole along edir(3) : 
        Dipole               -0.7796 Ry au,         -1.9817 Debye
        Dipole field         -0.0005 Ry au, 
 
        Potential amp.        0.0511 Ry
        Total length         54.7057 bohr
 

     total cpu time spent up to now is      496.2 secs

     total energy              =   -8078.58451050 Ry
     estimated scf accuracy    <       0.52926430 Ry

     total magnetization       =    95.61 Bohr mag/cell
     absolute magnetization    =    98.36 Bohr mag/cell

     iteration # 23     ecut=    50.00 Ry     beta= 0.10
     Davidson diagonalization with overlap
     ethr =  4.68E-05,  avg # of iterations =  2.0

     negative rho (up, down):  1.036E-03 1.273E-03
 
     Adding external electric field

     Computed dipole along edir(3) : 
        Dipole               -0.8335 Ry au,         -2.1186 Debye
        Dipole field         -0.0005 Ry au, 
 
        Potential amp.        0.0547 Ry
        Total length         54.7057 bohr
 
 
     Adding external electric field

     Computed dipole along edir(3) : 
        Dipole               -0.8335 Ry au,         -2.1186 Debye
        Dipole field         -0.0005 Ry au, 
 
        Potential amp.        0.0547 Ry
        Total length         54.7057 bohr
 

     total cpu time spent up to now is      516.5 secs

     total energy              =   -8078.60318378 Ry
     estimated scf accuracy    <       0.67084894 Ry

     total magnetization       =    94.44 Bohr mag/cell
     absolute magnetization    =    97.10 Bohr mag/cell

     iteration # 24     ecut=    50.00 Ry     beta= 0.10
     Davidson diagonalization with overlap
     ethr =  4.68E-05,  avg # of iterations = 12.5

     negative rho (up, down):  9.683E-04 6.567E-04
 
     Adding external electric field

     Computed dipole along edir(3) : 
        Dipole               -0.8582 Ry au,         -2.1814 Debye
        Dipole field         -0.0005 Ry au, 
 
        Potential amp.        0.0563 Ry
        Total length         54.7057 bohr
 
 
     Adding external electric field

     Computed dipole along edir(3) : 
        Dipole               -0.8582 Ry au,         -2.1814 Debye
        Dipole field         -0.0005 Ry au, 
 
        Potential amp.        0.0563 Ry
        Total length         54.7057 bohr
 

     total cpu time spent up to now is      554.7 secs

     total energy              =   -8078.61152525 Ry
     estimated scf accuracy    <       0.23681944 Ry

     total magnetization       =    95.71 Bohr mag/cell
     absolute magnetization    =    97.58 Bohr mag/cell

     iteration # 25     ecut=    50.00 Ry     beta= 0.10
     Davidson diagonalization with overlap
     ethr =  2.14E-05,  avg # of iterations =  2.5

     negative rho (up, down):  8.999E-04 4.337E-04
 
     Adding external electric field

     Computed dipole along edir(3) : 
        Dipole               -0.8575 Ry au,         -2.1794 Debye
        Dipole field         -0.0005 Ry au, 
 
        Potential amp.        0.0562 Ry
        Total length         54.7057 bohr
 
 
     Adding external electric field

     Computed dipole along edir(3) : 
        Dipole               -0.8575 Ry au,         -2.1794 Debye
        Dipole field         -0.0005 Ry au, 
 
        Potential amp.        0.0562 Ry
        Total length         54.7057 bohr
 

     total cpu time spent up to now is      575.5 secs

     total energy              =   -8078.60867633 Ry
     estimated scf accuracy    <       0.11876283 Ry

     total magnetization       =    96.20 Bohr mag/cell
     absolute magnetization    =    97.72 Bohr mag/cell

     iteration # 26     ecut=    50.00 Ry     beta= 0.10
     Davidson diagonalization with overlap
     c_bands:  5 eigenvalues not converged
     c_bands:  4 eigenvalues not converged
     ethr =  1.07E-05,  avg # of iterations = 20.0

     negative rho (up, down):  7.411E-04 3.144E-04
 
     Adding external electric field

     Computed dipole along edir(3) : 
        Dipole               -0.8472 Ry au,         -2.1533 Debye
        Dipole field         -0.0005 Ry au, 
 
        Potential amp.        0.0556 Ry
        Total length         54.7057 bohr
 
 
     Adding external electric field

     Computed dipole along edir(3) : 
        Dipole               -0.8472 Ry au,         -2.1533 Debye
        Dipole field         -0.0005 Ry au, 
 
        Potential amp.        0.0556 Ry
        Total length         54.7057 bohr
 

     total cpu time spent up to now is      620.5 secs

     total energy              =   -8078.60514389 Ry
     estimated scf accuracy    <       0.06741874 Ry

     total magnetization       =    96.32 Bohr mag/cell
     absolute magnetization    =    97.67 Bohr mag/cell

     iteration # 27     ecut=    50.00 Ry     beta= 0.10
     Davidson diagonalization with overlap
     ethr =  6.08E-06,  avg # of iterations =  3.0

     negative rho (up, down):  4.480E-04 3.751E-04
 
     Adding external electric field

     Computed dipole along edir(3) : 
        Dipole               -0.8342 Ry au,         -2.1203 Debye
        Dipole field         -0.0005 Ry au, 
 
        Potential amp.        0.0547 Ry
        Total length         54.7057 bohr
 
 
     Adding external electric field

     Computed dipole along edir(3) : 
        Dipole               -0.8342 Ry au,         -2.1203 Debye
        Dipole field         -0.0005 Ry au, 
 
        Potential amp.        0.0547 Ry
        Total length         54.7057 bohr
 

     total cpu time spent up to now is      643.2 secs

     total energy              =   -8078.60434437 Ry
     estimated scf accuracy    <       0.03685793 Ry

     total magnetization       =    96.30 Bohr mag/cell
     absolute magnetization    =    97.52 Bohr mag/cell

     iteration # 28     ecut=    50.00 Ry     beta= 0.10
     Davidson diagonalization with overlap
     ethr =  3.33E-06,  avg # of iterations =  3.0

     negative rho (up, down):  2.509E-04 1.940E-04
 
     Adding external electric field

     Computed dipole along edir(3) : 
        Dipole               -0.8298 Ry au,         -2.1091 Debye
        Dipole field         -0.0005 Ry au, 
 
        Potential amp.        0.0544 Ry
        Total length         54.7057 bohr
 
 
     Adding external electric field

     Computed dipole along edir(3) : 
        Dipole               -0.8298 Ry au,         -2.1091 Debye
        Dipole field         -0.0005 Ry au, 
 
        Potential amp.        0.0544 Ry
        Total length         54.7057 bohr
 

     total cpu time spent up to now is      664.5 secs

     total energy              =   -8078.60545154 Ry
     estimated scf accuracy    <       0.02312627 Ry

     total magnetization       =    96.21 Bohr mag/cell
     absolute magnetization    =    97.36 Bohr mag/cell

     iteration # 29     ecut=    50.00 Ry     beta= 0.10
     Davidson diagonalization with overlap
     c_bands:  1 eigenvalues not converged
     ethr =  2.09E-06,  avg # of iterations = 11.0

     negative rho (up, down):  8.421E-05 9.591E-05
 
     Adding external electric field

     Computed dipole along edir(3) : 
        Dipole               -0.8097 Ry au,         -2.0581 Debye
        Dipole field         -0.0005 Ry au, 
 
        Potential amp.        0.0531 Ry
        Total length         54.7057 bohr
 
 
     Adding external electric field

     Computed dipole along edir(3) : 
        Dipole               -0.8097 Ry au,         -2.0581 Debye
        Dipole field         -0.0005 Ry au, 
 
        Potential amp.        0.0531 Ry
        Total length         54.7057 bohr
 

     total cpu time spent up to now is      691.9 secs

     total energy              =   -8078.60667348 Ry
     estimated scf accuracy    <       0.01857539 Ry

     total magnetization       =    95.95 Bohr mag/cell
     absolute magnetization    =    97.13 Bohr mag/cell

     iteration # 30     ecut=    50.00 Ry     beta= 0.10
     Davidson diagonalization with overlap
     ethr =  1.68E-06,  avg # of iterations =  9.0

     negative rho (up, down):  1.051E-04 1.048E-04
 
     Adding external electric field

     Computed dipole along edir(3) : 
        Dipole               -0.8063 Ry au,         -2.0494 Debye
        Dipole field         -0.0005 Ry au, 
 
        Potential amp.        0.0529 Ry
        Total length         54.7057 bohr
 
 
     Adding external electric field

     Computed dipole along edir(3) : 
        Dipole               -0.8063 Ry au,         -2.0494 Debye
        Dipole field         -0.0005 Ry au, 
 
        Potential amp.        0.0529 Ry
        Total length         54.7057 bohr
 

     total cpu time spent up to now is      718.0 secs

     total energy              =   -8078.60724475 Ry
     estimated scf accuracy    <       0.02419810 Ry

     total magnetization       =    96.04 Bohr mag/cell
     absolute magnetization    =    97.31 Bohr mag/cell

     iteration # 31     ecut=    50.00 Ry     beta= 0.10
     Davidson diagonalization with overlap
     ethr =  1.68E-06,  avg # of iterations =  1.5

     negative rho (up, down):  1.059E-04 8.550E-05
 
     Adding external electric field

     Computed dipole along edir(3) : 
        Dipole               -0.8154 Ry au,         -2.0726 Debye
        Dipole field         -0.0005 Ry au, 
 
        Potential amp.        0.0535 Ry
        Total length         54.7057 bohr
 
 
     Adding external electric field

     Computed dipole along edir(3) : 
        Dipole               -0.8154 Ry au,         -2.0726 Debye
        Dipole field         -0.0005 Ry au, 
 
        Potential amp.        0.0535 Ry
        Total length         54.7057 bohr
 

     total cpu time spent up to now is      737.0 secs

     total energy              =   -8078.60594714 Ry
     estimated scf accuracy    <       0.02342507 Ry

     total magnetization       =    95.97 Bohr mag/cell
     absolute magnetization    =    97.26 Bohr mag/cell

     iteration # 32     ecut=    50.00 Ry     beta= 0.10
     Davidson diagonalization with overlap
     ethr =  1.68E-06,  avg # of iterations =  2.0

     negative rho (up, down):  1.009E-04 7.304E-05
 
     Adding external electric field

     Computed dipole along edir(3) : 
        Dipole               -0.8098 Ry au,         -2.0584 Debye
        Dipole field         -0.0005 Ry au, 
 
        Potential amp.        0.0531 Ry
        Total length         54.7057 bohr
 
 
     Adding external electric field

     Computed dipole along edir(3) : 
        Dipole               -0.8098 Ry au,         -2.0584 Debye
        Dipole field         -0.0005 Ry au, 
 
        Potential amp.        0.0531 Ry
        Total length         54.7057 bohr
 

     total cpu time spent up to now is      758.1 secs

     total energy              =   -8078.60606879 Ry
     estimated scf accuracy    <       0.01691140 Ry

     total magnetization       =    95.86 Bohr mag/cell
     absolute magnetization    =    97.09 Bohr mag/cell

     iteration # 33     ecut=    50.00 Ry     beta= 0.10
     Davidson diagonalization with overlap
     ethr =  1.53E-06,  avg # of iterations =  1.5

     negative rho (up, down):  8.670E-05 7.388E-05
 
     Adding external electric field

     Computed dipole along edir(3) : 
        Dipole               -0.7893 Ry au,         -2.0062 Debye
        Dipole field         -0.0005 Ry au, 
 
        Potential amp.        0.0518 Ry
        Total length         54.7057 bohr
 
 
     Adding external electric field

     Computed dipole along edir(3) : 
        Dipole               -0.7893 Ry au,         -2.0062 Debye
        Dipole field         -0.0005 Ry au, 
 
        Potential amp.        0.0518 Ry
        Total length         54.7057 bohr
 

     total cpu time spent up to now is      776.8 secs

     total energy              =   -8078.60531002 Ry
     estimated scf accuracy    <       0.01681698 Ry

     total magnetization       =    95.90 Bohr mag/cell
     absolute magnetization    =    97.13 Bohr mag/cell

     iteration # 34     ecut=    50.00 Ry     beta= 0.10
     Davidson diagonalization with overlap
     ethr =  1.52E-06,  avg # of iterations = 11.0

     negative rho (up, down):  9.725E-05 9.840E-05
 
     Adding external electric field

     Computed dipole along edir(3) : 
        Dipole               -0.7492 Ry au,         -1.9044 Debye
        Dipole field         -0.0004 Ry au, 
 
        Potential amp.        0.0491 Ry
        Total length         54.7057 bohr
 
 
     Adding external electric field

     Computed dipole along edir(3) : 
        Dipole               -0.7492 Ry au,         -1.9044 Debye
        Dipole field         -0.0004 Ry au, 
 
        Potential amp.        0.0491 Ry
        Total length         54.7057 bohr
 

     total cpu time spent up to now is      804.9 secs

     total energy              =   -8078.60518531 Ry
     estimated scf accuracy    <       0.01397508 Ry

     total magnetization       =    95.83 Bohr mag/cell
     absolute magnetization    =    97.03 Bohr mag/cell

     iteration # 35     ecut=    50.00 Ry     beta= 0.10
     Davidson diagonalization with overlap
     ethr =  1.26E-06,  avg # of iterations =  2.0

     negative rho (up, down):  8.639E-05 8.839E-05
 
     Adding external electric field

     Computed dipole along edir(3) : 
        Dipole               -0.7574 Ry au,         -1.9252 Debye
        Dipole field         -0.0005 Ry au, 
 
        Potential amp.        0.0497 Ry
        Total length         54.7057 bohr
 
 
     Adding external electric field

     Computed dipole along edir(3) : 
        Dipole               -0.7574 Ry au,         -1.9252 Debye
        Dipole field         -0.0005 Ry au, 
 
        Potential amp.        0.0497 Ry
        Total length         54.7057 bohr
 

     total cpu time spent up to now is      825.2 secs

     total energy              =   -8078.60541846 Ry
     estimated scf accuracy    <       0.01448462 Ry

     total magnetization       =    95.80 Bohr mag/cell
     absolute magnetization    =    97.01 Bohr mag/cell

     iteration # 36     ecut=    50.00 Ry     beta= 0.10
     Davidson diagonalization with overlap
     ethr =  1.26E-06,  avg # of iterations =  1.5

     negative rho (up, down):  7.739E-05 8.296E-05
 
     Adding external electric field

     Computed dipole along edir(3) : 
        Dipole               -0.7639 Ry au,         -1.9417 Debye
        Dipole field         -0.0005 Ry au, 
 
        Potential amp.        0.0501 Ry
        Total length         54.7057 bohr
 
 
     Adding external electric field

     Computed dipole along edir(3) : 
        Dipole               -0.7639 Ry au,         -1.9417 Debye
        Dipole field         -0.0005 Ry au, 
 
        Potential amp.        0.0501 Ry
        Total length         54.7057 bohr
 

     total cpu time spent up to now is      844.0 secs

     total energy              =   -8078.60551151 Ry
     estimated scf accuracy    <       0.01425683 Ry

     total magnetization       =    95.80 Bohr mag/cell
     absolute magnetization    =    97.02 Bohr mag/cell

     iteration # 37     ecut=    50.00 Ry     beta= 0.10
     Davidson diagonalization with overlap
     ethr =  1.26E-06,  avg # of iterations =  2.0

     negative rho (up, down):  8.866E-05 8.441E-05
 
     Adding external electric field

     Computed dipole along edir(3) : 
        Dipole               -0.7601 Ry au,         -1.9319 Debye
        Dipole field         -0.0005 Ry au, 
 
        Potential amp.        0.0499 Ry
        Total length         54.7057 bohr
 
 
     Adding external electric field

     Computed dipole along edir(3) : 
        Dipole               -0.7601 Ry au,         -1.9319 Debye
        Dipole field         -0.0005 Ry au, 
 
        Potential amp.        0.0499 Ry
        Total length         54.7057 bohr
 

     total cpu time spent up to now is      864.8 secs

     total energy              =   -8078.60538493 Ry
     estimated scf accuracy    <       0.01431513 Ry

     total magnetization       =    95.79 Bohr mag/cell
     absolute magnetization    =    97.01 Bohr mag/cell

     iteration # 38     ecut=    50.00 Ry     beta= 0.10
     Davidson diagonalization with overlap
     ethr =  1.26E-06,  avg # of iterations =  1.5

     negative rho (up, down):  7.098E-05 5.630E-05
 
     Adding external electric field

     Computed dipole along edir(3) : 
        Dipole               -0.7536 Ry au,         -1.9154 Debye
        Dipole field         -0.0005 Ry au, 
 
        Potential amp.        0.0494 Ry
        Total length         54.7057 bohr
 
 
     Adding external electric field

     Computed dipole along edir(3) : 
        Dipole               -0.7536 Ry au,         -1.9154 Debye
        Dipole field         -0.0005 Ry au, 
 
        Potential amp.        0.0494 Ry
        Total length         54.7057 bohr
 

     total cpu time spent up to now is      884.7 secs

     total energy              =   -8078.60551211 Ry
     estimated scf accuracy    <       0.01297411 Ry

     total magnetization       =    95.78 Bohr mag/cell
     absolute magnetization    =    96.99 Bohr mag/cell

     iteration # 39     ecut=    50.00 Ry     beta= 0.10
     Davidson diagonalization with overlap
     ethr =  1.17E-06,  avg # of iterations =  1.5

     negative rho (up, down):  4.833E-05 3.605E-05
 
     Adding external electric field

     Computed dipole along edir(3) : 
        Dipole               -0.7585 Ry au,         -1.9280 Debye
        Dipole field         -0.0005 Ry au, 
 
        Potential amp.        0.0498 Ry
        Total length         54.7057 bohr
 
 
     Adding external electric field

     Computed dipole along edir(3) : 
        Dipole               -0.7585 Ry au,         -1.9280 Debye
        Dipole field         -0.0005 Ry au, 
 
        Potential amp.        0.0498 Ry
        Total length         54.7057 bohr
 

     total cpu time spent up to now is      903.8 secs

     total energy              =   -8078.60564462 Ry
     estimated scf accuracy    <       0.01237782 Ry

     total magnetization       =    95.83 Bohr mag/cell
     absolute magnetization    =    97.08 Bohr mag/cell

     iteration # 40     ecut=    50.00 Ry     beta= 0.10
     Davidson diagonalization with overlap
     ethr =  1.12E-06,  avg # of iterations =  1.0

     negative rho (up, down):  7.549E-06 6.193E-06
 
     Adding external electric field

     Computed dipole along edir(3) : 
        Dipole               -0.7693 Ry au,         -1.9554 Debye
        Dipole field         -0.0005 Ry au, 
 
        Potential amp.        0.0505 Ry
        Total length         54.7057 bohr
 
 
     Adding external electric field

     Computed dipole along edir(3) : 
        Dipole               -0.7693 Ry au,         -1.9554 Debye
        Dipole field         -0.0005 Ry au, 
 
        Potential amp.        0.0505 Ry
        Total length         54.7057 bohr
 

     total cpu time spent up to now is      922.5 secs

     total energy              =   -8078.60585155 Ry
     estimated scf accuracy    <       0.01195333 Ry

     total magnetization       =    95.83 Bohr mag/cell
     absolute magnetization    =    97.09 Bohr mag/cell

     iteration # 41     ecut=    50.00 Ry     beta= 0.10
     Davidson diagonalization with overlap
     ethr =  1.08E-06,  avg # of iterations =  2.0

     negative rho (up, down):  2.243E-05 2.147E-05
 
     Adding external electric field

     Computed dipole along edir(3) : 
        Dipole               -0.7724 Ry au,         -1.9633 Debye
        Dipole field         -0.0005 Ry au, 
 
        Potential amp.        0.0507 Ry
        Total length         54.7057 bohr
 
 
     Adding external electric field

     Computed dipole along edir(3) : 
        Dipole               -0.7724 Ry au,         -1.9633 Debye
        Dipole field         -0.0005 Ry au, 
 
        Potential amp.        0.0507 Ry
        Total length         54.7057 bohr
 

     total cpu time spent up to now is      942.5 secs

     total energy              =   -8078.60588269 Ry
     estimated scf accuracy    <       0.01116956 Ry

     total magnetization       =    95.83 Bohr mag/cell
     absolute magnetization    =    97.12 Bohr mag/cell

     iteration # 42     ecut=    50.00 Ry     beta= 0.10
     Davidson diagonalization with overlap
     ethr =  1.01E-06,  avg # of iterations =  2.0

     negative rho (up, down):  2.060E-05 1.909E-05
 
     Adding external electric field

     Computed dipole along edir(3) : 
        Dipole               -0.7729 Ry au,         -1.9646 Debye
        Dipole field         -0.0005 Ry au, 
 
        Potential amp.        0.0507 Ry
        Total length         54.7057 bohr
 
 
     Adding external electric field

     Computed dipole along edir(3) : 
        Dipole               -0.7729 Ry au,         -1.9646 Debye
        Dipole field         -0.0005 Ry au, 
 
        Potential amp.        0.0507 Ry
        Total length         54.7057 bohr
 

     total cpu time spent up to now is      962.9 secs

     total energy              =   -8078.60597872 Ry
     estimated scf accuracy    <       0.01107376 Ry

     total magnetization       =    95.82 Bohr mag/cell
     absolute magnetization    =    97.15 Bohr mag/cell

     iteration # 43     ecut=    50.00 Ry     beta= 0.10
     Davidson diagonalization with overlap
     ethr =  9.99E-07,  avg # of iterations =  1.5

     negative rho (up, down):  1.659E-05 1.508E-05
 
     Adding external electric field

     Computed dipole along edir(3) : 
        Dipole               -0.7693 Ry au,         -1.9553 Debye
        Dipole field         -0.0005 Ry au, 
 
        Potential amp.        0.0505 Ry
        Total length         54.7057 bohr
 
 
     Adding external electric field

     Computed dipole along edir(3) : 
        Dipole               -0.7693 Ry au,         -1.9553 Debye
        Dipole field         -0.0005 Ry au, 
 
        Potential amp.        0.0505 Ry
        Total length         54.7057 bohr
 

     total cpu time spent up to now is      982.4 secs

     total energy              =   -8078.60596532 Ry
     estimated scf accuracy    <       0.01099710 Ry

     total magnetization       =    95.83 Bohr mag/cell
     absolute magnetization    =    97.15 Bohr mag/cell

     iteration # 44     ecut=    50.00 Ry     beta= 0.10
     Davidson diagonalization with overlap
     ethr =  9.93E-07,  avg # of iterations =  1.5

     negative rho (up, down):  1.808E-05 1.621E-05
 
     Adding external electric field

     Computed dipole along edir(3) : 
        Dipole               -0.7503 Ry au,         -1.9070 Debye
        Dipole field         -0.0004 Ry au, 
 
        Potential amp.        0.0492 Ry
        Total length         54.7057 bohr
 
 
     Adding external electric field

     Computed dipole along edir(3) : 
        Dipole               -0.7503 Ry au,         -1.9070 Debye
        Dipole field         -0.0004 Ry au, 
 
        Potential amp.        0.0492 Ry
        Total length         54.7057 bohr
 

     total cpu time spent up to now is     1001.3 secs

     total energy              =   -8078.60583616 Ry
     estimated scf accuracy    <       0.01060395 Ry

     total magnetization       =    95.82 Bohr mag/cell
     absolute magnetization    =    97.15 Bohr mag/cell

     iteration # 45     ecut=    50.00 Ry     beta= 0.10
     Davidson diagonalization with overlap
     ethr =  9.57E-07,  avg # of iterations =  2.0

     negative rho (up, down):  2.897E-05 2.381E-05
 
     Adding external electric field

     Computed dipole along edir(3) : 
        Dipole               -0.7379 Ry au,         -1.8755 Debye
        Dipole field         -0.0004 Ry au, 
 
        Potential amp.        0.0484 Ry
        Total length         54.7057 bohr
 
 
     Adding external electric field

     Computed dipole along edir(3) : 
        Dipole               -0.7379 Ry au,         -1.8755 Debye
        Dipole field         -0.0004 Ry au, 
 
        Potential amp.        0.0484 Ry
        Total length         54.7057 bohr
 

     total cpu time spent up to now is     1022.0 secs

     total energy              =   -8078.60580147 Ry
     estimated scf accuracy    <       0.01031878 Ry

     total magnetization       =    95.80 Bohr mag/cell
     absolute magnetization    =    97.15 Bohr mag/cell

     iteration # 46     ecut=    50.00 Ry     beta= 0.10
     Davidson diagonalization with overlap
     ethr =  9.31E-07,  avg # of iterations =  1.0

     negative rho (up, down):  1.073E-05 1.119E-05
 
     Adding external electric field

     Computed dipole along edir(3) : 
        Dipole               -0.7720 Ry au,         -1.9621 Debye
        Dipole field         -0.0005 Ry au, 
 
        Potential amp.        0.0506 Ry
        Total length         54.7057 bohr
 
 
     Adding external electric field

     Computed dipole along edir(3) : 
        Dipole               -0.7720 Ry au,         -1.9621 Debye
        Dipole field         -0.0005 Ry au, 
 
        Potential amp.        0.0506 Ry
        Total length         54.7057 bohr
 

     total cpu time spent up to now is     1039.6 secs

     total energy              =   -8078.60579755 Ry
     estimated scf accuracy    <       0.01074203 Ry

     total magnetization       =    95.81 Bohr mag/cell
     absolute magnetization    =    97.15 Bohr mag/cell

     iteration # 47     ecut=    50.00 Ry     beta= 0.10
     Davidson diagonalization with overlap
     ethr =  9.31E-07,  avg # of iterations =  2.0

     negative rho (up, down):  1.063E-05 1.106E-05
 
     Adding external electric field

     Computed dipole along edir(3) : 
        Dipole               -0.7799 Ry au,         -1.9823 Debye
        Dipole field         -0.0005 Ry au, 
 
        Potential amp.        0.0512 Ry
        Total length         54.7057 bohr
 
 
     Adding external electric field

     Computed dipole along edir(3) : 
        Dipole               -0.7799 Ry au,         -1.9823 Debye
        Dipole field         -0.0005 Ry au, 
 
        Potential amp.        0.0512 Ry
        Total length         54.7057 bohr
 

     total cpu time spent up to now is     1060.8 secs

     total energy              =   -8078.60582595 Ry
     estimated scf accuracy    <       0.00982605 Ry

     total magnetization       =    95.78 Bohr mag/cell
     absolute magnetization    =    97.17 Bohr mag/cell

     iteration # 48     ecut=    50.00 Ry     beta= 0.10
     Davidson diagonalization with overlap
     ethr =  8.87E-07,  avg # of iterations =  1.0

     negative rho (up, down):  1.304E-05 1.146E-05
 
     Adding external electric field

     Computed dipole along edir(3) : 
        Dipole               -0.7613 Ry au,         -1.9350 Debye
        Dipole field         -0.0005 Ry au, 
 
        Potential amp.        0.0499 Ry
        Total length         54.7057 bohr
 
 
     Adding external electric field

     Computed dipole along edir(3) : 
        Dipole               -0.7613 Ry au,         -1.9350 Debye
        Dipole field         -0.0005 Ry au, 
 
        Potential amp.        0.0499 Ry
        Total length         54.7057 bohr
 

     total cpu time spent up to now is     1078.7 secs

     total energy              =   -8078.60564495 Ry
     estimated scf accuracy    <       0.00971536 Ry

     total magnetization       =    95.80 Bohr mag/cell
     absolute magnetization    =    97.21 Bohr mag/cell

     iteration # 49     ecut=    50.00 Ry     beta= 0.10
     Davidson diagonalization with overlap
     ethr =  8.77E-07,  avg # of iterations =  1.5

     negative rho (up, down):  6.638E-05 6.471E-05
 
     Adding external electric field

     Computed dipole along edir(3) : 
        Dipole               -0.7687 Ry au,         -1.9538 Debye
        Dipole field         -0.0005 Ry au, 
 
        Potential amp.        0.0504 Ry
        Total length         54.7057 bohr
 
 
     Adding external electric field

     Computed dipole along edir(3) : 
        Dipole               -0.7687 Ry au,         -1.9538 Debye
        Dipole field         -0.0005 Ry au, 
 
        Potential amp.        0.0504 Ry
        Total length         54.7057 bohr
 

     total cpu time spent up to now is     1097.6 secs

     total energy              =   -8078.60557083 Ry
     estimated scf accuracy    <       0.01035487 Ry

     total magnetization       =    95.83 Bohr mag/cell
     absolute magnetization    =    97.26 Bohr mag/cell

     iteration # 50     ecut=    50.00 Ry     beta= 0.10
     Davidson diagonalization with overlap
     ethr =  8.77E-07,  avg # of iterations =  2.0

     negative rho (up, down):  8.222E-04 8.809E-04
 
     Adding external electric field

     Computed dipole along edir(3) : 
        Dipole               -0.7774 Ry au,         -1.9759 Debye
        Dipole field         -0.0005 Ry au, 
 
        Potential amp.        0.0510 Ry
        Total length         54.7057 bohr
 
 
     Adding external electric field

     Computed dipole along edir(3) : 
        Dipole               -0.7774 Ry au,         -1.9759 Debye
        Dipole field         -0.0005 Ry au, 
 
        Potential amp.        0.0510 Ry
        Total length         54.7057 bohr
 

     total cpu time spent up to now is     1117.3 secs

     total energy              =   -8078.60522161 Ry
     estimated scf accuracy    <       0.00931502 Ry

     total magnetization       =    95.81 Bohr mag/cell
     absolute magnetization    =    97.24 Bohr mag/cell

     iteration # 51     ecut=    50.00 Ry     beta= 0.10
     Davidson diagonalization with overlap
     ethr =  8.41E-07,  avg # of iterations =  2.0

     negative rho (up, down):  8.108E-04 8.625E-04
 
     Adding external electric field

     Computed dipole along edir(3) : 
        Dipole               -0.7769 Ry au,         -1.9748 Debye
        Dipole field         -0.0005 Ry au, 
 
        Potential amp.        0.0510 Ry
        Total length         54.7057 bohr
 
 
     Adding external electric field

     Computed dipole along edir(3) : 
        Dipole               -0.7769 Ry au,         -1.9748 Debye
        Dipole field         -0.0005 Ry au, 
 
        Potential amp.        0.0510 Ry
        Total length         54.7057 bohr
 

     total cpu time spent up to now is     1138.5 secs

     total energy              =   -8078.60523018 Ry
     estimated scf accuracy    <       0.00903131 Ry

     total magnetization       =    95.81 Bohr mag/cell
     absolute magnetization    =    97.26 Bohr mag/cell

     iteration # 52     ecut=    50.00 Ry     beta= 0.10
     Davidson diagonalization with overlap
     ethr =  8.15E-07,  avg # of iterations =  1.5

     negative rho (up, down):  1.371E-03 1.494E-03
 
     Adding external electric field

     Computed dipole along edir(3) : 
        Dipole               -0.7742 Ry au,         -1.9679 Debye
        Dipole field         -0.0005 Ry au, 
 
        Potential amp.        0.0508 Ry
        Total length         54.7057 bohr
 
 
     Adding external electric field

     Computed dipole along edir(3) : 
        Dipole               -0.7742 Ry au,         -1.9679 Debye
        Dipole field         -0.0005 Ry au, 
 
        Potential amp.        0.0508 Ry
        Total length         54.7057 bohr
 

     total cpu time spent up to now is     1158.1 secs

     total energy              =   -8078.60498709 Ry
     estimated scf accuracy    <       0.00906983 Ry

     total magnetization       =    95.81 Bohr mag/cell
     absolute magnetization    =    97.27 Bohr mag/cell

     iteration # 53     ecut=    50.00 Ry     beta= 0.10
     Davidson diagonalization with overlap
     ethr =  8.15E-07,  avg # of iterations =  2.0

     negative rho (up, down):  1.004E-03 1.075E-03
 
     Adding external electric field

     Computed dipole along edir(3) : 
        Dipole               -0.7837 Ry au,         -1.9920 Debye
        Dipole field         -0.0005 Ry au, 
 
        Potential amp.        0.0514 Ry
        Total length         54.7057 bohr
 
 
     Adding external electric field

     Computed dipole along edir(3) : 
        Dipole               -0.7837 Ry au,         -1.9920 Debye
        Dipole field         -0.0005 Ry au, 
 
        Potential amp.        0.0514 Ry
        Total length         54.7057 bohr
 

     total cpu time spent up to now is     1178.4 secs

     total energy              =   -8078.60518970 Ry
     estimated scf accuracy    <       0.00950596 Ry

     total magnetization       =    95.80 Bohr mag/cell
     absolute magnetization    =    97.27 Bohr mag/cell

     iteration # 54     ecut=    50.00 Ry     beta= 0.10
     Davidson diagonalization with overlap
     ethr =  8.15E-07,  avg # of iterations =  1.5

     negative rho (up, down):  1.555E-03 1.740E-03
 
     Adding external electric field

     Computed dipole along edir(3) : 
        Dipole               -0.7553 Ry au,         -1.9199 Debye
        Dipole field         -0.0005 Ry au, 
 
        Potential amp.        0.0495 Ry
        Total length         54.7057 bohr
 
 
     Adding external electric field

     Computed dipole along edir(3) : 
        Dipole               -0.7553 Ry au,         -1.9199 Debye
        Dipole field         -0.0005 Ry au, 
 
        Potential amp.        0.0495 Ry
        Total length         54.7057 bohr
 

     total cpu time spent up to now is     1198.0 secs

     total energy              =   -8078.60483092 Ry
     estimated scf accuracy    <       0.00923132 Ry

     total magnetization       =    95.81 Bohr mag/cell
     absolute magnetization    =    97.27 Bohr mag/cell

     iteration # 55     ecut=    50.00 Ry     beta= 0.10
     Davidson diagonalization with overlap
     ethr =  8.15E-07,  avg # of iterations =  3.5

     negative rho (up, down):  1.706E-03 1.878E-03
 
     Adding external electric field

     Computed dipole along edir(3) : 
        Dipole               -0.7689 Ry au,         -1.9545 Debye
        Dipole field         -0.0005 Ry au, 
 
        Potential amp.        0.0504 Ry
        Total length         54.7057 bohr
 
 
     Adding external electric field

     Computed dipole along edir(3) : 
        Dipole               -0.7689 Ry au,         -1.9545 Debye
        Dipole field         -0.0005 Ry au, 
 
        Potential amp.        0.0504 Ry
        Total length         54.7057 bohr
 

     total cpu time spent up to now is     1219.4 secs

     total energy              =   -8078.60485187 Ry
     estimated scf accuracy    <       0.01010364 Ry

     total magnetization       =    95.78 Bohr mag/cell
     absolute magnetization    =    97.25 Bohr mag/cell

     iteration # 56     ecut=    50.00 Ry     beta= 0.10
     Davidson diagonalization with overlap
     ethr =  8.15E-07,  avg # of iterations =  1.0

     negative rho (up, down):  1.750E-03 1.914E-03
 
     Adding external electric field

     Computed dipole along edir(3) : 
        Dipole               -0.7569 Ry au,         -1.9237 Debye
        Dipole field         -0.0005 Ry au, 
 
        Potential amp.        0.0496 Ry
        Total length         54.7057 bohr
 
 
     Adding external electric field

     Computed dipole along edir(3) : 
        Dipole               -0.7569 Ry au,         -1.9237 Debye
        Dipole field         -0.0005 Ry au, 
 
        Potential amp.        0.0496 Ry
        Total length         54.7057 bohr
 

     total cpu time spent up to now is     1237.2 secs

     total energy              =   -8078.60505639 Ry
     estimated scf accuracy    <       0.00989365 Ry

     total magnetization       =    95.83 Bohr mag/cell
     absolute magnetization    =    97.30 Bohr mag/cell

     iteration # 57     ecut=    50.00 Ry     beta= 0.10
     Davidson diagonalization with overlap
     ethr =  8.15E-07,  avg # of iterations =  2.0

     negative rho (up, down):  1.751E-03 1.920E-03
 
     Adding external electric field

     Computed dipole along edir(3) : 
        Dipole               -0.7711 Ry au,         -1.9600 Debye
        Dipole field         -0.0005 Ry au, 
 
        Potential amp.        0.0506 Ry
        Total length         54.7057 bohr
 
 
     Adding external electric field

     Computed dipole along edir(3) : 
        Dipole               -0.7711 Ry au,         -1.9600 Debye
        Dipole field         -0.0005 Ry au, 
 
        Potential amp.        0.0506 Ry
        Total length         54.7057 bohr
 

     total cpu time spent up to now is     1257.7 secs

     total energy              =   -8078.60488846 Ry
     estimated scf accuracy    <       0.00973519 Ry

     total magnetization       =    95.82 Bohr mag/cell
     absolute magnetization    =    97.26 Bohr mag/cell

     iteration # 58     ecut=    50.00 Ry     beta= 0.10
     Davidson diagonalization with overlap
     ethr =  8.15E-07,  avg # of iterations =  1.0

     negative rho (up, down):  1.968E-03 2.046E-03
 
     Adding external electric field

     Computed dipole along edir(3) : 
        Dipole               -0.7511 Ry au,         -1.9091 Debye
        Dipole field         -0.0005 Ry au, 
 
[...]
    -6.0336  -6.0210  -6.0180  -5.9841  -5.9475  -5.9343  -5.9172  -5.8940
    -5.8828  -5.8735  -5.8633  -5.8224  -5.8105  -5.7889  -5.7515  -5.7250
    -5.7226  -5.7166  -5.6834  -5.6603  -5.6321  -5.6262  -5.6101  -5.5924
    -5.5853  -5.5667  -5.5417  -5.5300  -5.5271  -5.5175  -5.4962  -5.4306
    -5.4044  -5.3669  -5.3442  -5.2983  -5.2972  -5.2873  -5.2717  -5.2082
    -5.1831  -5.1698  -5.1661  -5.1175  -5.0864  -5.0384  -5.0109  -4.9625
    -4.9132  -4.9097  -4.8651  -4.8498  -4.8334  -4.8228  -4.7935  -4.7805
    -4.7015  -4.6775  -4.6570  -4.6363  -4.6116  -4.5945  -4.4812  -4.4569
    -4.4413  -4.4285  -4.4168  -4.3662  -4.3375  -4.3108  -4.2610  -4.2466
    -4.2270  -4.2194  -4.1511  -4.1126  -4.0897  -4.0752  -4.0250  -4.0109
    -3.9376  -3.9013  -3.8901  -3.8782  -3.8732  -3.8154  -3.7903  -3.7814
    -3.7758  -3.7591  -3.7305  -3.7069  -3.6632  -3.6499  -3.6435  -3.6303
    -3.5986  -3.5826  -3.5678  -3.5597  -3.5442  -3.5279  -3.5257  -3.4918
    -3.4671  -3.4513  -3.4451  -3.4221  -3.4159  -3.4150  -3.3704  -3.3570
    -3.3402  -3.3343  -3.3130  -3.2993  -3.2617  -3.2568  -3.2164  -3.2017
    -3.1899  -3.1482  -3.1370  -3.1140  -3.1008  -3.0867  -3.0727  -3.0445
    -3.0258  -3.0011  -2.9695  -2.9433  -2.9381  -2.9084  -2.8954  -2.8663
    -2.8572  -2.8262  -2.7908  -2.7660  -2.7485  -2.7362  -2.7311  -2.7180
    -2.7090  -2.6961  -2.6950  -2.6781  -2.6547  -2.6502  -2.6344  -2.6287
    -2.6176  -2.5873  -2.5737  -2.5700  -2.5481  -2.5445  -2.5383  -2.5143
    -2.4838  -2.4753  -2.4502  -2.4356  -2.4239  -2.3999  -2.3795  -2.3640
    -2.3394  -2.3339  -2.3218  -2.3103  -2.2741  -2.2561  -2.2360  -2.2342
    -2.2199  -2.2024  -2.1751  -2.1472  -2.1344  -2.1071  -2.0986  -2.0677
    -2.0621  -2.0515  -2.0254  -2.0128  -1.9988  -1.9713  -1.9534  -1.9319
    -1.9202  -1.9135  -1.9096  -1.8817  -1.8756  -1.8543  -1.8470  -1.8366
    -1.7720  -1.7613  -1.7358  -1.7130  -1.7009  -1.6749  -1.6701  -1.6515
    -1.6456  -1.6256  -1.6184  -1.6055  -1.5796  -1.5602  -1.5429  -1.5108
    -1.4872  -1.4701  -1.4324  -1.4208  -1.4016  -1.3921  -1.3712  -1.3546
    -1.3496  -1.3390  -1.3252  -1.2675  -1.2435  -1.2227  -1.2104  -1.1497
    -1.1350  -1.1108  -1.0453  -1.0435  -1.0327  -1.0216  -0.8815  -0.8387
    -0.7823  -0.7303  -0.6537  -0.6324  -0.4956  -0.4605  -0.4528  -0.3143
     0.1377   0.1508   0.1935   0.2106   0.2204   0.2459   0.2674   0.2753
     0.2902   0.2975   0.3017   0.3287   0.3324   0.3434   0.3442   0.3501
     0.3641   0.3686   0.3761   0.3837   0.3938   0.4016   0.4166   0.4254
     0.4305   0.4348   0.4411   0.4469   0.4493   0.4680   0.4767   0.4808
     0.4860   0.4932   0.4955   0.5109   0.5182   0.5283   0.5363   0.5411
     0.5622   0.5681   0.5806   0.5927   0.5976   0.5983   0.6108   0.6214
     0.6290   0.6315   0.6387   0.6535   0.6708   0.6831   0.6866   0.6911
     0.7003   0.7009   0.7090   0.7276   0.7389   0.7433   0.7669   0.7677
     0.7727   0.7819   0.7850   0.8098   0.8149   0.8292   0.8335   0.8358
     0.8685   0.8791   0.9271   0.9419   0.9831   0.9885   1.0231   1.0916
     1.1109   1.7201   1.7264   1.7433   1.7656   1.7786   1.7855   1.7935
     1.8206   1.8440   1.8547   1.8885   1.9146   1.9319   1.9541   1.9811
     2.0022   2.0247   2.0419   2.0529   2.0604   2.0759   2.0878   2.1170
     2.1415   2.1583   2.1631   2.1697   2.1785   2.2180   2.2279   2.2436
     2.2569   2.2646   2.2885   2.3055   2.3074   2.3247   2.3486   2.3602
     2.3865   2.4029   2.4238   2.4463   2.4689   2.4733   2.4873   2.5643
     2.5761   2.6157   2.6990   2.7223   2.7644   2.7646   2.8232   3.3307
     3.5065   3.6562   3.7197   3.7312   3.7492   3.8125   3.8466   3.8780
     3.9049   3.9136   3.9423   3.9653   3.9842   3.9904   4.0213   4.0352
     4.0486   4.0668   4.0995   4.1083   4.1252   4.1562   4.1723   4.1922
     4.1998   4.2132   4.2300   4.2730   4.3670   4.4174   4.5610   4.7439
     4.7693   4.8291   4.8429   4.8853   4.9411   4.9515   4.9715   5.0325
     5.0584   5.0758   5.1183   5.1411   5.1819   5.1845   5.3269   6.1309
     6.3183   6.4008   6.5385   6.6079   6.6608   6.6707   6.7278   6.8147
     6.8929   6.9118   6.9576   6.9812   7.1694   7.2445   7.2886   7.3123
     7.3457   7.3947   7.4478   7.4970   7.5359   7.5452   7.6458   7.6722
     7.7772   7.8337   7.8427   7.8803   7.9108   7.9503   7.9590   7.9816
     8.0256   8.0439   8.0762   8.1231   8.1574   8.1763   8.1965   8.2348
     8.2630   8.2847   8.3075   8.3191   8.3521   8.3568   8.3862   8.4185
     8.4270   8.4480   8.4854   8.5162   8.5306   8.5388   8.5670   8.5927
     8.6141

     the Fermi energy is     1.6509 ev

!    total energy              =   -8078.60448536 Ry
     estimated scf accuracy    <       0.00000087 Ry
     smearing contrib. (-TS)   =      -0.02258169 Ry
     internal energy E=F+TS    =   -8078.58190367 Ry

     The total energy is F=E-TS. E is the sum of the following terms:
     one-electron contribution =  -94726.64169901 Ry
     hartree contribution      =   47946.40622953 Ry
     xc contribution           =   -2177.31757857 Ry
     ewald contribution        =   40880.74134947 Ry
     Dispersion Correction     =      -1.77025756 Ry
     electric field correction =       0.00005247 Ry

     total magnetization       =    95.86 Bohr mag/cell
     absolute magnetization    =    97.22 Bohr mag/cell

     convergence has been achieved in 121 iterations

     negative rho (up, down):  1.165E-03 6.334E-04

     Forces acting on atoms (cartesian axes, Ry/au):

     atom    1 type  1   force =     0.02411247   -0.01774731    0.01994382
     atom    2 type  1   force =    -0.00191501   -0.00004109   -0.00545572
     atom    3 type  2   force =    -0.03027625   -0.01550905   -0.00847892
     atom    4 type  1   force =     0.00186351   -0.00310791   -0.00454169
     atom    5 type  1   force =    -0.00377508    0.00232241   -0.00181765
     atom    6 type  1   force =     0.00244360    0.00729279   -0.00411164
     atom    7 type  1   force =     0.03191909   -0.01962265    0.01776131
     atom    8 type  2   force =    -0.00192469   -0.00005225   -0.00892701
     atom    9 type  2   force =    -0.02885985   -0.01512365   -0.00850832
     atom   10 type  1   force =     0.00204864   -0.00282380   -0.00430912
     atom   11 type  1   force =    -0.00338348    0.00271873   -0.00099180
     atom   12 type  1   force =     0.00367964    0.00670030   -0.00358717
     atom   13 type  3   force =     0.00211480    0.00072221   -0.00766176
     atom   14 type  3   force =    -0.02976315    0.04990253   -0.06598117
     atom   15 type  3   force =     0.03466703    0.03761321   -0.05984374
     atom   16 type  3   force =    -0.00442154    0.00308757   -0.00101643
     atom   17 type  4   force =    -0.00204940    0.00128628    0.00273609
     atom   18 type  4   force =    -0.00164341   -0.00513377    0.02741874
     atom   19 type  4   force =     0.00400473    0.00287575    0.02953737
     atom   20 type  4   force =     0.00007449   -0.00272357   -0.00487258
     atom   21 type  4   force =    -0.00305177   -0.00233741    0.00343582
     atom   22 type  4   force =     0.00469790   -0.00323366    0.03407629
     atom   23 type  4   force =    -0.00596247   -0.00102716    0.03233478
     atom   24 type  4   force =     0.00064453   -0.00097025    0.00007403
     atom   25 type  4   force =    -0.00131488    0.00083519    0.00219490
     atom   26 type  4   force =    -0.01444851   -0.02283824   -0.00186535
     atom   27 type  4   force =     0.00175060   -0.00070552    0.00120800
     atom   28 type  4   force =    -0.01777298    0.00340937    0.00117394
     atom   29 type  4   force =     0.02075032   -0.00460533    0.00827021
     atom   30 type  4   force =     0.01237732   -0.03416172    0.00111120
     atom   31 type  4   force =     0.00047085    0.00103645    0.00235285
     atom   32 type  4   force =    -0.00200722    0.00006218    0.00269132
     atom   33 type  3   force =    -0.00057013   -0.00163714   -0.00513972
     atom   34 type  3   force =    -0.03023739    0.05981767   -0.08317375
     atom   35 type  3   force =     0.03460794    0.03341802   -0.05927868
     atom   36 type  3   force =    -0.00386129    0.00470103   -0.00080285
     atom   37 type  4   force =    -0.00111212    0.00127542    0.00297661
     atom   38 type  4   force =    -0.00309601   -0.00554338    0.03299476
     atom   39 type  4   force =     0.00446188    0.00398807    0.02928662
     atom   40 type  4   force =     0.00022593   -0.00323550   -0.00497225
     atom   41 type  4   force =    -0.00007713    0.00000653    0.00364111
     atom   42 type  4   force =     0.00540074    0.00032909    0.01981550
     atom   43 type  4   force =    -0.00175970    0.00043928    0.03442541
     atom   44 type  4   force =     0.00092822   -0.00084387    0.00008715
     atom   45 type  4   force =    -0.00017245   -0.00268154    0.00129875
     atom   46 type  4   force =    -0.01503516   -0.02048603   -0.00052277
     atom   47 type  4   force =     0.00189568   -0.00059749    0.00128654
     atom   48 type  4   force =    -0.01812560    0.00403313    0.00160201
     atom   49 type  4   force =     0.01655515   -0.00279347    0.00498266
     atom   50 type  4   force =     0.01177483   -0.03685128    0.00435070
     atom   51 type  4   force =     0.00101305    0.00104700    0.00175195
     atom   52 type  4   force =     0.00109727   -0.00222780    0.00365792
     atom   53 type  1   force =     0.00133909    0.00025851   -0.00075082
     atom   54 type  1   force =     0.00075475    0.00030040    0.00081468
     atom   55 type  2   force =    -0.00006035   -0.00012216   -0.00061861
     atom   56 type  1   force =    -0.00095444   -0.00020022    0.00060159
     atom   57 type  1   force =     0.00022328    0.00015912    0.00034776
     atom   58 type  1   force =    -0.00010425   -0.00012061    0.00027268
     atom   59 type  1   force =     0.00057462    0.00057367   -0.00081896
     atom   60 type  2   force =    -0.00125398   -0.00194500    0.00639606
     atom   61 type  2   force =    -0.00036986    0.00000940   -0.00068133
     atom   62 type  1   force =     0.00039403    0.00090596    0.00058899
     atom   63 type  1   force =    -0.00030768    0.00028741    0.00030001
     atom   64 type  1   force =     0.00033064   -0.00025289   -0.00008528
     atom   65 type  3   force =    -0.00058878   -0.00112597    0.00295582
     atom   66 type  3   force =     0.00006435   -0.00014476   -0.00175516
     atom   67 type  3   force =     0.00035952    0.00055477   -0.00140677
     atom   68 type  3   force =    -0.00071919    0.00017428    0.00320832
     atom   69 type  4   force =    -0.00059080    0.00031849   -0.00113201
     atom   70 type  4   force =    -0.00005752    0.00002965    0.00043016
     atom   71 type  4   force =     0.00015901   -0.00018115    0.00041003
     atom   72 type  4   force =     0.00060006   -0.00046391   -0.00115719
     atom   73 type  4   force =    -0.00013504    0.00018728    0.00122645
     atom   74 type  4   force =    -0.00022952   -0.00064005    0.00184246
     atom   75 type  4   force =    -0.00005387   -0.00001329    0.00055056
     atom   76 type  4   force =    -0.00009250   -0.00126275    0.00081400
     atom   77 type  4   force =    -0.00080462    0.00041776   -0.00086626
     atom   78 type  4   force =    -0.00027626   -0.00001777    0.00038481
     atom   79 type  4   force =     0.00044663    0.00054472   -0.00138668
     atom   80 type  4   force =     0.00001173    0.00060339    0.00027865
     atom   81 type  4   force =    -0.00043415   -0.00027475    0.00032394
     atom   82 type  4   force =     0.00017582   -0.00007701    0.00011422
     atom   83 type  4   force =    -0.00010338    0.00054701   -0.00044999
     atom   84 type  4   force =    -0.00032381    0.00016944   -0.00066018
     atom   85 type  3   force =    -0.00018707   -0.00087965    0.00163744
     atom   86 type  3   force =     0.00058627   -0.00048248   -0.00050315
     atom   87 type  3   force =    -0.00026069   -0.00002871   -0.00114145
     atom   88 type  3   force =    -0.00106705   -0.00052885    0.00098826
     atom   89 type  4   force =    -0.00015810   -0.00009312   -0.00057900
     atom   90 type  4   force =     0.00005952   -0.00051667    0.00146888
     atom   91 type  4   force =     0.00028934    0.00008085    0.00038700
     atom   92 type  4   force =     0.00051698   -0.00064257   -0.00081909
     atom   93 type  4   force =     0.00185401    0.00108760    0.00173684
     atom   94 type  4   force =    -0.00028722    0.00003568    0.00134531
     atom   95 type  4   force =     0.00025301    0.00015949    0.00058970
     atom   96 type  4   force =    -0.00009848   -0.00076754   -0.00020353
     atom   97 type  4   force =     0.00019171   -0.00037923   -0.00060182
     atom   98 type  4   force =    -0.00050918   -0.00018769    0.00035822
     atom   99 type  4   force =     0.00043630    0.00052747   -0.00109560
     atom  100 type  4   force =     0.00048602    0.00037153    0.00052805
     atom  101 type  4   force =    -0.00038865   -0.00016695    0.00049421
     atom  102 type  4   force =     0.00090743   -0.00039944    0.00046054
     atom  103 type  4   force =     0.00094534    0.00043495    0.00029433
     atom  104 type  4   force =    -0.00022122   -0.00068675    0.00003889
     atom  105 type  1   force =     0.00016146    0.00013087    0.00041942
     atom  106 type  1   force =    -0.00030679    0.00010652    0.00014160
     atom  107 type  2   force =    -0.00009216    0.00050442    0.00018737
     atom  108 type  1   force =    -0.00028390   -0.00031316    0.00010961
     atom  109 type  1   force =     0.00008401   -0.00041023    0.00044055
     atom  110 type  1   force =     0.00043180    0.00048899   -0.00022609
     atom  111 type  1   force =     0.00012187    0.00000014    0.00053644
     atom  112 type  2   force =    -0.00028739   -0.00004070    0.00056636
     atom  113 type  2   force =    -0.00021953    0.00037638    0.00003870
     atom  114 type  1   force =     0.00045387   -0.00004391    0.00053850
     atom  115 type  1   force =    -0.00002238   -0.00027169    0.00031387
     atom  116 type  1   force =     0.00021926    0.00010551    0.00009807
     atom  117 type  3   force =    -0.00010692    0.00007966   -0.00004102
     atom  118 type  3   force =     0.00029995   -0.00003047    0.00003148
     atom  119 type  3   force =     0.00019060    0.00029898   -0.00009569
     atom  120 type  3   force =     0.00011666   -0.00016259   -0.00033157
     atom  121 type  4   force =     0.00001946   -0.00022553    0.00015899
     atom  122 type  4   force =     0.00018383   -0.00043631    0.00028653
     atom  123 type  4   force =    -0.00025142    0.00019972    0.00005543
     atom  124 type  4   force =    -0.00013315   -0.00051629   -0.00046629
     atom  125 type  4   force =    -0.00051075    0.00061237   -0.00010001
     atom  126 type  4   force =     0.00001232    0.00045328    0.00014886
     atom  127 type  4   force =     0.00025622   -0.00000826    0.00022022
     atom  128 type  4   force =    -0.00012678    0.00043832    0.00015139
     atom  129 type  4   force =    -0.00012414   -0.00040422   -0.00012258
     atom  130 type  4   force =    -0.00035136   -0.00007909    0.00011849
     atom  131 type  4   force =    -0.00012514   -0.00011799   -0.00002585
     atom  132 type  4   force =    -0.00019604    0.00027637   -0.00005596
     atom  133 type  4   force =     0.00005515    0.00006004   -0.00006213
     atom  134 type  4   force =     0.00047170   -0.00005877    0.00024575
     atom  135 type  4   force =     0.00036305    0.00010258   -0.00010775
     atom  136 type  4   force =     0.00000057    0.00070333    0.00029437
     atom  137 type  3   force =     0.00001022    0.00047280   -0.00044287
     atom  138 type  3   force =     0.00045532    0.00000200    0.00008821
     atom  139 type  3   force =    -0.00035533   -0.00014511   -0.00021294
     atom  140 type  3   force =    -0.00012414    0.00025481    0.00018291
     atom  141 type  4   force =     0.00015033    0.00003336    0.00013427
     atom  142 type  4   force =     0.00015886    0.00004132   -0.00005534
     atom  143 type  4   force =    -0.00007926   -0.00031461   -0.00026031
     atom  144 type  4   force =    -0.00053093    0.00065929    0.00017333
     atom  145 type  4   force =     0.00022737   -0.00073569    0.00060763
     atom  146 type  4   force =     0.00002126    0.00032135   -0.00014465
     atom  147 type  4   force =    -0.00009798    0.00025270   -0.00011607
     atom  148 type  4   force =     0.00006935   -0.00005886   -0.00021271
     atom  149 type  4   force =    -0.00024015    0.00031764    0.00000106
     atom  150 type  4   force =    -0.00008070   -0.00010296   -0.00000418
     atom  151 type  4   force =    -0.00002235    0.00064737   -0.00020025
     atom  152 type  4   force =    -0.00019098    0.00009397   -0.00014907
     atom  153 type  4   force =    -0.00011686    0.00003905   -0.00009928
     atom  154 type  4   force =     0.00002317    0.00037831   -0.00017638
     atom  155 type  4   force =     0.00003486   -0.00037571    0.00048836
     atom  156 type  4   force =    -0.00055736    0.00005013   -0.00005725
     atom  157 type  4   force =    -0.01202861    0.00537102    0.00078541
     atom  158 type  5   force =     0.01268466   -0.00541573   -0.00189117

     Total force =     0.226044     Total SCF correction =     0.004167
 
     init_run     :     12.75s CPU     13.47s WALL (       1 calls)
     electrons    :   2403.92s CPU   2482.49s WALL (       1 calls)
     forces       :      6.73s CPU      7.10s WALL (       1 calls)
     force_london :      0.09s CPU      0.09s WALL (       1 calls)

     Called by init_run:
     wfcinit      :      8.01s CPU      8.22s WALL (       1 calls)
     potinit      :      0.71s CPU      0.92s WALL (       1 calls)
     hinit0       :      2.17s CPU      2.28s WALL (       1 calls)

     Called by electrons:
     c_bands      :   1834.10s CPU   1874.21s WALL (     121 calls)
     sum_band     :    348.39s CPU    369.52s WALL (     121 calls)
     v_of_rho     :     38.52s CPU     39.98s WALL (     122 calls)
     newd         :    130.41s CPU    146.00s WALL (     122 calls)
     mix_rho      :     49.19s CPU     49.40s WALL (     121 calls)
     energy_londo :      0.10s CPU      0.10s WALL (       1 calls)

     Called by c_bands:
     init_us_2    :      4.00s CPU      4.08s WALL (     488 calls)
     init_us_2:cp :      4.00s CPU      4.08s WALL (     488 calls)
     regterg      :   1800.19s CPU   1839.93s WALL (     243 calls)

     Called by *egterg:
     rdiaghg      :    444.10s CPU    461.36s WALL (     820 calls)
     h_psi        :    706.80s CPU    718.16s WALL (     822 calls)
     s_psi        :     87.26s CPU     87.35s WALL (     822 calls)
     g_psi        :      0.62s CPU      0.63s WALL (     577 calls)

     Called by h_psi:
     h_psi:calbec :    177.04s CPU    186.08s WALL (     822 calls)
     vloc_psi     :    439.74s CPU    441.02s WALL (     822 calls)
     add_vuspsi   :     88.66s CPU     89.68s WALL (     822 calls)

     General routines
     calbec       :    261.60s CPU    275.18s WALL (    1072 calls)
     fft          :    106.59s CPU    108.54s WALL (    2209 calls)
     ffts         :     26.33s CPU     26.39s WALL (   15125 calls)
     fftw         :    502.62s CPU    504.00s WALL (  411424 calls)
     interpolate  :      3.28s CPU      3.62s WALL (     244 calls)
 
     Parallel routines
 
     PWSCF        :  40m25.68s CPU  41m45.67s WALL

 
   This run was terminated on:  23:13:19  17Nov2025            

=------------------------------------------------------------------------------=
   JOB DONE.
=------------------------------------------------------------------------------=
