
     Program PWSCF v.7.2 starts on 17Nov2025 at 20:37: 4 

     This program is part of the open-source Quantum ESPRESSO suite
     for quantum simulation of materials; please cite
         "P. Giannozzi et al., J. Phys.:Condens. Matter 21 395502 (2009);
         "P. Giannozzi et al., J. Phys.:Condens. Matter 29 465901 (2017);
         "P. Giannozzi et al., J. Chem. Phys. 152 154105 (2020);
          URL http://www.quantum-espresso.org", 
     in publications or presentations arising from this work. More details at
     http://www.quantum-espresso.org/quote

     Parallel version (MPI), running on    64 processors

     MPI processes distributed on     4 nodes
     445065 MiB available memory on the printing compute node when the environment starts
 
     Reading input from PWINPUT_atm157_zp

     Current dimensions of program PWSCF are:
     Max number of different atomic species (ntypx) = 10
     Max number of k-points (npk) =  40000
     Max angular momentum in pseudopotentials (lmaxx) =  4
     Presently no symmetry can be used with electric field

     file Ni.pbe-n-rrkjus_psl.1.0.0.UPF: wavefunction(s)  3D renormalized
     file Mn.pbe-spn-rrkjus_psl.0.3.1.UPF: wavefunction(s)  3D renormalized
     file O.pbe-rrkjus.UPF: wavefunction(s)  2S renormalized
     file H.pbe-rrkjus.UPF: wavefunction(s)  1S renormalized

     gamma-point specific algorithms are used
 
     R & G space division:  proc/nbgrp/npool/nimage =      64
     Subspace diagonalization in iterative solution of the eigenvalue problem:
     one sub-group per band group will be used
     custom distributed-memory algorithm (size of sub-group:  7*  7 procs)

 
     Parallelization info
     --------------------
     sticks:   dense  smooth     PW     G-vecs:    dense   smooth      PW
     Min         214      85     20                61830    15614    1928
     Max         216      86     22                61864    15658    1982
     Sum       13727    5503   1375              3958051  1001255  125211
 
     Using Slab Decomposition
 


     bravais-lattice index     =            0
     lattice parameter (alat)  =      17.8532  a.u.
     unit-cell volume          =   20962.6682 (a.u.)^3
     number of atoms/cell      =          158
     number of atomic types    =            5
     number of electrons       =      1108.00
     number of Kohn-Sham states=          665
     kinetic-energy cutoff     =      50.0000  Ry
     charge density cutoff     =     500.0000  Ry
     scf convergence threshold =      1.0E-06
     mixing beta               =       0.1000
     number of iterations used =            8  local-TF  mixing
     Exchange-correlation=  SLA  PW   PBE  PBE
                           (   1   4   3   4   0   0   0)

     celldm(1)=  17.853155  celldm(2)=   0.000000  celldm(3)=   0.000000
     celldm(4)=   0.000000  celldm(5)=   0.000000  celldm(6)=   0.000000

     crystal axes: (cart. coord. in units of alat)
               a(1) = (   1.000000   0.000000   0.000000 )  
               a(2) = (   0.003237   1.081997   0.000000 )  
               a(3) = (   0.000000   0.000000   3.404673 )  

     reciprocal axes: (cart. coord. in units 2 pi/alat)
               b(1) = (  1.000000 -0.002992  0.000000 )  
               b(2) = (  0.000000  0.924217  0.000000 )  
               b(3) = (  0.000000  0.000000  0.293714 )  


     PseudoPot. # 1 for Ni read from file:
     ~/PSEUDO/Ni.pbe-n-rrkjus_psl.1.0.0.UPF
     MD5 check sum: Not computed, couldn't open file
     Pseudo is Ultrasoft + core correction, Zval = 10.0
     Generated using "atomic" code by A. Dal Corso  v.5.1.2
     Using radial grid of 1195 points,  6 beta functions with: 
                l(1) =   0
                l(2) =   0
                l(3) =   1
                l(4) =   1
                l(5) =   2
                l(6) =   2
     Q(r) pseudized with 0 coefficients 


     PseudoPot. # 2 for Mn read from file:
     ~/PSEUDO/Mn.pbe-spn-rrkjus_psl.0.3.1.UPF
     MD5 check sum: Not computed, couldn't open file
     Pseudo is Ultrasoft + core correction, Zval = 15.0
     Generated using &quot;atomic&quot; code by A. Dal Corso  v.6.2.2
     Using radial grid of 1187 points,  6 beta functions with: 
                l(1) =   0
                l(2) =   0
                l(3) =   1
                l(4) =   1
                l(5) =   2
                l(6) =   2
     Q(r) pseudized with 0 coefficients 


     PseudoPot. # 3 for P  read from file:
     ~/PSEUDO/P.pbe-n-rrkjus_psl.1.0.0.UPF
     MD5 check sum: Not computed, couldn't open file
     Pseudo is Ultrasoft + core correction, Zval =  5.0
     Generated using "atomic" code by A. Dal Corso  v.5.1
     Using radial grid of 1147 points,  6 beta functions with: 
                l(1) =   0
                l(2) =   0
                l(3) =   1
                l(4) =   1
                l(5) =   2
                l(6) =   2
     Q(r) pseudized with 0 coefficients 


     PseudoPot. # 4 for O  read from file:
     ~/PSEUDO/O.pbe-rrkjus.UPF
     MD5 check sum: Not computed, couldn't open file
     Pseudo is Ultrasoft, Zval =  6.0
     Generated by new atomic code, or converted to UPF format
     Using radial grid of 1269 points,  4 beta functions with: 
                l(1) =   0
                l(2) =   0
                l(3) =   1
                l(4) =   1
     Q(r) pseudized with 0 coefficients 


     PseudoPot. # 5 for H  read from file:
     ~/PSEUDO/H.pbe-rrkjus.UPF
     MD5 check sum: Not computed, couldn't open file
     Pseudo is Ultrasoft, Zval =  1.0
     Generated by new atomic code, or converted to UPF format
     Using radial grid of 1061 points,  2 beta functions with: 
                l(1) =   0
                l(2) =   0
     Q(r) pseudized with 0 coefficients 


     atomic species   valence    mass     pseudopotential
     Ni               10.00    58.69300     Ni( 1.00)
     Mn               15.00    54.93800     Mn( 1.00)
     P                 5.00    30.97300     P ( 1.00)
     O                 6.00    15.99900     O ( 1.00)
     H                 1.00     1.00790     H ( 1.00)

     Starting magnetic structure 
     atomic species   magnetization
     Ni              1.000
     Mn              1.000
     P               1.000
     O               1.000
     H               0.000

     No symmetry found



   Cartesian axes

     site n.     atom                  positions (alat units)
         1        Ni     tau(   1) = (   0.2448189   0.8359134   0.1216996  )
         2        Ni     tau(   2) = (   0.4920952   0.7731948   0.4438949  )
         3        Mn     tau(   3) = (   0.0113021   0.2918949   0.1160512  )
         4        Ni     tau(   4) = (   0.2586115   0.2268566   0.4417628  )
         5        Ni     tau(   5) = (   1.0019827   1.0705803   0.2835623  )
         6        Ni     tau(   6) = (   0.2518099   0.5339061   0.2823483  )
         7        Ni     tau(   7) = (   0.7400999   0.8349186   0.1225624  )
         8        Mn     tau(   8) = (   0.9886961   0.7700845   0.4492175  )
         9        Mn     tau(   9) = (   0.5113421   0.2944667   0.1158892  )
        10        Ni     tau(  10) = (   0.7560857   0.2263843   0.4422798  )
        11        Ni     tau(  11) = (   0.5009386   1.0712238   0.2822610  )
        12        Ni     tau(  12) = (   0.7496978   0.5336600   0.2834396  )
        13        P      tau(  13) = (   0.2147792   0.9686896   0.4382665  )
        14        P      tau(  14) = (   0.4607377   0.6441916   0.1265334  )
        15        P      tau(  15) = (   0.2883218   0.0913464   0.1265752  )
        16        P      tau(  16) = (   0.0408981   0.4221836   0.4354960  )
        17        O      tau(  17) = (   0.1380864   0.9007819   0.3023220  )
        18        O      tau(  18) = (   0.3817439   0.7113683   0.2624610  )
        19        O      tau(  19) = (   0.3638364   0.1608547   0.2624417  )
        20        O      tau(  20) = (   0.1207568   0.3545755   0.3021219  )
        21        O      tau(  21) = (   0.1552194   0.8797563   0.5625160  )
        22        O      tau(  22) = (   0.4022820   0.7317969   0.0010585  )
        23        O      tau(  23) = (   0.3454844   0.1823965   0.0026336  )
        24        O      tau(  24) = (   0.1017019   0.3344979   0.5594858  )
        25        O      tau(  25) = (   0.0970074   0.5770714   0.4346455  )
        26        O      tau(  26) = (   0.3534166   1.0203677   0.1270707  )
        27        O      tau(  27) = (   0.3778024   0.4172402   0.4261028  )
        28        O      tau(  28) = (   0.1256171   0.0954063   0.1372153  )
        29        O      tau(  29) = (   0.1232168   0.6482422   0.1385172  )
        30        O      tau(  30) = (   0.4028533   0.4897833   0.1289718  )
        31        O      tau(  31) = (   0.1511050   0.0405554   0.4369979  )
        32        O      tau(  32) = (   0.3776556   0.9624293   0.4288159  )
        33        P      tau(  33) = (   0.7084770   0.9682119   0.4394551  )
        34        P      tau(  34) = (   0.9603154   0.6409658   0.1292469  )
        35        P      tau(  35) = (   0.7875734   0.0899770   0.1274098  )
        36        P      tau(  36) = (   0.5405152   0.4272620   0.4364455  )
        37        O      tau(  37) = (   0.6323583   0.8977630   0.3036670  )
        38        O      tau(  38) = (   0.8809646   0.7091921   0.2627111  )
        39        O      tau(  39) = (   0.8631054   0.1587239   0.2636487  )
        40        O      tau(  40) = (   0.6202581   0.3578380   0.3034239  )
        41        O      tau(  41) = (   0.6499160   0.8772596   0.5630912  )
        42        O      tau(  42) = (   0.8990171   0.7283464   0.0054426  )
        43        O      tau(  43) = (   0.8448361   0.1806154   0.0030658  )
        44        O      tau(  44) = (   0.6023096   0.3392612   0.5600469  )
        45        O      tau(  45) = (   0.5960222   0.5826131   0.4346340  )
        46        O      tau(  46) = (   0.8515023   1.0184215   0.1281632  )
        47        O      tau(  47) = (   0.8779640   0.4148900   0.4260983  )
        48        O      tau(  48) = (   0.6251159   0.0957170   0.1376895  )
        49        O      tau(  49) = (   0.6237654   0.6481585   0.1378370  )
        50        O      tau(  50) = (   0.9038046   0.4863338   0.1307354  )
        51        O      tau(  51) = (   0.6458737   0.0402574   0.4377979  )
        52        O      tau(  52) = (   0.8712434   0.9635255   0.4285638  )
        53        Ni     tau(  53) = (   0.2420320   0.8169913   0.7491577  )
        54        Ni     tau(  54) = (   0.4893084   0.7542727   1.0713530  )
        55        Mn     tau(  55) = (   0.0085152   0.2729728   0.7435093  )
        56        Ni     tau(  56) = (   0.2558246   0.2079345   1.0692209  )
        57        Ni     tau(  57) = (   0.9991959   1.0516583   0.9110204  )
        58        Ni     tau(  58) = (   0.2490231   0.5149840   0.9098064  )
        59        Ni     tau(  59) = (   0.7373131   0.8159965   0.7500205  )
        60        Mn     tau(  60) = (   0.9859093   0.7511625   1.0766756  )
        61        Mn     tau(  61) = (   0.5085552   0.2755447   0.7433473  )
        62        Ni     tau(  62) = (   0.7532989   0.2074622   1.0697379  )
        63        Ni     tau(  63) = (   0.4981517   1.0523018   0.9097191  )
        64        Ni     tau(  64) = (   0.7469109   0.5147379   0.9108977  )
        65        P      tau(  65) = (   0.2119924   0.9497675   1.0657246  )
        66        P      tau(  66) = (   0.4579509   0.6252695   0.7539915  )
        67        P      tau(  67) = (   0.2855349   0.0724244   0.7540333  )
        68        P      tau(  68) = (   0.0381112   0.4032615   1.0629541  )
        69        O      tau(  69) = (   0.1352995   0.8818598   0.9297801  )
        70        O      tau(  70) = (   0.3789570   0.6924463   0.8899191  )
        71        O      tau(  71) = (   0.3610496   0.1419327   0.8898998  )
        72        O      tau(  72) = (   0.1179700   0.3356534   0.9295800  )
        73        O      tau(  73) = (   0.1524325   0.8608343   1.1899741  )
        74        O      tau(  74) = (   0.3994952   0.7128748   0.6285166  )
        75        O      tau(  75) = (   0.3426976   0.1634744   0.6300917  )
        76        O      tau(  76) = (   0.0989151   0.3155758   1.1869439  )
        77        O      tau(  77) = (   0.0942206   0.5581494   1.0621036  )
        78        O      tau(  78) = (   0.3506297   1.0014456   0.7545288  )
        79        O      tau(  79) = (   0.3750155   0.3983181   1.0535609  )
        80        O      tau(  80) = (   0.1228303   0.0764842   0.7646734  )
        81        O      tau(  81) = (   0.1204299   0.6293201   0.7659753  )
        82        O      tau(  82) = (   0.4000664   0.4708612   0.7564299  )
        83        O      tau(  83) = (   0.1483182   0.0216333   1.0644560  )
        84        O      tau(  84) = (   0.3748687   0.9435072   1.0562740  )
        85        P      tau(  85) = (   0.7056901   0.9492898   1.0669132  )
        86        P      tau(  86) = (   0.9575286   0.6220438   0.7567050  )
        87        P      tau(  87) = (   0.7847866   0.0710549   0.7548679  )
        88        P      tau(  88) = (   0.5377283   0.4083400   1.0639036  )
        89        O      tau(  89) = (   0.6295714   0.8788409   0.9311251  )
        90        O      tau(  90) = (   0.8781778   0.6902700   0.8901692  )
        91        O      tau(  91) = (   0.8603186   0.1398018   0.8911068  )
        92        O      tau(  92) = (   0.6174712   0.3389159   0.9308820  )
        93        O      tau(  93) = (   0.6471291   0.8583376   1.1905493  )
        94        O      tau(  94) = (   0.8962302   0.7094244   0.6329007  )
        95        O      tau(  95) = (   0.8420493   0.1616933   0.6305239  )
        96        O      tau(  96) = (   0.5995227   0.3203391   1.1875050  )
        97        O      tau(  97) = (   0.5932354   0.5636910   1.0620921  )
        98        O      tau(  98) = (   0.8487155   0.9994995   0.7556213  )
        99        O      tau(  99) = (   0.8751772   0.3959680   1.0535564  )
       100        O      tau( 100) = (   0.6223291   0.0767949   0.7651476  )
       101        O      tau( 101) = (   0.6209785   0.6292365   0.7652951  )
       102        O      tau( 102) = (   0.9010178   0.4674118   0.7581935  )
       103        O      tau( 103) = (   0.6430869   0.0213354   1.0652560  )
       104        O      tau( 104) = (   0.8684566   0.9446034   1.0560219  )
       105        Ni     tau( 105) = (   0.2384978   0.7977595   1.3788694  )
       106        Ni     tau( 106) = (   0.4977364   0.7374783   1.6806186  )
       107        Mn     tau( 107) = (   0.0074064   0.2578144   1.3744489  )
       108        Ni     tau( 108) = (   0.2437957   0.1954136   1.6827143  )
       109        Ni     tau( 109) = (   1.0006497   1.0326434   1.5404833  )
       110        Ni     tau( 110) = (   0.2439992   0.4967508   1.5401191  )
       111        Ni     tau( 111) = (   0.7374428   0.7984296   1.3777262  )
       112        Mn     tau( 112) = (   0.9966803   0.7366577   1.7115429  )
       113        Mn     tau( 113) = (   0.5076556   0.2589984   1.3732312  )
       114        Ni     tau( 114) = (   0.7423887   0.1965493   1.6832389  )
       115        Ni     tau( 115) = (   0.4997824   1.0361881   1.5381360  )
       116        Ni     tau( 116) = (   0.7435623   0.4992904   1.5465492  )
       117        P      tau( 117) = (   0.2144549   0.9278899   1.6995636  )
       118        P      tau( 118) = (   0.4551955   0.6050722   1.3802014  )
       119        P      tau( 119) = (   0.2849604   0.0539795   1.3804579  )
       120        P      tau( 120) = (   0.0337229   0.3834112   1.7005366  )
       121        O      tau( 121) = (   0.1305203   0.8570033   1.5637456  )
       122        O      tau( 122) = (   0.3757482   0.6729749   1.5155776  )
       123        O      tau( 123) = (   0.3613724   0.1249247   1.5151439  )
       124        O      tau( 124) = (   0.1129169   0.3224918   1.5571838  )
       125        O      tau( 125) = (   0.1580226   0.8374540   1.8209462  )
       126        O      tau( 126) = (   0.3964371   0.6927973   1.2548158  )
       127        O      tau( 127) = (   0.3425460   0.1434071   1.2554580  )
       128        O      tau( 128) = (   0.0951476   0.2873483   1.8142913  )
       129        O      tau( 129) = (   0.0915744   0.5399361   1.6925782  )
       130        O      tau( 130) = (   0.3476648   0.9823179   1.3836286  )
       131        O      tau( 131) = (   0.3686904   0.3789818   1.6819772  )
       132        O      tau( 132) = (   0.1222508   0.0604368   1.3930584  )
       133        O      tau( 133) = (   0.1179118   0.6106013   1.3948723  )
       134        O      tau( 134) = (   0.3966368   0.4509867   1.3826334  )
       135        O      tau( 135) = (   0.1546825   0.0015702   1.6934648  )
       136        O      tau( 136) = (   0.3773232   0.9216783   1.6812421  )
       137        P      tau( 137) = (   0.7088550   0.9300633   1.6956615  )
       138        P      tau( 138) = (   0.9546391   0.6039920   1.3882016  )
       139        P      tau( 139) = (   0.7861313   0.0539690   1.3808971  )
       140        P      tau( 140) = (   0.5320716   0.3863344   1.7004805  )
       141        O      tau( 141) = (   0.6333026   0.8679629   1.5520824  )
       142        O      tau( 142) = (   0.8777710   0.6729500   1.5224461  )
       143        O      tau( 143) = (   0.8617708   0.1227652   1.5169485  )
       144        O      tau( 144) = (   0.6127642   0.3270143   1.5579163  )
       145        O      tau( 145) = (   0.6483538   0.8329242   1.8103769  )
       146        O      tau( 146) = (   0.8943529   0.6911253   1.2630188  )
       147        O      tau( 147) = (   0.8429851   0.1446062   1.2562262  )
       148        O      tau( 148) = (   0.5929067   0.2897237   1.8141651  )
       149        O      tau( 149) = (   0.5848154   0.5442225   1.6989682  )
       150        O      tau( 150) = (   0.8496775   0.9825043   1.3815819  )
       151        O      tau( 151) = (   0.8705103   0.3772225   1.6832178  )
       152        O      tau( 152) = (   0.6234977   0.0619490   1.3925952  )
       153        O      tau( 153) = (   0.6178427   0.6111075   1.3950142  )
       154        O      tau( 154) = (   0.8977226   0.4494998   1.3884974  )
       155        O      tau( 155) = (   0.6505054   0.0039779   1.6957510  )
       156        O      tau( 156) = (   0.8731762   0.9239488   1.6850968  )
       157        O      tau( 157) = (   0.8871652   0.6670336   1.8464996  )
       158        H      tau( 158) = (   0.7940650   0.7158124   1.8550683  )

     -------------------------------------------------
     Parameters for Dispersion (Grimme-D2) Correction:
     -------------------------------------------------
       atom      VdW radius       C_6     

        Ni         2.952        374.666
        Mn         2.952        374.666
        P          3.222        271.980
        O          2.536         24.284
        H          1.892          4.857

     number of k points=     1  Gaussian smearing, width (Ry)=  0.0100
                       cart. coord. in units 2pi/alat
        k(    1) = (   0.0000000   0.0000000   0.0000000), wk =   1.0000000

     Dense  grid:  1979026 G-vectors     FFT dimensions: ( 128, 144, 450)

     Smooth grid:   500628 G-vectors     FFT dimensions: (  81,  90, 288)

     Estimated max dynamical RAM per process >     333.40 MB

     Estimated total dynamical RAM >      20.84 GB

     Check: negative core charge=   -0.000002
     Generating pointlists ...
     new r_m :   0.0878 (alat units)  1.5669 (a.u.) for type    1
     new r_m :   0.0772 (alat units)  1.3788 (a.u.) for type    2
     new r_m :   0.0664 (alat units)  1.1861 (a.u.) for type    3
     new r_m :   0.0435 (alat units)  0.7766 (a.u.) for type    4
     new r_m :   0.0435 (alat units)  0.7766 (a.u.) for type    5

     Initial potential from superposition of free atoms

     starting charge    1107.8886, renormalised to    1108.0000

     negative rho (up, down):  1.549E-03 4.665E-04
 
     Adding external electric field

     Computed dipole along edir(3) : 
        Dipole                1.6140 Ry au,          4.1023 Debye
        Dipole field          0.0010 Ry au, 
 
        Potential amp.       -0.1059 Ry
        Total length         54.7057 bohr
 
 
     Adding external electric field

     Computed dipole along edir(3) : 
        Dipole                1.6140 Ry au,          4.1023 Debye
        Dipole field          0.0010 Ry au, 
 
        Potential amp.       -0.1059 Ry
        Total length         54.7057 bohr
 
     Starting wfcs are  818 randomized atomic wfcs

     total cpu time spent up to now is       14.3 secs

     Self-consistent Calculation

     iteration #  1     ecut=    50.00 Ry     beta= 0.10
     Davidson diagonalization with overlap
     ethr =  1.00E-02,  avg # of iterations =  5.5

     negative rho (up, down):  4.284E-01 7.525E-07
 
     Adding external electric field

     Computed dipole along edir(3) : 
        Dipole               -3.7813 Ry au,         -9.6110 Debye
        Dipole field         -0.0023 Ry au, 
 
        Potential amp.        0.2480 Ry
        Total length         54.7057 bohr
 
 
     Adding external electric field

     Computed dipole along edir(3) : 
        Dipole               -3.7813 Ry au,         -9.6110 Debye
        Dipole field         -0.0023 Ry au, 
 
        Potential amp.        0.2480 Ry
        Total length         54.7057 bohr
 

     total cpu time spent up to now is       58.1 secs

     total energy              =   -7857.69727786 Ry
     estimated scf accuracy    <     744.86663336 Ry

     total magnetization       =   222.00 Bohr mag/cell
     absolute magnetization    =   318.98 Bohr mag/cell

     iteration #  2     ecut=    50.00 Ry     beta= 0.10
     Davidson diagonalization with overlap
     ethr =  1.00E-02,  avg # of iterations =  2.0

     negative rho (up, down):  4.033E-01 3.805E-07
 
     Adding external electric field

     Computed dipole along edir(3) : 
        Dipole               -2.5608 Ry au,         -6.5090 Debye
        Dipole field         -0.0015 Ry au, 
 
        Potential amp.        0.1680 Ry
        Total length         54.7057 bohr
 
 
     Adding external electric field

     Computed dipole along edir(3) : 
        Dipole               -2.5608 Ry au,         -6.5090 Debye
        Dipole field         -0.0015 Ry au, 
 
        Potential amp.        0.1680 Ry
        Total length         54.7057 bohr
 

     total cpu time spent up to now is       83.3 secs

     total energy              =   -7939.28429129 Ry
     estimated scf accuracy    <     210.24666589 Ry

     total magnetization       =   166.71 Bohr mag/cell
     absolute magnetization    =   213.50 Bohr mag/cell

     iteration #  3     ecut=    50.00 Ry     beta= 0.10
     Davidson diagonalization with overlap
     ethr =  1.00E-02,  avg # of iterations =  1.5

     negative rho (up, down):  3.612E-01 3.426E-07
 
     Adding external electric field

     Computed dipole along edir(3) : 
        Dipole               -2.2338 Ry au,         -5.6776 Debye
        Dipole field         -0.0013 Ry au, 
 
        Potential amp.        0.1465 Ry
        Total length         54.7057 bohr
 
 
     Adding external electric field

     Computed dipole along edir(3) : 
        Dipole               -2.2338 Ry au,         -5.6776 Debye
        Dipole field         -0.0013 Ry au, 
 
        Potential amp.        0.1465 Ry
        Total length         54.7057 bohr
 

     total cpu time spent up to now is      103.9 secs

     total energy              =   -7968.24442457 Ry
     estimated scf accuracy    <     104.67447409 Ry

     total magnetization       =   143.55 Bohr mag/cell
     absolute magnetization    =   192.53 Bohr mag/cell

     iteration #  4     ecut=    50.00 Ry     beta= 0.10
     Davidson diagonalization with overlap
     ethr =  9.45E-03,  avg # of iterations =  1.0

     negative rho (up, down):  2.893E-01 1.461E-07
 
     Adding external electric field

     Computed dipole along edir(3) : 
        Dipole               -2.0677 Ry au,         -5.2556 Debye
        Dipole field         -0.0012 Ry au, 
 
        Potential amp.        0.1356 Ry
        Total length         54.7057 bohr
 
 
     Adding external electric field

     Computed dipole along edir(3) : 
        Dipole               -2.0677 Ry au,         -5.2556 Debye
        Dipole field         -0.0012 Ry au, 
 
        Potential amp.        0.1356 Ry
        Total length         54.7057 bohr
 

     total cpu time spent up to now is      122.8 secs

     total energy              =   -8000.21668784 Ry
     estimated scf accuracy    <      85.39214768 Ry

     total magnetization       =   128.58 Bohr mag/cell
     absolute magnetization    =   178.87 Bohr mag/cell

     iteration #  5     ecut=    50.00 Ry     beta= 0.10
     Davidson diagonalization with overlap
     ethr =  7.71E-03,  avg # of iterations =  1.0

     negative rho (up, down):  5.768E-02 1.317E-08
 
     Adding external electric field

     Computed dipole along edir(3) : 
        Dipole               -1.6406 Ry au,         -4.1700 Debye
        Dipole field         -0.0010 Ry au, 
 
        Potential amp.        0.1076 Ry
        Total length         54.7057 bohr
 
 
     Adding external electric field

     Computed dipole along edir(3) : 
        Dipole               -1.6406 Ry au,         -4.1700 Debye
        Dipole field         -0.0010 Ry au, 
 
        Potential amp.        0.1076 Ry
        Total length         54.7057 bohr
 

     total cpu time spent up to now is      141.9 secs

     total energy              =   -8059.73775145 Ry
     estimated scf accuracy    <      69.29423407 Ry

     total magnetization       =   106.57 Bohr mag/cell
     absolute magnetization    =   160.48 Bohr mag/cell

     iteration #  6     ecut=    50.00 Ry     beta= 0.10
     Davidson diagonalization with overlap
     ethr =  6.25E-03,  avg # of iterations =  1.0

     negative rho (up, down):  7.266E-04 1.514E-03
 
     Adding external electric field

     Computed dipole along edir(3) : 
        Dipole               -1.2776 Ry au,         -3.2475 Debye
        Dipole field         -0.0008 Ry au, 
 
        Potential amp.        0.0838 Ry
        Total length         54.7057 bohr
 
 
     Adding external electric field

     Computed dipole along edir(3) : 
        Dipole               -1.2776 Ry au,         -3.2475 Debye
        Dipole field         -0.0008 Ry au, 
 
        Potential amp.        0.0838 Ry
        Total length         54.7057 bohr
 

     total cpu time spent up to now is      160.4 secs

     total energy              =   -8075.90578457 Ry
     estimated scf accuracy    <      18.33512266 Ry

     total magnetization       =   100.00 Bohr mag/cell
     absolute magnetization    =   134.53 Bohr mag/cell

     iteration #  7     ecut=    50.00 Ry     beta= 0.10
     Davidson diagonalization with overlap
     ethr =  1.65E-03,  avg # of iterations =  7.0

     negative rho (up, down):  7.103E-04 1.479E-03
 
     Adding external electric field

     Computed dipole along edir(3) : 
        Dipole               -1.2605 Ry au,         -3.2039 Debye
        Dipole field         -0.0008 Ry au, 
 
        Potential amp.        0.0827 Ry
        Total length         54.7057 bohr
 
 
     Adding external electric field

     Computed dipole along edir(3) : 
        Dipole               -1.2605 Ry au,         -3.2039 Debye
        Dipole field         -0.0008 Ry au, 
 
        Potential amp.        0.0827 Ry
        Total length         54.7057 bohr
 

     total cpu time spent up to now is      196.6 secs

     total energy              =   -8079.01052680 Ry
     estimated scf accuracy    <      34.47617048 Ry

     total magnetization       =    64.69 Bohr mag/cell
     absolute magnetization    =    82.95 Bohr mag/cell

     iteration #  8     ecut=    50.00 Ry     beta= 0.10
     Davidson diagonalization with overlap
     ethr =  1.65E-03,  avg # of iterations =  1.0

     negative rho (up, down):  7.230E-04 1.520E-03
 
     Adding external electric field

     Computed dipole along edir(3) : 
        Dipole               -1.2790 Ry au,         -3.2508 Debye
        Dipole field         -0.0008 Ry au, 
 
        Potential amp.        0.0839 Ry
        Total length         54.7057 bohr
 
 
     Adding external electric field

     Computed dipole along edir(3) : 
        Dipole               -1.2790 Ry au,         -3.2508 Debye
        Dipole field         -0.0008 Ry au, 
 
        Potential amp.        0.0839 Ry
        Total length         54.7057 bohr
 

     total cpu time spent up to now is      215.0 secs

     total energy              =   -8079.15395397 Ry
     estimated scf accuracy    <      33.29324958 Ry

     total magnetization       =    65.28 Bohr mag/cell
     absolute magnetization    =    83.01 Bohr mag/cell

     iteration #  9     ecut=    50.00 Ry     beta= 0.10
     Davidson diagonalization with overlap
     ethr =  1.65E-03,  avg # of iterations =  1.0

     negative rho (up, down):  6.476E-04 1.468E-03
 
     Adding external electric field

     Computed dipole along edir(3) : 
        Dipole               -1.2074 Ry au,         -3.0690 Debye
        Dipole field         -0.0007 Ry au, 
 
        Potential amp.        0.0792 Ry
        Total length         54.7057 bohr
 
 
     Adding external electric field

     Computed dipole along edir(3) : 
        Dipole               -1.2074 Ry au,         -3.0690 Debye
        Dipole field         -0.0007 Ry au, 
 
        Potential amp.        0.0792 Ry
        Total length         54.7057 bohr
 

     total cpu time spent up to now is      234.4 secs

     total energy              =   -8079.01203931 Ry
     estimated scf accuracy    <      34.97694367 Ry

     total magnetization       =    64.53 Bohr mag/cell
     absolute magnetization    =    82.02 Bohr mag/cell

     iteration # 10     ecut=    50.00 Ry     beta= 0.10
     Davidson diagonalization with overlap
     ethr =  1.65E-03,  avg # of iterations =  1.0

     negative rho (up, down):  6.787E-04 1.850E-03
 
     Adding external electric field

     Computed dipole along edir(3) : 
        Dipole               -1.1555 Ry au,         -2.9370 Debye
        Dipole field         -0.0007 Ry au, 
 
        Potential amp.        0.0758 Ry
        Total length         54.7057 bohr
 
 
     Adding external electric field

     Computed dipole along edir(3) : 
        Dipole               -1.1555 Ry au,         -2.9370 Debye
        Dipole field         -0.0007 Ry au, 
 
        Potential amp.        0.0758 Ry
        Total length         54.7057 bohr
 

     total cpu time spent up to now is      252.9 secs

     total energy              =   -8078.87306978 Ry
     estimated scf accuracy    <      30.38425864 Ry

     total magnetization       =    66.23 Bohr mag/cell
     absolute magnetization    =    82.88 Bohr mag/cell

     iteration # 11     ecut=    50.00 Ry     beta= 0.10
     Davidson diagonalization with overlap
     ethr =  1.65E-03,  avg # of iterations =  1.0

     negative rho (up, down):  6.301E-04 1.529E-03
 
     Adding external electric field

     Computed dipole along edir(3) : 
        Dipole               -1.1302 Ry au,         -2.8727 Debye
        Dipole field         -0.0007 Ry au, 
 
        Potential amp.        0.0741 Ry
        Total length         54.7057 bohr
 
 
     Adding external electric field

     Computed dipole along edir(3) : 
        Dipole               -1.1302 Ry au,         -2.8727 Debye
        Dipole field         -0.0007 Ry au, 
 
        Potential amp.        0.0741 Ry
        Total length         54.7057 bohr
 

     total cpu time spent up to now is      270.7 secs

     total energy              =   -8078.96124922 Ry
     estimated scf accuracy    <      26.93988419 Ry

     total magnetization       =    67.43 Bohr mag/cell
     absolute magnetization    =    83.33 Bohr mag/cell

     iteration # 12     ecut=    50.00 Ry     beta= 0.10
     Davidson diagonalization with overlap
     ethr =  1.65E-03,  avg # of iterations =  1.0

     negative rho (up, down):  1.789E-02 2.374E-02
 
     Adding external electric field

     Computed dipole along edir(3) : 
        Dipole               -1.0707 Ry au,         -2.7216 Debye
        Dipole field         -0.0006 Ry au, 
 
        Potential amp.        0.0702 Ry
        Total length         54.7057 bohr
 
 
     Adding external electric field

     Computed dipole along edir(3) : 
        Dipole               -1.0707 Ry au,         -2.7216 Debye
        Dipole field         -0.0006 Ry au, 
 
        Potential amp.        0.0702 Ry
        Total length         54.7057 bohr
 

     total cpu time spent up to now is      288.5 secs

     total energy              =   -8078.01112689 Ry
     estimated scf accuracy    <      27.73612518 Ry

     total magnetization       =    67.34 Bohr mag/cell
     absolute magnetization    =    83.24 Bohr mag/cell

     iteration # 13     ecut=    50.00 Ry     beta= 0.10
     Davidson diagonalization with overlap
     ethr =  1.65E-03,  avg # of iterations =  1.0

     negative rho (up, down):  2.819E-02 3.650E-02
 
     Adding external electric field

     Computed dipole along edir(3) : 
        Dipole               -0.9400 Ry au,         -2.3893 Debye
        Dipole field         -0.0006 Ry au, 
 
        Potential amp.        0.0617 Ry
        Total length         54.7057 bohr
 
 
     Adding external electric field

     Computed dipole along edir(3) : 
        Dipole               -0.9400 Ry au,         -2.3893 Debye
        Dipole field         -0.0006 Ry au, 
 
        Potential amp.        0.0617 Ry
        Total length         54.7057 bohr
 

     total cpu time spent up to now is      307.4 secs

     total energy              =   -8078.39850389 Ry
     estimated scf accuracy    <      12.02399785 Ry

     total magnetization       =    82.30 Bohr mag/cell
     absolute magnetization    =    93.85 Bohr mag/cell

     iteration # 14     ecut=    50.00 Ry     beta= 0.10
     Davidson diagonalization with overlap
     ethr =  1.09E-03,  avg # of iterations =  1.0

     negative rho (up, down):  7.055E-02 7.398E-02
 
     Adding external electric field

     Computed dipole along edir(3) : 
        Dipole               -0.6707 Ry au,         -1.7047 Debye
        Dipole field         -0.0004 Ry au, 
 
        Potential amp.        0.0440 Ry
        Total length         54.7057 bohr
 
 
     Adding external electric field

     Computed dipole along edir(3) : 
        Dipole               -0.6707 Ry au,         -1.7047 Debye
        Dipole field         -0.0004 Ry au, 
 
        Potential amp.        0.0440 Ry
        Total length         54.7057 bohr
 

     total cpu time spent up to now is      325.8 secs

     total energy              =   -8078.28418207 Ry
     estimated scf accuracy    <       8.37286137 Ry

     total magnetization       =    84.63 Bohr mag/cell
     absolute magnetization    =    94.54 Bohr mag/cell

     iteration # 15     ecut=    50.00 Ry     beta= 0.10
     Davidson diagonalization with overlap
     ethr =  7.56E-04,  avg # of iterations =  2.0

     negative rho (up, down):  5.923E-02 6.452E-02
 
     Adding external electric field

     Computed dipole along edir(3) : 
        Dipole               -0.6573 Ry au,         -1.6707 Debye
        Dipole field         -0.0004 Ry au, 
 
        Potential amp.        0.0431 Ry
        Total length         54.7057 bohr
 
 
     Adding external electric field

     Computed dipole along edir(3) : 
        Dipole               -0.6573 Ry au,         -1.6707 Debye
        Dipole field         -0.0004 Ry au, 
 
        Potential amp.        0.0431 Ry
        Total length         54.7057 bohr
 

     total cpu time spent up to now is      345.9 secs

     total energy              =   -8078.49696389 Ry
     estimated scf accuracy    <       4.24085749 Ry

     total magnetization       =    94.78 Bohr mag/cell
     absolute magnetization    =   101.46 Bohr mag/cell

     iteration # 16     ecut=    50.00 Ry     beta= 0.10
     Davidson diagonalization with overlap
     ethr =  3.83E-04,  avg # of iterations =  2.0

     negative rho (up, down):  4.814E-02 5.319E-02
 
     Adding external electric field

     Computed dipole along edir(3) : 
        Dipole               -0.6931 Ry au,         -1.7618 Debye
        Dipole field         -0.0004 Ry au, 
 
        Potential amp.        0.0455 Ry
        Total length         54.7057 bohr
 
 
     Adding external electric field

     Computed dipole along edir(3) : 
        Dipole               -0.6931 Ry au,         -1.7618 Debye
        Dipole field         -0.0004 Ry au, 
 
        Potential amp.        0.0455 Ry
        Total length         54.7057 bohr
 

     total cpu time spent up to now is      366.9 secs

     total energy              =   -8078.48400612 Ry
     estimated scf accuracy    <       2.29577588 Ry

     total magnetization       =    95.28 Bohr mag/cell
     absolute magnetization    =   101.88 Bohr mag/cell

     iteration # 17     ecut=    50.00 Ry     beta= 0.10
     Davidson diagonalization with overlap
     ethr =  2.07E-04,  avg # of iterations =  1.5

     negative rho (up, down):  2.499E-02 3.012E-02
 
     Adding external electric field

     Computed dipole along edir(3) : 
        Dipole               -0.7138 Ry au,         -1.8144 Debye
        Dipole field         -0.0004 Ry au, 
 
        Potential amp.        0.0468 Ry
        Total length         54.7057 bohr
 
 
     Adding external electric field

     Computed dipole along edir(3) : 
        Dipole               -0.7138 Ry au,         -1.8144 Debye
        Dipole field         -0.0004 Ry au, 
 
        Potential amp.        0.0468 Ry
        Total length         54.7057 bohr
 

     total cpu time spent up to now is      387.0 secs

     total energy              =   -8078.42669078 Ry
     estimated scf accuracy    <       1.55776974 Ry

     total magnetization       =    95.61 Bohr mag/cell
     absolute magnetization    =   102.15 Bohr mag/cell

     iteration # 18     ecut=    50.00 Ry     beta= 0.10
     Davidson diagonalization with overlap
     ethr =  1.41E-04,  avg # of iterations =  6.0

     negative rho (up, down):  8.897E-03 1.248E-02
 
     Adding external electric field

     Computed dipole along edir(3) : 
        Dipole               -0.7089 Ry au,         -1.8019 Debye
        Dipole field         -0.0004 Ry au, 
 
        Potential amp.        0.0465 Ry
        Total length         54.7057 bohr
 
 
     Adding external electric field

     Computed dipole along edir(3) : 
        Dipole               -0.7089 Ry au,         -1.8019 Debye
        Dipole field         -0.0004 Ry au, 
 
        Potential amp.        0.0465 Ry
        Total length         54.7057 bohr
 

     total cpu time spent up to now is      410.8 secs

     total energy              =   -8078.43449944 Ry
     estimated scf accuracy    <       1.29233161 Ry

     total magnetization       =    94.39 Bohr mag/cell
     absolute magnetization    =   100.80 Bohr mag/cell

     iteration # 19     ecut=    50.00 Ry     beta= 0.10
     Davidson diagonalization with overlap
     ethr =  1.17E-04,  avg # of iterations =  1.5

     negative rho (up, down):  1.428E-02 2.049E-02
 
     Adding external electric field

     Computed dipole along edir(3) : 
        Dipole               -0.6862 Ry au,         -1.7441 Debye
        Dipole field         -0.0004 Ry au, 
 
        Potential amp.        0.0450 Ry
        Total length         54.7057 bohr
 
 
     Adding external electric field

     Computed dipole along edir(3) : 
        Dipole               -0.6862 Ry au,         -1.7441 Debye
        Dipole field         -0.0004 Ry au, 
 
        Potential amp.        0.0450 Ry
        Total length         54.7057 bohr
 

     total cpu time spent up to now is      429.9 secs

     total energy              =   -8078.46056592 Ry
     estimated scf accuracy    <       1.00671424 Ry

     total magnetization       =    94.72 Bohr mag/cell
     absolute magnetization    =   100.32 Bohr mag/cell

     iteration # 20     ecut=    50.00 Ry     beta= 0.10
     Davidson diagonalization with overlap
     ethr =  9.09E-05,  avg # of iterations =  2.0

     negative rho (up, down):  1.680E-03 4.622E-03
 
     Adding external electric field

     Computed dipole along edir(3) : 
        Dipole               -0.6998 Ry au,         -1.7788 Debye
        Dipole field         -0.0004 Ry au, 
 
        Potential amp.        0.0459 Ry
        Total length         54.7057 bohr
 
 
     Adding external electric field

     Computed dipole along edir(3) : 
        Dipole               -0.6998 Ry au,         -1.7788 Debye
        Dipole field         -0.0004 Ry au, 
 
        Potential amp.        0.0459 Ry
        Total length         54.7057 bohr
 

     total cpu time spent up to now is      450.9 secs

     total energy              =   -8078.41846540 Ry
     estimated scf accuracy    <       0.68423675 Ry

     total magnetization       =    96.45 Bohr mag/cell
     absolute magnetization    =   101.03 Bohr mag/cell

     iteration # 21     ecut=    50.00 Ry     beta= 0.10
     Davidson diagonalization with overlap
     c_bands:  5 eigenvalues not converged
     ethr =  6.18E-05,  avg # of iterations = 11.0

     negative rho (up, down):  1.173E-03 4.054E-03
 
     Adding external electric field

     Computed dipole along edir(3) : 
        Dipole               -0.7046 Ry au,         -1.7909 Debye
        Dipole field         -0.0004 Ry au, 
 
        Potential amp.        0.0462 Ry
        Total length         54.7057 bohr
 
 
     Adding external electric field

     Computed dipole along edir(3) : 
        Dipole               -0.7046 Ry au,         -1.7909 Debye
        Dipole field         -0.0004 Ry au, 
 
        Potential amp.        0.0462 Ry
        Total length         54.7057 bohr
 

     total cpu time spent up to now is      483.0 secs

     total energy              =   -8078.45013376 Ry
     estimated scf accuracy    <       1.00489016 Ry

     total magnetization       =    94.04 Bohr mag/cell
     absolute magnetization    =    97.23 Bohr mag/cell

     iteration # 22     ecut=    50.00 Ry     beta= 0.10
     Davidson diagonalization with overlap
     ethr =  6.18E-05,  avg # of iterations =  2.0

     negative rho (up, down):  2.190E-03 5.322E-03
 
     Adding external electric field

     Computed dipole along edir(3) : 
        Dipole               -0.6971 Ry au,         -1.7720 Debye
        Dipole field         -0.0004 Ry au, 
 
        Potential amp.        0.0457 Ry
        Total length         54.7057 bohr
 
 
     Adding external electric field

     Computed dipole along edir(3) : 
        Dipole               -0.6971 Ry au,         -1.7720 Debye
        Dipole field         -0.0004 Ry au, 
 
        Potential amp.        0.0457 Ry
        Total length         54.7057 bohr
 

     total cpu time spent up to now is      504.2 secs

     total energy              =   -8078.45724102 Ry
     estimated scf accuracy    <       1.19890632 Ry

     total magnetization       =    93.40 Bohr mag/cell
     absolute magnetization    =    96.29 Bohr mag/cell

     iteration # 23     ecut=    50.00 Ry     beta= 0.10
     Davidson diagonalization with overlap
     ethr =  6.18E-05,  avg # of iterations =  1.5

     negative rho (up, down):  1.908E-03 4.043E-03
 
     Adding external electric field

     Computed dipole along edir(3) : 
        Dipole               -0.7214 Ry au,         -1.8337 Debye
        Dipole field         -0.0004 Ry au, 
 
        Potential amp.        0.0473 Ry
        Total length         54.7057 bohr
 
 
     Adding external electric field

     Computed dipole along edir(3) : 
        Dipole               -0.7214 Ry au,         -1.8337 Debye
        Dipole field         -0.0004 Ry au, 
 
        Potential amp.        0.0473 Ry
        Total length         54.7057 bohr
 

     total cpu time spent up to now is      522.9 secs

     total energy              =   -8078.50204078 Ry
     estimated scf accuracy    <       0.81523242 Ry

     total magnetization       =    94.95 Bohr mag/cell
     absolute magnetization    =    97.91 Bohr mag/cell

     iteration # 24     ecut=    50.00 Ry     beta= 0.10
     Davidson diagonalization with overlap
     ethr =  6.18E-05,  avg # of iterations =  1.5

     negative rho (up, down):  2.184E-03 3.962E-03
 
     Adding external electric field

     Computed dipole along edir(3) : 
        Dipole               -0.7487 Ry au,         -1.9030 Debye
        Dipole field         -0.0004 Ry au, 
 
        Potential amp.        0.0491 Ry
        Total length         54.7057 bohr
 
 
     Adding external electric field

     Computed dipole along edir(3) : 
        Dipole               -0.7487 Ry au,         -1.9030 Debye
        Dipole field         -0.0004 Ry au, 
 
        Potential amp.        0.0491 Ry
        Total length         54.7057 bohr
 

     total cpu time spent up to now is      542.3 secs

     total energy              =   -8078.52885133 Ry
     estimated scf accuracy    <       0.85771984 Ry

     total magnetization       =    94.99 Bohr mag/cell
     absolute magnetization    =    98.10 Bohr mag/cell

     iteration # 25     ecut=    50.00 Ry     beta= 0.10
     Davidson diagonalization with overlap
     ethr =  6.18E-05,  avg # of iterations =  1.5

     negative rho (up, down):  2.119E-03 3.628E-03
 
     Adding external electric field

     Computed dipole along edir(3) : 
        Dipole               -0.8113 Ry au,         -2.0622 Debye
        Dipole field         -0.0005 Ry au, 
 
        Potential amp.        0.0532 Ry
        Total length         54.7057 bohr
 
 
     Adding external electric field

     Computed dipole along edir(3) : 
        Dipole               -0.8113 Ry au,         -2.0622 Debye
        Dipole field         -0.0005 Ry au, 
 
        Potential amp.        0.0532 Ry
        Total length         54.7057 bohr
 

     total cpu time spent up to now is      561.4 secs

     total energy              =   -8078.57344504 Ry
     estimated scf accuracy    <       0.68177651 Ry

     total magnetization       =    95.28 Bohr mag/cell
     absolute magnetization    =    98.41 Bohr mag/cell

     iteration # 26     ecut=    50.00 Ry     beta= 0.10
     Davidson diagonalization with overlap
     ethr =  6.15E-05,  avg # of iterations =  1.5

     negative rho (up, down):  3.474E-03 4.332E-03
 
     Adding external electric field

     Computed dipole along edir(3) : 
        Dipole               -0.9107 Ry au,         -2.3148 Debye
        Dipole field         -0.0005 Ry au, 
 
        Potential amp.        0.0597 Ry
        Total length         54.7057 bohr
 
 
     Adding external electric field

     Computed dipole along edir(3) : 
        Dipole               -0.9107 Ry au,         -2.3148 Debye
        Dipole field         -0.0005 Ry au, 
 
        Potential amp.        0.0597 Ry
        Total length         54.7057 bohr
 

     total cpu time spent up to now is      581.2 secs

     total energy              =   -8078.61335599 Ry
     estimated scf accuracy    <       0.47267565 Ry

     total magnetization       =    95.65 Bohr mag/cell
     absolute magnetization    =    98.03 Bohr mag/cell

     iteration # 27     ecut=    50.00 Ry     beta= 0.10
     Davidson diagonalization with overlap
     ethr =  4.27E-05,  avg # of iterations =  1.5

     negative rho (up, down):  2.161E-03 2.445E-03
 
     Adding external electric field

     Computed dipole along edir(3) : 
        Dipole               -0.9893 Ry au,         -2.5145 Debye
        Dipole field         -0.0006 Ry au, 
 
        Potential amp.        0.0649 Ry
        Total length         54.7057 bohr
 
 
     Adding external electric field

     Computed dipole along edir(3) : 
        Dipole               -0.9893 Ry au,         -2.5145 Debye
        Dipole field         -0.0006 Ry au, 
 
        Potential amp.        0.0649 Ry
        Total length         54.7057 bohr
 

     total cpu time spent up to now is      601.2 secs

     total energy              =   -8078.61733714 Ry
     estimated scf accuracy    <       0.23719396 Ry

     total magnetization       =    96.75 Bohr mag/cell
     absolute magnetization    =    98.37 Bohr mag/cell

     iteration # 28     ecut=    50.00 Ry     beta= 0.10
     Davidson diagonalization with overlap
     ethr =  2.14E-05,  avg # of iterations =  5.0

     negative rho (up, down):  6.254E-04 9.561E-04
 
     Adding external electric field

     Computed dipole along edir(3) : 
        Dipole               -1.0197 Ry au,         -2.5918 Debye
        Dipole field         -0.0006 Ry au, 
 
        Potential amp.        0.0669 Ry
        Total length         54.7057 bohr
 
 
     Adding external electric field

     Computed dipole along edir(3) : 
        Dipole               -1.0197 Ry au,         -2.5918 Debye
        Dipole field         -0.0006 Ry au, 
 
        Potential amp.        0.0669 Ry
        Total length         54.7057 bohr
 

     total cpu time spent up to now is      623.6 secs

     total energy              =   -8078.61183642 Ry
     estimated scf accuracy    <       0.14380485 Ry

     total magnetization       =    96.63 Bohr mag/cell
     absolute magnetization    =    98.07 Bohr mag/cell

     iteration # 29     ecut=    50.00 Ry     beta= 0.10
     Davidson diagonalization with overlap
     ethr =  1.30E-05,  avg # of iterations = 12.0

     negative rho (up, down):  4.180E-04 9.694E-04
 
     Adding external electric field

     Computed dipole along edir(3) : 
        Dipole               -1.0003 Ry au,         -2.5424 Debye
        Dipole field         -0.0006 Ry au, 
 
        Potential amp.        0.0656 Ry
        Total length         54.7057 bohr
 
 
     Adding external electric field

     Computed dipole along edir(3) : 
        Dipole               -1.0003 Ry au,         -2.5424 Debye
        Dipole field         -0.0006 Ry au, 
 
        Potential amp.        0.0656 Ry
        Total length         54.7057 bohr
 

     total cpu time spent up to now is      662.9 secs

     total energy              =   -8078.60823650 Ry
     estimated scf accuracy    <       0.09793019 Ry

     total magnetization       =    96.17 Bohr mag/cell
     absolute magnetization    =    97.51 Bohr mag/cell

     iteration # 30     ecut=    50.00 Ry     beta= 0.10
     Davidson diagonalization with overlap
     ethr =  8.84E-06,  avg # of iterations =  6.5

     negative rho (up, down):  4.638E-05 5.599E-05
 
     Adding external electric field

     Computed dipole along edir(3) : 
        Dipole               -1.0823 Ry au,         -2.7510 Debye
        Dipole field         -0.0006 Ry au, 
 
        Potential amp.        0.0710 Ry
        Total length         54.7057 bohr
 
 
     Adding external electric field

     Computed dipole along edir(3) : 
        Dipole               -1.0823 Ry au,         -2.7510 Debye
        Dipole field         -0.0006 Ry au, 
 
        Potential amp.        0.0710 Ry
        Total length         54.7057 bohr
 

     total cpu time spent up to now is      686.0 secs

     total energy              =   -8078.60761542 Ry
     estimated scf accuracy    <       0.08070600 Ry

     total magnetization       =    96.34 Bohr mag/cell
     absolute magnetization    =    97.70 Bohr mag/cell

     iteration # 31     ecut=    50.00 Ry     beta= 0.10
     Davidson diagonalization with overlap
     c_bands:  2 eigenvalues not converged
     ethr =  7.28E-06,  avg # of iterations = 11.0

     negative rho (up, down):  3.528E-05 6.308E-05
 
     Adding external electric field

     Computed dipole along edir(3) : 
        Dipole               -1.0491 Ry au,         -2.6665 Debye
        Dipole field         -0.0006 Ry au, 
 
        Potential amp.        0.0688 Ry
        Total length         54.7057 bohr
 
 
     Adding external electric field

     Computed dipole along edir(3) : 
        Dipole               -1.0491 Ry au,         -2.6665 Debye
        Dipole field         -0.0006 Ry au, 
 
        Potential amp.        0.0688 Ry
        Total length         54.7057 bohr
 

     total cpu time spent up to now is      712.5 secs

     total energy              =   -8078.60963418 Ry
     estimated scf accuracy    <       0.05171651 Ry

     total magnetization       =    95.83 Bohr mag/cell
     absolute magnetization    =    97.06 Bohr mag/cell

     iteration # 32     ecut=    50.00 Ry     beta= 0.10
     Davidson diagonalization with overlap
     ethr =  4.67E-06,  avg # of iterations = 18.5

     negative rho (up, down):  5.323E-07 1.264E-06
 
     Adding external electric field

     Computed dipole along edir(3) : 
        Dipole               -1.0246 Ry au,         -2.6043 Debye
        Dipole field         -0.0006 Ry au, 
 
        Potential amp.        0.0672 Ry
        Total length         54.7057 bohr
 
 
     Adding external electric field

     Computed dipole along edir(3) : 
        Dipole               -1.0246 Ry au,         -2.6043 Debye
        Dipole field         -0.0006 Ry au, 
 
        Potential amp.        0.0672 Ry
        Total length         54.7057 bohr
 

     total cpu time spent up to now is      751.9 secs

     total energy              =   -8078.60972288 Ry
     estimated scf accuracy    <       0.03163124 Ry

     total magnetization       =    95.95 Bohr mag/cell
     absolute magnetization    =    97.19 Bohr mag/cell

     iteration # 33     ecut=    50.00 Ry     beta= 0.10
     Davidson diagonalization with overlap
     ethr =  2.85E-06,  avg # of iterations =  2.0

     negative rho (up, down):  1.033E-08 1.463E-08
 
     Adding external electric field

     Computed dipole along edir(3) : 
        Dipole               -0.9983 Ry au,         -2.5373 Debye
        Dipole field         -0.0006 Ry au, 
 
        Potential amp.        0.0655 Ry
        Total length         54.7057 bohr
 
 
     Adding external electric field

     Computed dipole along edir(3) : 
        Dipole               -0.9983 Ry au,         -2.5373 Debye
        Dipole field         -0.0006 Ry au, 
 
        Potential amp.        0.0655 Ry
        Total length         54.7057 bohr
 

     total cpu time spent up to now is      771.2 secs

     total energy              =   -8078.60943986 Ry
     estimated scf accuracy    <       0.02148735 Ry

     total magnetization       =    95.94 Bohr mag/cell
     absolute magnetization    =    97.25 Bohr mag/cell

     iteration # 34     ecut=    50.00 Ry     beta= 0.10
     Davidson diagonalization with overlap
     ethr =  1.94E-06,  avg # of iterations =  2.0

     negative rho (up, down):  1.790E-08 9.392E-09
 
     Adding external electric field

     Computed dipole along edir(3) : 
        Dipole               -0.9708 Ry au,         -2.4674 Debye
        Dipole field         -0.0006 Ry au, 
 
        Potential amp.        0.0637 Ry
        Total length         54.7057 bohr
 
 
     Adding external electric field

     Computed dipole along edir(3) : 
        Dipole               -0.9708 Ry au,         -2.4674 Debye
        Dipole field         -0.0006 Ry au, 
 
        Potential amp.        0.0637 Ry
        Total length         54.7057 bohr
 

     total cpu time spent up to now is      791.9 secs

     total energy              =   -8078.60830454 Ry
     estimated scf accuracy    <       0.01721845 Ry

     total magnetization       =    95.92 Bohr mag/cell
     absolute magnetization    =    97.27 Bohr mag/cell

     iteration # 35     ecut=    50.00 Ry     beta= 0.10
     Davidson diagonalization with overlap
     c_bands:  2 eigenvalues not converged
     ethr =  1.55E-06,  avg # of iterations = 22.0

     negative rho (up, down):  3.712E-06 2.237E-06
 
     Adding external electric field

     Computed dipole along edir(3) : 
        Dipole               -0.9855 Ry au,         -2.5048 Debye
        Dipole field         -0.0006 Ry au, 
 
        Potential amp.        0.0646 Ry
        Total length         54.7057 bohr
 
 
     Adding external electric field

     Computed dipole along edir(3) : 
        Dipole               -0.9855 Ry au,         -2.5048 Debye
        Dipole field         -0.0006 Ry au, 
 
        Potential amp.        0.0646 Ry
        Total length         54.7057 bohr
 

     total cpu time spent up to now is      835.3 secs

     total energy              =   -8078.60829866 Ry
     estimated scf accuracy    <       0.02152097 Ry

     total magnetization       =    96.00 Bohr mag/cell
     absolute magnetization    =    97.32 Bohr mag/cell

     iteration # 36     ecut=    50.00 Ry     beta= 0.10
     Davidson diagonalization with overlap
     c_bands:  2 eigenvalues not converged
     ethr =  1.55E-06,  avg # of iterations = 11.0

     negative rho (up, down):  5.463E-06 3.183E-06
 
     Adding external electric field

     Computed dipole along edir(3) : 
        Dipole               -0.9866 Ry au,         -2.5077 Debye
        Dipole field         -0.0006 Ry au, 
 
        Potential amp.        0.0647 Ry
        Total length         54.7057 bohr
 
 
     Adding external electric field

     Computed dipole along edir(3) : 
        Dipole               -0.9866 Ry au,         -2.5077 Debye
        Dipole field         -0.0006 Ry au, 
 
        Potential amp.        0.0647 Ry
        Total length         54.7057 bohr
 

     total cpu time spent up to now is      862.2 secs

     total energy              =   -8078.60826529 Ry
     estimated scf accuracy    <       0.01709900 Ry

     total magnetization       =    96.00 Bohr mag/cell
     absolute magnetization    =    97.31 Bohr mag/cell

     iteration # 37     ecut=    50.00 Ry     beta= 0.10
     Davidson diagonalization with overlap
     c_bands:  3 eigenvalues not converged
     ethr =  1.54E-06,  avg # of iterations = 11.0

     negative rho (up, down):  5.143E-06 2.887E-06
 
     Adding external electric field

     Computed dipole along edir(3) : 
        Dipole               -0.9839 Ry au,         -2.5008 Debye
        Dipole field         -0.0006 Ry au, 
 
        Potential amp.        0.0645 Ry
        Total length         54.7057 bohr
 
 
     Adding external electric field

     Computed dipole along edir(3) : 
        Dipole               -0.9839 Ry au,         -2.5008 Debye
        Dipole field         -0.0006 Ry au, 
 
        Potential amp.        0.0645 Ry
        Total length         54.7057 bohr
 

     total cpu time spent up to now is      889.8 secs

     total energy              =   -8078.60830039 Ry
     estimated scf accuracy    <       0.01497296 Ry

     total magnetization       =    95.95 Bohr mag/cell
     absolute magnetization    =    97.26 Bohr mag/cell

     iteration # 38     ecut=    50.00 Ry     beta= 0.10
     Davidson diagonalization with overlap
     ethr =  1.35E-06,  avg # of iterations =  7.5

     negative rho (up, down):  6.489E-07 3.186E-07
 
     Adding external electric field

     Computed dipole along edir(3) : 
        Dipole               -0.9880 Ry au,         -2.5113 Debye
        Dipole field         -0.0006 Ry au, 
 
        Potential amp.        0.0648 Ry
        Total length         54.7057 bohr
 
 
     Adding external electric field

     Computed dipole along edir(3) : 
        Dipole               -0.9880 Ry au,         -2.5113 Debye
        Dipole field         -0.0006 Ry au, 
 
        Potential amp.        0.0648 Ry
        Total length         54.7057 bohr
 

     total cpu time spent up to now is      913.5 secs

     total energy              =   -8078.60841705 Ry
     estimated scf accuracy    <       0.01488752 Ry

     total magnetization       =    95.93 Bohr mag/cell
     absolute magnetization    =    97.26 Bohr mag/cell

     iteration # 39     ecut=    50.00 Ry     beta= 0.10
     Davidson diagonalization with overlap
     ethr =  1.34E-06,  avg # of iterations =  2.0

     negative rho (up, down):  6.962E-07 4.899E-07
 
     Adding external electric field

     Computed dipole along edir(3) : 
        Dipole               -1.0045 Ry au,         -2.5531 Debye
        Dipole field         -0.0006 Ry au, 
 
        Potential amp.        0.0659 Ry
        Total length         54.7057 bohr
 
 
     Adding external electric field

     Computed dipole along edir(3) : 
        Dipole               -1.0045 Ry au,         -2.5531 Debye
        Dipole field         -0.0006 Ry au, 
 
        Potential amp.        0.0659 Ry
        Total length         54.7057 bohr
 

     total cpu time spent up to now is      932.7 secs

     total energy              =   -8078.60851466 Ry
     estimated scf accuracy    <       0.01864570 Ry

     total magnetization       =    96.02 Bohr mag/cell
     absolute magnetization    =    97.33 Bohr mag/cell

     iteration # 40     ecut=    50.00 Ry     beta= 0.10
     Davidson diagonalization with overlap
     ethr =  1.34E-06,  avg # of iterations =  1.5

     negative rho (up, down):  1.562E-06 1.149E-06
 
     Adding external electric field

     Computed dipole along edir(3) : 
        Dipole               -1.0053 Ry au,         -2.5552 Debye
        Dipole field         -0.0006 Ry au, 
 
        Potential amp.        0.0659 Ry
        Total length         54.7057 bohr
 
 
     Adding external electric field

     Computed dipole along edir(3) : 
        Dipole               -1.0053 Ry au,         -2.5552 Debye
        Dipole field         -0.0006 Ry au, 
 
        Potential amp.        0.0659 Ry
        Total length         54.7057 bohr
 

     total cpu time spent up to now is      950.8 secs

     total energy              =   -8078.60844703 Ry
     estimated scf accuracy    <       0.01429577 Ry

     total magnetization       =    95.94 Bohr mag/cell
     absolute magnetization    =    97.25 Bohr mag/cell

     iteration # 41     ecut=    50.00 Ry     beta= 0.10
     Davidson diagonalization with overlap
     ethr =  1.29E-06,  avg # of iterations =  1.5

     negative rho (up, down):  2.425E-06 1.993E-06
 
     Adding external electric field

     Computed dipole along edir(3) : 
        Dipole               -0.9991 Ry au,         -2.5395 Debye
        Dipole field         -0.0006 Ry au, 
 
        Potential amp.        0.0655 Ry
        Total length         54.7057 bohr
 
 
     Adding external electric field

     Computed dipole along edir(3) : 
        Dipole               -0.9991 Ry au,         -2.5395 Debye
        Dipole field         -0.0006 Ry au, 
 
        Potential amp.        0.0655 Ry
        Total length         54.7057 bohr
 

     total cpu time spent up to now is      969.3 secs

     total energy              =   -8078.60830316 Ry
     estimated scf accuracy    <       0.01353317 Ry

     total magnetization       =    95.88 Bohr mag/cell
     absolute magnetization    =    97.19 Bohr mag/cell

     iteration # 42     ecut=    50.00 Ry     beta= 0.10
     Davidson diagonalization with overlap
     ethr =  1.22E-06,  avg # of iterations =  1.5

     negative rho (up, down):  1.615E-05 1.255E-05
 
     Adding external electric field

     Computed dipole along edir(3) : 
        Dipole               -0.9939 Ry au,         -2.5263 Debye
        Dipole field         -0.0006 Ry au, 
 
        Potential amp.        0.0652 Ry
        Total length         54.7057 bohr
 
 
     Adding external electric field

     Computed dipole along edir(3) : 
        Dipole               -0.9939 Ry au,         -2.5263 Debye
        Dipole field         -0.0006 Ry au, 
 
        Potential amp.        0.0652 Ry
        Total length         54.7057 bohr
 

     total cpu time spent up to now is      988.0 secs

     total energy              =   -8078.60779559 Ry
     estimated scf accuracy    <       0.01367209 Ry

     total magnetization       =    95.88 Bohr mag/cell
     absolute magnetization    =    97.16 Bohr mag/cell

     iteration # 43     ecut=    50.00 Ry     beta= 0.10
     Davidson diagonalization with overlap
     ethr =  1.22E-06,  avg # of iterations =  2.0

     negative rho (up, down):  5.357E-05 3.993E-05
 
     Adding external electric field

     Computed dipole along edir(3) : 
        Dipole               -0.9878 Ry au,         -2.5106 Debye
        Dipole field         -0.0006 Ry au, 
 
        Potential amp.        0.0648 Ry
        Total length         54.7057 bohr
 
 
     Adding external electric field

     Computed dipole along edir(3) : 
        Dipole               -0.9878 Ry au,         -2.5106 Debye
        Dipole field         -0.0006 Ry au, 
 
        Potential amp.        0.0648 Ry
        Total length         54.7057 bohr
 

     total cpu time spent up to now is     1007.8 secs

     total energy              =   -8078.60732809 Ry
     estimated scf accuracy    <       0.01281235 Ry

     total magnetization       =    95.87 Bohr mag/cell
     absolute magnetization    =    97.13 Bohr mag/cell

     iteration # 44     ecut=    50.00 Ry     beta= 0.10
     Davidson diagonalization with overlap
     ethr =  1.16E-06,  avg # of iterations =  1.5

     negative rho (up, down):  7.093E-05 5.254E-05
 
     Adding external electric field

     Computed dipole along edir(3) : 
        Dipole               -0.9812 Ry au,         -2.4939 Debye
        Dipole field         -0.0006 Ry au, 
 
        Potential amp.        0.0644 Ry
        Total length         54.7057 bohr
 
 
     Adding external electric field

     Computed dipole along edir(3) : 
        Dipole               -0.9812 Ry au,         -2.4939 Debye
        Dipole field         -0.0006 Ry au, 
 
        Potential amp.        0.0644 Ry
        Total length         54.7057 bohr
 

     total cpu time spent up to now is     1026.0 secs

     total energy              =   -8078.60721421 Ry
     estimated scf accuracy    <       0.01285149 Ry

     total magnetization       =    95.89 Bohr mag/cell
     absolute magnetization    =    97.14 Bohr mag/cell

     iteration # 45     ecut=    50.00 Ry     beta= 0.10
     Davidson diagonalization with overlap
     ethr =  1.16E-06,  avg # of iterations =  2.0

     negative rho (up, down):  4.789E-05 3.498E-05
 
     Adding external electric field

     Computed dipole along edir(3) : 
        Dipole               -0.9753 Ry au,         -2.4790 Debye
        Dipole field         -0.0006 Ry au, 
 
        Potential amp.        0.0640 Ry
        Total length         54.7057 bohr
 
 
     Adding external electric field

     Computed dipole along edir(3) : 
        Dipole               -0.9753 Ry au,         -2.4790 Debye
        Dipole field         -0.0006 Ry au, 
 
        Potential amp.        0.0640 Ry
        Total length         54.7057 bohr
 

     total cpu time spent up to now is     1046.1 secs

     total energy              =   -8078.60724390 Ry
     estimated scf accuracy    <       0.01251660 Ry

     total magnetization       =    95.87 Bohr mag/cell
     absolute magnetization    =    97.13 Bohr mag/cell

     iteration # 46     ecut=    50.00 Ry     beta= 0.10
     Davidson diagonalization with overlap
     ethr =  1.13E-06,  avg # of iterations =  1.5

     negative rho (up, down):  2.279E-05 1.704E-05
 
     Adding external electric field

     Computed dipole along edir(3) : 
        Dipole               -0.9462 Ry au,         -2.4050 Debye
        Dipole field         -0.0006 Ry au, 
 
        Potential amp.        0.0621 Ry
        Total length         54.7057 bohr
 
 
     Adding external electric field

     Computed dipole along edir(3) : 
        Dipole               -0.9462 Ry au,         -2.4050 Debye
        Dipole field         -0.0006 Ry au, 
 
        Potential amp.        0.0621 Ry
        Total length         54.7057 bohr
 

     total cpu time spent up to now is     1064.3 secs

     total energy              =   -8078.60729103 Ry
     estimated scf accuracy    <       0.01285974 Ry

     total magnetization       =    95.89 Bohr mag/cell
     absolute magnetization    =    97.14 Bohr mag/cell

     iteration # 47     ecut=    50.00 Ry     beta= 0.10
     Davidson diagonalization with overlap
     c_bands:  3 eigenvalues not converged
     ethr =  1.13E-06,  avg # of iterations = 11.0

     negative rho (up, down):  1.807E-05 1.262E-05
 
     Adding external electric field

     Computed dipole along edir(3) : 
        Dipole               -0.9565 Ry au,         -2.4312 Debye
        Dipole field         -0.0006 Ry au, 
 
        Potential amp.        0.0627 Ry
        Total length         54.7057 bohr
 
 
     Adding external electric field

     Computed dipole along edir(3) : 
        Dipole               -0.9565 Ry au,         -2.4312 Debye
        Dipole field         -0.0006 Ry au, 
 
        Potential amp.        0.0627 Ry
        Total length         54.7057 bohr
 

     total cpu time spent up to now is     1091.8 secs

     total energy              =   -8078.60731733 Ry
     estimated scf accuracy    <       0.01263055 Ry

     total magnetization       =    95.84 Bohr mag/cell
     absolute magnetization    =    97.12 Bohr mag/cell

     iteration # 48     ecut=    50.00 Ry     beta= 0.10
     Davidson diagonalization with overlap
     ethr =  1.13E-06,  avg # of iterations =  1.5

     negative rho (up, down):  6.560E-05 5.839E-05
 
     Adding external electric field

     Computed dipole along edir(3) : 
        Dipole               -0.9326 Ry au,         -2.3705 Debye
        Dipole field         -0.0006 Ry au, 
 
        Potential amp.        0.0612 Ry
        Total length         54.7057 bohr
 
 
     Adding external electric field

     Computed dipole along edir(3) : 
        Dipole               -0.9326 Ry au,         -2.3705 Debye
        Dipole field         -0.0006 Ry au, 
 
        Potential amp.        0.0612 Ry
        Total length         54.7057 bohr
 

     total cpu time spent up to now is     1110.6 secs

     total energy              =   -8078.60714290 Ry
     estimated scf accuracy    <       0.01287297 Ry

     total magnetization       =    95.86 Bohr mag/cell
     absolute magnetization    =    97.13 Bohr mag/cell

     iteration # 49     ecut=    50.00 Ry     beta= 0.10
     Davidson diagonalization with overlap
     ethr =  1.13E-06,  avg # of iterations =  2.0

     negative rho (up, down):  1.651E-04 1.414E-04
 
     Adding external electric field

     Computed dipole along edir(3) : 
        Dipole               -0.9255 Ry au,         -2.3525 Debye
        Dipole field         -0.0006 Ry au, 
 
        Potential amp.        0.0607 Ry
        Total length         54.7057 bohr
 
 
     Adding external electric field

     Computed dipole along edir(3) : 
        Dipole               -0.9255 Ry au,         -2.3525 Debye
        Dipole field         -0.0006 Ry au, 
 
        Potential amp.        0.0607 Ry
        Total length         54.7057 bohr
 

     total cpu time spent up to now is     1129.7 secs

     total energy              =   -8078.60692829 Ry
     estimated scf accuracy    <       0.01246866 Ry

     total magnetization       =    95.87 Bohr mag/cell
     absolute magnetization    =    97.16 Bohr mag/cell

     iteration # 50     ecut=    50.00 Ry     beta= 0.10
     Davidson diagonalization with overlap
     ethr =  1.13E-06,  avg # of iterations =  1.5

     negative rho (up, down):  2.311E-04 2.046E-04
 
     Adding external electric field

     Computed dipole along edir(3) : 
        Dipole               -0.9103 Ry au,         -2.3138 Debye
        Dipole field         -0.0005 Ry au, 
 
        Potential amp.        0.0597 Ry
        Total length         54.7057 bohr
 
 
     Adding external electric field

     Computed dipole along edir(3) : 
        Dipole               -0.9103 Ry au,         -2.3138 Debye
        Dipole field         -0.0005 Ry au, 
 
        Potential amp.        0.0597 Ry
        Total length         54.7057 bohr
 

     total cpu time spent up to now is     1148.9 secs

     total energy              =   -8078.60681488 Ry
     estimated scf accuracy    <       0.01225682 Ry

     total magnetization       =    95.90 Bohr mag/cell
     absolute magnetization    =    97.20 Bohr mag/cell

     iteration # 51     ecut=    50.00 Ry     beta= 0.10
     Davidson diagonalization with overlap
     ethr =  1.11E-06,  avg # of iterations =  2.0

     negative rho (up, down):  2.976E-04 2.768E-04
 
     Adding external electric field

     Computed dipole along edir(3) : 
        Dipole               -0.8928 Ry au,         -2.2694 Debye
        Dipole field         -0.0005 Ry au, 
 
        Potential amp.        0.0586 Ry
        Total length         54.7057 bohr
 
 
     Adding external electric field

     Computed dipole along edir(3) : 
        Dipole               -0.8928 Ry au,         -2.2694 Debye
        Dipole field         -0.0005 Ry au, 
 
        Potential amp.        0.0586 Ry
        Total length         54.7057 bohr
 

     total cpu time spent up to now is     1168.2 secs

     total energy              =   -8078.60670740 Ry
     estimated scf accuracy    <       0.01218170 Ry

     total magnetization       =    95.89 Bohr mag/cell
     absolute magnetization    =    97.19 Bohr mag/cell

     iteration # 52     ecut=    50.00 Ry     beta= 0.10
     Davidson diagonalization with overlap
     ethr =  1.10E-06,  avg # of iterations =  1.5

     negative rho (up, down):  2.735E-04 2.564E-04
 
     Adding external electric field

     Computed dipole along edir(3) : 
        Dipole               -0.8924 Ry au,         -2.2682 Debye
        Dipole field         -0.0005 Ry au, 
 
        Potential amp.        0.0585 Ry
        Total length         54.7057 bohr
 
 
     Adding external electric field

     Computed dipole along edir(3) : 
        Dipole               -0.8924 Ry au,         -2.2682 Debye
        Dipole field         -0.0005 Ry au, 
 
        Potential amp.        0.0585 Ry
        Total length         54.7057 bohr
 

     total cpu time spent up to now is     1186.1 secs

     total energy              =   -8078.60675358 Ry
     estimated scf accuracy    <       0.01210726 Ry

     total magnetization       =    95.88 Bohr mag/cell
     absolute magnetization    =    97.17 Bohr mag/cell

     iteration # 53     ecut=    50.00 Ry     beta= 0.10
     Davidson diagonalization with overlap
     ethr =  1.09E-06,  avg # of iterations =  1.5

     negative rho (up, down):  1.753E-04 1.767E-04
 
     Adding external electric field

     Computed dipole along edir(3) : 
        Dipole               -0.8679 Ry au,         -2.2060 Debye
        Dipole field         -0.0005 Ry au, 
 
        Potential amp.        0.0569 Ry
        Total length         54.7057 bohr
 
 
     Adding external electric field

     Computed dipole along edir(3) : 
        Dipole               -0.8679 Ry au,         -2.2060 Debye
        Dipole field         -0.0005 Ry au, 
 
        Potential amp.        0.0569 Ry
        Total length         54.7057 bohr
 

     total cpu time spent up to now is     1204.3 secs

     total energy              =   -8078.60681070 Ry
     estimated scf accuracy    <       0.01193106 Ry

     total magnetization       =    95.88 Bohr mag/cell
     absolute magnetization    =    97.17 Bohr mag/cell

     iteration # 54     ecut=    50.00 Ry     beta= 0.10
     Davidson diagonalization with overlap
     ethr =  1.08E-06,  avg # of iterations =  1.5

     negative rho (up, down):  2.000E-04 1.986E-04
 
     Adding external electric field

     Computed dipole along edir(3) : 
        Dipole               -0.8562 Ry au,         -2.1763 Debye
        Dipole field         -0.0005 Ry au, 
 
        Potential amp.        0.0562 Ry
        Total length         54.7057 bohr
 
 
     Adding external electric field

     Computed dipole along edir(3) : 
        Dipole               -0.8562 Ry au,         -2.1763 Debye
        Dipole field         -0.0005 Ry au, 
 
        Potential amp.        0.0562 Ry
        Total length         54.7057 bohr
 

     total cpu time spent up to now is     1222.6 secs

     total energy              =   -8078.60675007 Ry
     estimated scf accuracy    <       0.01172257 Ry

     total magnetization       =    95.87 Bohr mag/cell
     absolute magnetization    =    97.19 Bohr mag/cell

     iteration # 55     ecut=    50.00 Ry     beta= 0.10
     Davidson diagonalization with overlap
     ethr =  1.06E-06,  avg # of iterations =  1.0

     negative rho (up, down):  1.974E-04 1.976E-04
 
     Adding external electric field

     Computed dipole along edir(3) : 
        Dipole               -0.8549 Ry au,         -2.1729 Debye
        Dipole field         -0.0005 Ry au, 
 
        Potential amp.        0.0561 Ry
        Total length         54.7057 bohr
 
 
     Adding external electric field

     Computed dipole along edir(3) : 
        Dipole               -0.8549 Ry au,         -2.1729 Debye
        Dipole field         -0.0005 Ry au, 
 
        Potential amp.        0.0561 Ry
        Total length         54.7057 bohr
 

     total cpu time spent up to now is     1240.7 secs

     total energy              =   -8078.60675117 Ry
     estimated scf accuracy    <       0.01176227 Ry

     total magnetization       =    95.88 Bohr mag/cell
     absolute magnetization    =    97.20 Bohr mag/cell

     iteration # 56     ecut=    50.00 Ry     beta= 0.10
     Davidson diagonalization with overlap
     ethr =  1.06E-06,  avg # of iterations =  1.5

     negative rho (up, down):  1.839E-04 1.858E-04
 
     Adding external electric field

     Computed dipole along edir(3) : 
        Dipole               -0.8570 Ry au,         -2.1784 Debye
        Dipole field         -0.0005 Ry au, 
 
        Potential amp.        0.0562 Ry
        Total length         54.7057 bohr
 
 
     Adding external electric field

     Computed dipole along edir(3) : 
        Dipole               -0.8570 Ry au,         -2.1784 Debye
        Dipole field         -0.0005 Ry au, 
 
        Potential amp.        0.0562 Ry
        Total length         54.7057 bohr
 

     total cpu time spent up to now is     1259.2 secs

     total energy              =   -8078.60678436 Ry
     estimated scf accuracy    <       0.01171700 Ry

     total magnetization       =    95.88 Bohr mag/cell
     absolute magnetization    =    97.20 Bohr mag/cell

     iteration # 57     ecut=    50.00 Ry     beta= 0.10
     Davidson diagonalization with overlap
     ethr =  1.06E-06,  avg # of iterations =  1.0

     negative rho (up, down):  2.746E-04 2.688E-04
 
     Adding external electric field

     Computed dipole along edir(3) : 
        Dipole               -0.8460 Ry au,         -2.1502 Debye
        Dipole field         -0.0005 Ry au, 
 
        Potential amp.        0.0555 Ry
        Total length         54.7057 bohr
 
 
     Adding external electric field

     Computed dipole along edir(3) : 
        Dipole               -0.8460 Ry au,         -2.1502 Debye
        Dipole field         -0.0005 Ry au, 
 
        Potential amp.        0.0555 Ry
        Total length         54.7057 bohr
 

     total cpu time spent up to now is     1278.3 secs

     total energy              =   -8078.60644164 Ry
     estimated scf accuracy    <       0.01191768 Ry

     total magnetization       =    95.89 Bohr mag/cell
     absolute magnetization    =    97.20 Bohr mag/cell

     iteration # 58     ecut=    50.00 Ry     beta= 0.10
     Davidson diagonalization with overlap
     ethr =  1.06E-06,  avg # of iterations =  2.0

     negative rho (up, down):  2.867E-04 2.816E-04
 
     Adding external electric field

[...]
    -6.0361  -6.0232  -6.0200  -5.9862  -5.9499  -5.9366  -5.9191  -5.8963
    -5.8849  -5.8759  -5.8653  -5.8244  -5.8124  -5.7912  -5.7534  -5.7265
    -5.7244  -5.7187  -5.6850  -5.6622  -5.6345  -5.6286  -5.6122  -5.5945
    -5.5873  -5.5684  -5.5442  -5.5317  -5.5294  -5.5198  -5.4984  -5.4309
    -5.4062  -5.3691  -5.3461  -5.3007  -5.2990  -5.2897  -5.2742  -5.2102
    -5.1843  -5.1710  -5.1678  -5.1200  -5.0890  -5.0403  -5.0034  -4.9643
    -4.9158  -4.9121  -4.8658  -4.8511  -4.8353  -4.8250  -4.7952  -4.7818
    -4.7040  -4.6793  -4.6561  -4.6374  -4.6139  -4.5959  -4.4828  -4.4592
    -4.4437  -4.4305  -4.4188  -4.3678  -4.3395  -4.3128  -4.2636  -4.2489
    -4.2292  -4.2210  -4.1538  -4.1140  -4.0913  -4.0765  -4.0268  -4.0132
    -3.9401  -3.9036  -3.8916  -3.8800  -3.8752  -3.8173  -3.7925  -3.7837
    -3.7779  -3.7611  -3.7327  -3.7086  -3.6656  -3.6523  -3.6453  -3.6322
    -3.6006  -3.5845  -3.5699  -3.5617  -3.5464  -3.5301  -3.5273  -3.4937
    -3.4693  -3.4535  -3.4469  -3.4248  -3.4180  -3.4175  -3.3725  -3.3591
    -3.3421  -3.3363  -3.3152  -3.3010  -3.2631  -3.2592  -3.2185  -3.2026
    -3.1920  -3.1502  -3.1391  -3.1165  -3.1029  -3.0892  -3.0752  -3.0468
    -3.0278  -3.0028  -2.9715  -2.9457  -2.9393  -2.9103  -2.8974  -2.8682
    -2.8595  -2.8285  -2.7917  -2.7684  -2.7510  -2.7385  -2.7335  -2.7202
    -2.7112  -2.6984  -2.6971  -2.6804  -2.6571  -2.6520  -2.6369  -2.6307
    -2.6195  -2.5896  -2.5750  -2.5721  -2.5503  -2.5460  -2.5405  -2.5162
    -2.4858  -2.4773  -2.4523  -2.4378  -2.4262  -2.4018  -2.3819  -2.3656
    -2.3416  -2.3354  -2.3236  -2.3124  -2.2762  -2.2577  -2.2378  -2.2363
    -2.2220  -2.2043  -2.1774  -2.1486  -2.1365  -2.1093  -2.1004  -2.0702
    -2.0637  -2.0537  -2.0276  -2.0149  -2.0008  -1.9728  -1.9542  -1.9331
    -1.9224  -1.9159  -1.9115  -1.8835  -1.8777  -1.8564  -1.8490  -1.8386
    -1.7739  -1.7621  -1.7372  -1.7156  -1.7004  -1.6762  -1.6724  -1.6532
    -1.6469  -1.6281  -1.6210  -1.6045  -1.5816  -1.5627  -1.5448  -1.5122
    -1.4895  -1.4724  -1.4342  -1.4228  -1.4026  -1.3942  -1.3734  -1.3570
    -1.3513  -1.3407  -1.3259  -1.2697  -1.2447  -1.2240  -1.2128  -1.1511
    -1.1364  -1.1127  -1.0475  -1.0455  -1.0353  -1.0215  -0.8841  -0.8412
    -0.7807  -0.7316  -0.6562  -0.6336  -0.4982  -0.4553  -0.4398  -0.3168
     0.1352   0.1484   0.1910   0.2085   0.2181   0.2437   0.2645   0.2727
     0.2878   0.2954   0.2999   0.3261   0.3296   0.3410   0.3415   0.3478
     0.3617   0.3662   0.3737   0.3814   0.3916   0.3992   0.4144   0.4230
     0.4282   0.4326   0.4386   0.4444   0.4469   0.4655   0.4742   0.4784
     0.4838   0.4908   0.4931   0.5086   0.5155   0.5261   0.5342   0.5388
     0.5597   0.5657   0.5785   0.5905   0.5952   0.5959   0.6084   0.6191
     0.6266   0.6289   0.6365   0.6511   0.6685   0.6805   0.6842   0.6885
     0.6978   0.6986   0.7066   0.7253   0.7366   0.7411   0.7647   0.7654
     0.7705   0.7796   0.7828   0.8073   0.8131   0.8269   0.8316   0.8333
     0.8660   0.8768   0.9254   0.9395   0.9809   0.9861   1.0220   1.0892
     1.1085   1.7179   1.7242   1.7409   1.7634   1.7763   1.7832   1.7912
     1.8182   1.8416   1.8523   1.8861   1.9122   1.9296   1.9515   1.9785
     1.9996   2.0223   2.0394   2.0505   2.0580   2.0737   2.0853   2.1146
     2.1391   2.1558   2.1603   2.1671   2.1762   2.2157   2.2253   2.2410
     2.2544   2.2620   2.2859   2.3035   2.3052   2.3223   2.3463   2.3581
     2.3846   2.4008   2.4215   2.4438   2.4675   2.4709   2.4850   2.5618
     2.5737   2.6134   2.6968   2.7208   2.7619   2.7628   2.8207   3.3219
     3.5046   3.6536   3.7169   3.7172   3.7464   3.8097   3.8439   3.8754
     3.9022   3.9109   3.9396   3.9626   3.9815   3.9875   4.0187   4.0325
     4.0459   4.0642   4.0970   4.1057   4.1225   4.1532   4.1696   4.1893
     4.1972   4.2106   4.2275   4.2704   4.3593   4.4090   4.5574   4.7413
     4.7668   4.8264   4.8405   4.8827   4.9385   4.9487   4.9688   5.0298
     5.0554   5.0729   5.1158   5.1385   5.1794   5.1821   5.3251   6.1293
     6.3160   6.3989   6.5363   6.6072   6.6589   6.6691   6.7278   6.8124
     6.8908   6.9101   6.9556   6.9798   7.1674   7.2428   7.2865   7.3104
     7.3435   7.3935   7.4464   7.4958   7.5368   7.5435   7.6442   7.6702
     7.7779   7.8336   7.8408   7.8795   7.9088   7.9483   7.9580   7.9803
     8.0237   8.0424   8.0745   8.1214   8.1552   8.1766   8.1950   8.2334
     8.2614   8.2837   8.3060   8.3175   8.3501   8.3549   8.3860   8.4175
     8.4258   8.4464   8.4833   8.5141   8.5286   8.5369   8.5663   8.5908
     8.6054

     the Fermi energy is     1.6485 ev

!    total energy              =   -8078.60455808 Ry
     estimated scf accuracy    <       0.00000071 Ry
     smearing contrib. (-TS)   =      -0.02254936 Ry
     internal energy E=F+TS    =   -8078.58200873 Ry

     The total energy is F=E-TS. E is the sum of the following terms:
     one-electron contribution =  -94722.50842678 Ry
     hartree contribution      =   47944.20966013 Ry
     xc contribution           =   -2177.32225912 Ry
     ewald contribution        =   40878.80915129 Ry
     Dispersion Correction     =      -1.77018906 Ry
     electric field correction =       0.00005481 Ry

     total magnetization       =    95.86 Bohr mag/cell
     absolute magnetization    =    97.23 Bohr mag/cell

     convergence has been achieved in  91 iterations

     negative rho (up, down):  1.165E-03 6.332E-04

     Forces acting on atoms (cartesian axes, Ry/au):

     atom    1 type  1   force =     0.02424254   -0.01774161    0.01995267
     atom    2 type  1   force =    -0.00196822    0.00018830   -0.00541151
     atom    3 type  2   force =    -0.03029725   -0.01565472   -0.00853174
     atom    4 type  1   force =     0.00191082   -0.00340466   -0.00441813
     atom    5 type  1   force =    -0.00376288    0.00225075   -0.00185920
     atom    6 type  1   force =     0.00246435    0.00747813   -0.00426332
     atom    7 type  1   force =     0.03203562   -0.01962611    0.01774080
     atom    8 type  2   force =    -0.00191187    0.00015676   -0.00881662
     atom    9 type  2   force =    -0.02891562   -0.01528958   -0.00857714
     atom   10 type  1   force =     0.00202575   -0.00311414   -0.00417060
     atom   11 type  1   force =    -0.00344621    0.00264451   -0.00100484
     atom   12 type  1   force =     0.00370034    0.00688288   -0.00374829
     atom   13 type  3   force =     0.00211981    0.00072270   -0.00768025
     atom   14 type  3   force =    -0.02976396    0.04991596   -0.06599284
     atom   15 type  3   force =     0.03466496    0.03760368   -0.05985638
     atom   16 type  3   force =    -0.00441363    0.00309247   -0.00103227
     atom   17 type  4   force =    -0.00206253    0.00127403    0.00269363
     atom   18 type  4   force =    -0.00167940   -0.00507866    0.02746466
     atom   19 type  4   force =     0.00403315    0.00288883    0.02958799
     atom   20 type  4   force =     0.00012199   -0.00278980   -0.00495608
     atom   21 type  4   force =    -0.00305465   -0.00233350    0.00350222
     atom   22 type  4   force =     0.00467854   -0.00318891    0.03400549
     atom   23 type  4   force =    -0.00593796   -0.00099165    0.03223284
     atom   24 type  4   force =     0.00070391   -0.00103172    0.00017610
     atom   25 type  4   force =    -0.00126731    0.00094675    0.00222257
     atom   26 type  4   force =    -0.01442692   -0.02288112   -0.00186840
     atom   27 type  4   force =     0.00162025   -0.00070541    0.00123454
     atom   28 type  4   force =    -0.01784701    0.00339047    0.00116627
     atom   29 type  4   force =     0.02084107   -0.00459301    0.00825375
     atom   30 type  4   force =     0.01231950   -0.03425544    0.00108316
     atom   31 type  4   force =     0.00045656    0.00106518    0.00237550
     atom   32 type  4   force =    -0.00198225    0.00007386    0.00270660
     atom   33 type  3   force =    -0.00056572   -0.00164030   -0.00515765
     atom   34 type  3   force =    -0.03023766    0.05983183   -0.08318638
     atom   35 type  3   force =     0.03460729    0.03340573   -0.05928916
     atom   36 type  3   force =    -0.00385662    0.00470144   -0.00081779
     atom   37 type  4   force =    -0.00113218    0.00126468    0.00294879
     atom   38 type  4   force =    -0.00313550   -0.00548743    0.03303071
     atom   39 type  4   force =     0.00449791    0.00401225    0.02934531
     atom   40 type  4   force =     0.00026992   -0.00330958   -0.00505729
     atom   41 type  4   force =    -0.00009474    0.00001496    0.00369430
     atom   42 type  4   force =     0.00537947    0.00037573    0.01973919
     atom   43 type  4   force =    -0.00173269    0.00047454    0.03431513
     atom   44 type  4   force =     0.00096183   -0.00089946    0.00019420
     atom   45 type  4   force =    -0.00013038   -0.00255239    0.00133421
     atom   46 type  4   force =    -0.01500774   -0.02054032   -0.00053272
     atom   47 type  4   force =     0.00174731   -0.00059630    0.00130862
     atom   48 type  4   force =    -0.01820611    0.00401106    0.00159606
     atom   49 type  4   force =     0.01664883   -0.00278123    0.00496445
     atom   50 type  4   force =     0.01172286   -0.03694707    0.00431716
     atom   51 type  4   force =     0.00098642    0.00107717    0.00177902
     atom   52 type  4   force =     0.00113130   -0.00221464    0.00367188
     atom   53 type  1   force =     0.00142156    0.00055525   -0.00033979
     atom   54 type  1   force =     0.00079229    0.00060078    0.00102720
     atom   55 type  2   force =    -0.00005298   -0.00042863   -0.00009366
     atom   56 type  1   force =    -0.00091156   -0.00042306    0.00090778
     atom   57 type  1   force =     0.00026695    0.00014332    0.00075829
     atom   58 type  1   force =    -0.00002660   -0.00017298    0.00070008
     atom   59 type  1   force =     0.00052368    0.00085962   -0.00042315
     atom   60 type  2   force =    -0.00119104   -0.00158846    0.00658363
     atom   61 type  2   force =    -0.00041637   -0.00030466   -0.00007376
     atom   62 type  1   force =     0.00024047    0.00068551    0.00090177
     atom   63 type  1   force =    -0.00032639    0.00029734    0.00071567
     atom   64 type  1   force =     0.00022290   -0.00030696    0.00034557
     atom   65 type  3   force =    -0.00056985   -0.00110814    0.00293737
     atom   66 type  3   force =     0.00006078   -0.00013591   -0.00177121
     atom   67 type  3   force =     0.00034924    0.00054548   -0.00141470
     atom   68 type  3   force =    -0.00073162    0.00016079    0.00320114
     atom   69 type  4   force =    -0.00054016    0.00040424   -0.00100055
     atom   70 type  4   force =    -0.00001581    0.00001322    0.00040991
     atom   71 type  4   force =     0.00011485   -0.00026870    0.00034728
     atom   72 type  4   force =     0.00057945   -0.00044575   -0.00105267
     atom   73 type  4   force =    -0.00006143    0.00028863    0.00106266
     atom   74 type  4   force =    -0.00024317   -0.00060136    0.00184075
     atom   75 type  4   force =    -0.00003843   -0.00002672    0.00058202
     atom   76 type  4   force =    -0.00017019   -0.00119427    0.00066783
     atom   77 type  4   force =    -0.00084843    0.00033532   -0.00086569
     atom   78 type  4   force =    -0.00031881    0.00007831    0.00044870
     atom   79 type  4   force =     0.00059284    0.00053149   -0.00138127
     atom   80 type  4   force =     0.00009900    0.00059112    0.00033049
     atom   81 type  4   force =    -0.00041374   -0.00026101    0.00036308
     atom   82 type  4   force =     0.00018493   -0.00009585    0.00015444
     atom   83 type  4   force =     0.00000311    0.00034452   -0.00047956
     atom   84 type  4   force =    -0.00054488    0.00017136   -0.00067760
     atom   85 type  3   force =    -0.00018694   -0.00086947    0.00162720
     atom   86 type  3   force =     0.00058803   -0.00048279   -0.00052322
     atom   87 type  3   force =    -0.00026620   -0.00003732   -0.00115048
     atom   88 type  3   force =    -0.00107611   -0.00052467    0.00097853
     atom   89 type  4   force =    -0.00011636    0.00000167   -0.00043684
     atom   90 type  4   force =     0.00008803   -0.00051480    0.00147974
     atom   91 type  4   force =     0.00023555    0.00000211    0.00035231
     atom   92 type  4   force =     0.00046802   -0.00061760   -0.00071231
     atom   93 type  4   force =     0.00193208    0.00120775    0.00155969
     atom   94 type  4   force =    -0.00032290    0.00008496    0.00133246
     atom   95 type  4   force =     0.00026205    0.00015708    0.00058873
     atom   96 type  4   force =    -0.00021334   -0.00069630   -0.00036194
     atom   97 type  4   force =     0.00013254   -0.00049554   -0.00060682
     atom   98 type  4   force =    -0.00055110   -0.00011391    0.00041406
     atom   99 type  4   force =     0.00054325    0.00051351   -0.00108622
     atom  100 type  4   force =     0.00057173    0.00036980    0.00058360
     atom  101 type  4   force =    -0.00039561   -0.00015493    0.00053539
     atom  102 type  4   force =     0.00089360   -0.00042892    0.00049392
     atom  103 type  4   force =     0.00104521    0.00021660    0.00026076
     atom  104 type  4   force =    -0.00041390   -0.00069884    0.00003456
     atom  105 type  1   force =     0.00039390    0.00034554   -0.00001130
     atom  106 type  1   force =     0.00020634    0.00030207    0.00011813
     atom  107 type  2   force =    -0.00008858    0.00021022   -0.00002982
     atom  108 type  1   force =    -0.00017153   -0.00025127   -0.00035182
     atom  109 type  1   force =    -0.00013662   -0.00012983    0.00002255
     atom  110 type  1   force =     0.00059983    0.00027408   -0.00046055
     atom  111 type  1   force =    -0.00005905    0.00026661    0.00036699
     atom  112 type  2   force =    -0.00257127   -0.00190441    0.00429991
     atom  113 type  2   force =    -0.00024062    0.00007753   -0.00012266
     atom  114 type  1   force =     0.00025952   -0.00006144    0.00011430
     atom  115 type  1   force =     0.00009705   -0.00015266   -0.00007981
     atom  116 type  1   force =    -0.00003948   -0.00007201    0.00001678
     atom  117 type  3   force =     0.00001929    0.00014063    0.00016785
     atom  118 type  3   force =     0.00031368   -0.00001939    0.00004130
     atom  119 type  3   force =     0.00017907    0.00029684   -0.00008777
     atom  120 type  3   force =     0.00008006   -0.00019454   -0.00023687
     atom  121 type  4   force =    -0.00013872   -0.00034187    0.00011605
     atom  122 type  4   force =     0.00022426   -0.00048736    0.00016817
     atom  123 type  4   force =    -0.00031377    0.00012334   -0.00013108
     atom  124 type  4   force =    -0.00012498   -0.00051729   -0.00042671
     atom  125 type  4   force =    -0.00048594    0.00062144   -0.00024261
     atom  126 type  4   force =     0.00008938    0.00039602    0.00025477
     atom  127 type  4   force =     0.00017398   -0.00012401    0.00039408
     atom  128 type  4   force =    -0.00011615    0.00044027    0.00005300
     atom  129 type  4   force =    -0.00034209   -0.00038072   -0.00007294
     atom  130 type  4   force =    -0.00045069    0.00010745    0.00010234
     atom  131 type  4   force =    -0.00007909   -0.00015092   -0.00010732
     atom  132 type  4   force =    -0.00000454    0.00027359   -0.00007983
     atom  133 type  4   force =    -0.00003274    0.00007221   -0.00008469
     atom  134 type  4   force =     0.00055261    0.00004220    0.00025010
     atom  135 type  4   force =     0.00038843    0.00006094   -0.00020285
     atom  136 type  4   force =    -0.00011629    0.00070784    0.00018725
     atom  137 type  3   force =    -0.00044905   -0.00004425    0.00036616
     atom  138 type  3   force =     0.00044465   -0.00005264    0.00005960
     atom  139 type  3   force =    -0.00037491   -0.00014484   -0.00020893
     atom  140 type  3   force =    -0.00008357    0.00033962    0.00029295
     atom  141 type  4   force =     0.00011335    0.00005537   -0.00003838
     atom  142 type  4   force =     0.00016644    0.00003064   -0.00008749
     atom  143 type  4   force =    -0.00013499   -0.00039141   -0.00042828
     atom  144 type  4   force =    -0.00053861    0.00064314    0.00018590
     atom  145 type  4   force =     0.00010362   -0.00012648   -0.00029277
     atom  146 type  4   force =     0.00007329    0.00028020   -0.00004950
     atom  147 type  4   force =    -0.00019647    0.00013771    0.00002118
     atom  148 type  4   force =     0.00005509   -0.00004488   -0.00037620
     atom  149 type  4   force =    -0.00027768    0.00019120   -0.00015170
     atom  150 type  4   force =    -0.00018184    0.00008005   -0.00000799
     atom  151 type  4   force =     0.00003491    0.00067288   -0.00027158
     atom  152 type  4   force =     0.00003164    0.00012434   -0.00017074
     atom  153 type  4   force =    -0.00026148    0.00004551   -0.00012009
     atom  154 type  4   force =     0.00005333    0.00048478   -0.00018412
     atom  155 type  4   force =     0.00010035   -0.00018075    0.00026999
     atom  156 type  4   force =    -0.00053172    0.00005429   -0.00018006
     atom  157 type  4   force =     0.00391095    0.00123992   -0.00562225
     atom  158 type  5   force =    -0.00042598    0.00037637    0.00056501

     Total force =     0.225535     Total SCF correction =     0.004469
 
     init_run     :     11.33s CPU     11.96s WALL (       1 calls)
     electrons    :   1923.73s CPU   1984.01s WALL (       1 calls)
     forces       :      6.45s CPU      6.86s WALL (       1 calls)
     force_london :      0.10s CPU      0.10s WALL (       1 calls)

     Called by init_run:
     wfcinit      :      6.64s CPU      6.80s WALL (       1 calls)
     potinit      :      0.73s CPU      0.90s WALL (       1 calls)
     hinit0       :      2.33s CPU      2.41s WALL (       1 calls)

     Called by electrons:
     c_bands      :   1493.87s CPU   1527.27s WALL (      91 calls)
     sum_band     :    261.51s CPU    275.78s WALL (      91 calls)
     v_of_rho     :     29.67s CPU     30.77s WALL (      92 calls)
     newd         :     99.02s CPU    110.19s WALL (      92 calls)
     mix_rho      :     37.36s CPU     37.77s WALL (      91 calls)
     energy_londo :      0.08s CPU      0.08s WALL (       1 calls)

     Called by c_bands:
     init_us_2    :      2.84s CPU      2.90s WALL (     368 calls)
     init_us_2:cp :      2.84s CPU      2.90s WALL (     368 calls)
     regterg      :   1468.83s CPU   1501.91s WALL (     186 calls)

     Called by *egterg:
     rdiaghg      :    390.13s CPU    406.59s WALL (     794 calls)
     h_psi        :    548.11s CPU    555.31s WALL (     796 calls)
     s_psi        :     65.94s CPU     66.02s WALL (     796 calls)
     g_psi        :      0.48s CPU      0.49s WALL (     608 calls)

     Called by h_psi:
     h_psi:calbec :    142.10s CPU    147.57s WALL (     796 calls)
     vloc_psi     :    337.95s CPU    338.89s WALL (     796 calls)
     add_vuspsi   :     67.05s CPU     67.81s WALL (     796 calls)

     General routines
     calbec       :    207.03s CPU    215.14s WALL (     986 calls)
     fft          :     84.52s CPU     86.47s WALL (    1669 calls)
     ffts         :     19.88s CPU     19.93s WALL (   11345 calls)
     fftw         :    384.93s CPU    385.95s WALL (  315840 calls)
     interpolate  :      2.71s CPU      2.85s WALL (     184 calls)
 
     Parallel routines
 
     PWSCF        :  32m23.68s CPU  33m25.32s WALL

 
   This run was terminated on:  21:10:30  17Nov2025            

=------------------------------------------------------------------------------=
   JOB DONE.
=------------------------------------------------------------------------------=
