
     Program PWSCF v.7.2 starts on 17Nov2025 at 18:40:12 

     This program is part of the open-source Quantum ESPRESSO suite
     for quantum simulation of materials; please cite
         "P. Giannozzi et al., J. Phys.:Condens. Matter 21 395502 (2009);
         "P. Giannozzi et al., J. Phys.:Condens. Matter 29 465901 (2017);
         "P. Giannozzi et al., J. Chem. Phys. 152 154105 (2020);
          URL http://www.quantum-espresso.org", 
     in publications or presentations arising from this work. More details at
     http://www.quantum-espresso.org/quote

     Parallel version (MPI), running on    64 processors

     MPI processes distributed on     4 nodes
     452589 MiB available memory on the printing compute node when the environment starts
 
     Reading input from PWINPUT_atm157_xm

     Current dimensions of program PWSCF are:
     Max number of different atomic species (ntypx) = 10
     Max number of k-points (npk) =  40000
     Max angular momentum in pseudopotentials (lmaxx) =  4
     Presently no symmetry can be used with electric field

     file Ni.pbe-n-rrkjus_psl.1.0.0.UPF: wavefunction(s)  3D renormalized
     file Mn.pbe-spn-rrkjus_psl.0.3.1.UPF: wavefunction(s)  3D renormalized
     file O.pbe-rrkjus.UPF: wavefunction(s)  2S renormalized
     file H.pbe-rrkjus.UPF: wavefunction(s)  1S renormalized

     gamma-point specific algorithms are used
 
     R & G space division:  proc/nbgrp/npool/nimage =      64
     Subspace diagonalization in iterative solution of the eigenvalue problem:
     one sub-group per band group will be used
     custom distributed-memory algorithm (size of sub-group:  7*  7 procs)

 
     Parallelization info
     --------------------
     sticks:   dense  smooth     PW     G-vecs:    dense   smooth      PW
     Min         214      85     20                61830    15614    1928
     Max         216      86     22                61864    15658    1982
     Sum       13727    5503   1375              3958051  1001255  125211
 
     Using Slab Decomposition
 


     bravais-lattice index     =            0
     lattice parameter (alat)  =      17.8532  a.u.
     unit-cell volume          =   20962.6682 (a.u.)^3
     number of atoms/cell      =          158
     number of atomic types    =            5
     number of electrons       =      1108.00
     number of Kohn-Sham states=          665
     kinetic-energy cutoff     =      50.0000  Ry
     charge density cutoff     =     500.0000  Ry
     scf convergence threshold =      1.0E-06
     mixing beta               =       0.1000
     number of iterations used =            8  local-TF  mixing
     Exchange-correlation=  SLA  PW   PBE  PBE
                           (   1   4   3   4   0   0   0)

     celldm(1)=  17.853155  celldm(2)=   0.000000  celldm(3)=   0.000000
     celldm(4)=   0.000000  celldm(5)=   0.000000  celldm(6)=   0.000000

     crystal axes: (cart. coord. in units of alat)
               a(1) = (   1.000000   0.000000   0.000000 )  
               a(2) = (   0.003237   1.081997   0.000000 )  
               a(3) = (   0.000000   0.000000   3.404673 )  

     reciprocal axes: (cart. coord. in units 2 pi/alat)
               b(1) = (  1.000000 -0.002992  0.000000 )  
               b(2) = (  0.000000  0.924217  0.000000 )  
               b(3) = (  0.000000  0.000000  0.293714 )  


     PseudoPot. # 1 for Ni read from file:
     ~/PSEUDO/Ni.pbe-n-rrkjus_psl.1.0.0.UPF
     MD5 check sum: Not computed, couldn't open file
     Pseudo is Ultrasoft + core correction, Zval = 10.0
     Generated using "atomic" code by A. Dal Corso  v.5.1.2
     Using radial grid of 1195 points,  6 beta functions with: 
                l(1) =   0
                l(2) =   0
                l(3) =   1
                l(4) =   1
                l(5) =   2
                l(6) =   2
     Q(r) pseudized with 0 coefficients 


     PseudoPot. # 2 for Mn read from file:
     ~/PSEUDO/Mn.pbe-spn-rrkjus_psl.0.3.1.UPF
     MD5 check sum: Not computed, couldn't open file
     Pseudo is Ultrasoft + core correction, Zval = 15.0
     Generated using &quot;atomic&quot; code by A. Dal Corso  v.6.2.2
     Using radial grid of 1187 points,  6 beta functions with: 
                l(1) =   0
                l(2) =   0
                l(3) =   1
                l(4) =   1
                l(5) =   2
                l(6) =   2
     Q(r) pseudized with 0 coefficients 


     PseudoPot. # 3 for P  read from file:
     ~/PSEUDO/P.pbe-n-rrkjus_psl.1.0.0.UPF
     MD5 check sum: Not computed, couldn't open file
     Pseudo is Ultrasoft + core correction, Zval =  5.0
     Generated using "atomic" code by A. Dal Corso  v.5.1
     Using radial grid of 1147 points,  6 beta functions with: 
                l(1) =   0
                l(2) =   0
                l(3) =   1
                l(4) =   1
                l(5) =   2
                l(6) =   2
     Q(r) pseudized with 0 coefficients 


     PseudoPot. # 4 for O  read from file:
     ~/PSEUDO/O.pbe-rrkjus.UPF
     MD5 check sum: Not computed, couldn't open file
     Pseudo is Ultrasoft, Zval =  6.0
     Generated by new atomic code, or converted to UPF format
     Using radial grid of 1269 points,  4 beta functions with: 
                l(1) =   0
                l(2) =   0
                l(3) =   1
                l(4) =   1
     Q(r) pseudized with 0 coefficients 


     PseudoPot. # 5 for H  read from file:
     ~/PSEUDO/H.pbe-rrkjus.UPF
     MD5 check sum: Not computed, couldn't open file
     Pseudo is Ultrasoft, Zval =  1.0
     Generated by new atomic code, or converted to UPF format
     Using radial grid of 1061 points,  2 beta functions with: 
                l(1) =   0
                l(2) =   0
     Q(r) pseudized with 0 coefficients 


     atomic species   valence    mass     pseudopotential
     Ni               10.00    58.69300     Ni( 1.00)
     Mn               15.00    54.93800     Mn( 1.00)
     P                 5.00    30.97300     P ( 1.00)
     O                 6.00    15.99900     O ( 1.00)
     H                 1.00     1.00790     H ( 1.00)

     Starting magnetic structure 
     atomic species   magnetization
     Ni              1.000
     Mn              1.000
     P               1.000
     O               1.000
     H               0.000

     No symmetry found



   Cartesian axes

     site n.     atom                  positions (alat units)
         1        Ni     tau(   1) = (   0.2448189   0.8359134   0.1216996  )
         2        Ni     tau(   2) = (   0.4920952   0.7731948   0.4438949  )
         3        Mn     tau(   3) = (   0.0113021   0.2918949   0.1160512  )
         4        Ni     tau(   4) = (   0.2586115   0.2268566   0.4417628  )
         5        Ni     tau(   5) = (   1.0019827   1.0705803   0.2835623  )
         6        Ni     tau(   6) = (   0.2518099   0.5339061   0.2823483  )
         7        Ni     tau(   7) = (   0.7400999   0.8349186   0.1225624  )
         8        Mn     tau(   8) = (   0.9886961   0.7700845   0.4492175  )
         9        Mn     tau(   9) = (   0.5113421   0.2944667   0.1158892  )
        10        Ni     tau(  10) = (   0.7560857   0.2263843   0.4422798  )
        11        Ni     tau(  11) = (   0.5009386   1.0712238   0.2822610  )
        12        Ni     tau(  12) = (   0.7496978   0.5336600   0.2834396  )
        13        P      tau(  13) = (   0.2147792   0.9686896   0.4382665  )
        14        P      tau(  14) = (   0.4607377   0.6441916   0.1265334  )
        15        P      tau(  15) = (   0.2883218   0.0913464   0.1265752  )
        16        P      tau(  16) = (   0.0408981   0.4221836   0.4354960  )
        17        O      tau(  17) = (   0.1380864   0.9007819   0.3023220  )
        18        O      tau(  18) = (   0.3817439   0.7113683   0.2624610  )
        19        O      tau(  19) = (   0.3638364   0.1608547   0.2624417  )
        20        O      tau(  20) = (   0.1207568   0.3545755   0.3021219  )
        21        O      tau(  21) = (   0.1552194   0.8797563   0.5625160  )
        22        O      tau(  22) = (   0.4022820   0.7317969   0.0010585  )
        23        O      tau(  23) = (   0.3454844   0.1823965   0.0026336  )
        24        O      tau(  24) = (   0.1017019   0.3344979   0.5594858  )
        25        O      tau(  25) = (   0.0970074   0.5770714   0.4346455  )
        26        O      tau(  26) = (   0.3534166   1.0203677   0.1270707  )
        27        O      tau(  27) = (   0.3778024   0.4172402   0.4261028  )
        28        O      tau(  28) = (   0.1256171   0.0954063   0.1372153  )
        29        O      tau(  29) = (   0.1232168   0.6482422   0.1385172  )
        30        O      tau(  30) = (   0.4028533   0.4897833   0.1289718  )
        31        O      tau(  31) = (   0.1511050   0.0405554   0.4369979  )
        32        O      tau(  32) = (   0.3776556   0.9624293   0.4288159  )
        33        P      tau(  33) = (   0.7084770   0.9682119   0.4394551  )
        34        P      tau(  34) = (   0.9603154   0.6409658   0.1292469  )
        35        P      tau(  35) = (   0.7875734   0.0899770   0.1274098  )
        36        P      tau(  36) = (   0.5405152   0.4272620   0.4364455  )
        37        O      tau(  37) = (   0.6323583   0.8977630   0.3036670  )
        38        O      tau(  38) = (   0.8809646   0.7091921   0.2627111  )
        39        O      tau(  39) = (   0.8631054   0.1587239   0.2636487  )
        40        O      tau(  40) = (   0.6202581   0.3578380   0.3034239  )
        41        O      tau(  41) = (   0.6499160   0.8772596   0.5630912  )
        42        O      tau(  42) = (   0.8990171   0.7283464   0.0054426  )
        43        O      tau(  43) = (   0.8448361   0.1806154   0.0030658  )
        44        O      tau(  44) = (   0.6023096   0.3392612   0.5600469  )
        45        O      tau(  45) = (   0.5960222   0.5826131   0.4346340  )
        46        O      tau(  46) = (   0.8515023   1.0184215   0.1281632  )
        47        O      tau(  47) = (   0.8779640   0.4148900   0.4260983  )
        48        O      tau(  48) = (   0.6251159   0.0957170   0.1376895  )
        49        O      tau(  49) = (   0.6237654   0.6481585   0.1378370  )
        50        O      tau(  50) = (   0.9038046   0.4863338   0.1307354  )
        51        O      tau(  51) = (   0.6458737   0.0402574   0.4377979  )
        52        O      tau(  52) = (   0.8712434   0.9635255   0.4285638  )
        53        Ni     tau(  53) = (   0.2420320   0.8169913   0.7491577  )
        54        Ni     tau(  54) = (   0.4893084   0.7542727   1.0713530  )
        55        Mn     tau(  55) = (   0.0085152   0.2729728   0.7435093  )
        56        Ni     tau(  56) = (   0.2558246   0.2079345   1.0692209  )
        57        Ni     tau(  57) = (   0.9991959   1.0516583   0.9110204  )
        58        Ni     tau(  58) = (   0.2490231   0.5149840   0.9098064  )
        59        Ni     tau(  59) = (   0.7373131   0.8159965   0.7500205  )
        60        Mn     tau(  60) = (   0.9859093   0.7511625   1.0766756  )
        61        Mn     tau(  61) = (   0.5085552   0.2755447   0.7433473  )
        62        Ni     tau(  62) = (   0.7532989   0.2074622   1.0697379  )
        63        Ni     tau(  63) = (   0.4981517   1.0523018   0.9097191  )
        64        Ni     tau(  64) = (   0.7469109   0.5147379   0.9108977  )
        65        P      tau(  65) = (   0.2119924   0.9497675   1.0657246  )
        66        P      tau(  66) = (   0.4579509   0.6252695   0.7539915  )
        67        P      tau(  67) = (   0.2855349   0.0724244   0.7540333  )
        68        P      tau(  68) = (   0.0381112   0.4032615   1.0629541  )
        69        O      tau(  69) = (   0.1352995   0.8818598   0.9297801  )
        70        O      tau(  70) = (   0.3789570   0.6924463   0.8899191  )
        71        O      tau(  71) = (   0.3610496   0.1419327   0.8898998  )
        72        O      tau(  72) = (   0.1179700   0.3356534   0.9295800  )
        73        O      tau(  73) = (   0.1524325   0.8608343   1.1899741  )
        74        O      tau(  74) = (   0.3994952   0.7128748   0.6285166  )
        75        O      tau(  75) = (   0.3426976   0.1634744   0.6300917  )
        76        O      tau(  76) = (   0.0989151   0.3155758   1.1869439  )
        77        O      tau(  77) = (   0.0942206   0.5581494   1.0621036  )
        78        O      tau(  78) = (   0.3506297   1.0014456   0.7545288  )
        79        O      tau(  79) = (   0.3750155   0.3983181   1.0535609  )
        80        O      tau(  80) = (   0.1228303   0.0764842   0.7646734  )
        81        O      tau(  81) = (   0.1204299   0.6293201   0.7659753  )
        82        O      tau(  82) = (   0.4000664   0.4708612   0.7564299  )
        83        O      tau(  83) = (   0.1483182   0.0216333   1.0644560  )
        84        O      tau(  84) = (   0.3748687   0.9435072   1.0562740  )
        85        P      tau(  85) = (   0.7056901   0.9492898   1.0669132  )
        86        P      tau(  86) = (   0.9575286   0.6220438   0.7567050  )
        87        P      tau(  87) = (   0.7847866   0.0710549   0.7548679  )
        88        P      tau(  88) = (   0.5377283   0.4083400   1.0639036  )
        89        O      tau(  89) = (   0.6295714   0.8788409   0.9311251  )
        90        O      tau(  90) = (   0.8781778   0.6902700   0.8901692  )
        91        O      tau(  91) = (   0.8603186   0.1398018   0.8911068  )
        92        O      tau(  92) = (   0.6174712   0.3389159   0.9308820  )
        93        O      tau(  93) = (   0.6471291   0.8583376   1.1905493  )
        94        O      tau(  94) = (   0.8962302   0.7094244   0.6329007  )
        95        O      tau(  95) = (   0.8420493   0.1616933   0.6305239  )
        96        O      tau(  96) = (   0.5995227   0.3203391   1.1875050  )
        97        O      tau(  97) = (   0.5932354   0.5636910   1.0620921  )
        98        O      tau(  98) = (   0.8487155   0.9994995   0.7556213  )
        99        O      tau(  99) = (   0.8751772   0.3959680   1.0535564  )
       100        O      tau( 100) = (   0.6223291   0.0767949   0.7651476  )
       101        O      tau( 101) = (   0.6209785   0.6292365   0.7652951  )
       102        O      tau( 102) = (   0.9010178   0.4674118   0.7581935  )
       103        O      tau( 103) = (   0.6430869   0.0213354   1.0652560  )
       104        O      tau( 104) = (   0.8684566   0.9446034   1.0560219  )
       105        Ni     tau( 105) = (   0.2384978   0.7977595   1.3788694  )
       106        Ni     tau( 106) = (   0.4977364   0.7374783   1.6806186  )
       107        Mn     tau( 107) = (   0.0074064   0.2578144   1.3744489  )
       108        Ni     tau( 108) = (   0.2437957   0.1954136   1.6827143  )
       109        Ni     tau( 109) = (   1.0006497   1.0326434   1.5404833  )
       110        Ni     tau( 110) = (   0.2439992   0.4967508   1.5401191  )
       111        Ni     tau( 111) = (   0.7374428   0.7984296   1.3777262  )
       112        Mn     tau( 112) = (   0.9966803   0.7366577   1.7115429  )
       113        Mn     tau( 113) = (   0.5076556   0.2589984   1.3732312  )
       114        Ni     tau( 114) = (   0.7423887   0.1965493   1.6832389  )
       115        Ni     tau( 115) = (   0.4997824   1.0361881   1.5381360  )
       116        Ni     tau( 116) = (   0.7435623   0.4992904   1.5465492  )
       117        P      tau( 117) = (   0.2144549   0.9278899   1.6995636  )
       118        P      tau( 118) = (   0.4551955   0.6050722   1.3802014  )
       119        P      tau( 119) = (   0.2849604   0.0539795   1.3804579  )
       120        P      tau( 120) = (   0.0337229   0.3834112   1.7005366  )
       121        O      tau( 121) = (   0.1305203   0.8570033   1.5637456  )
       122        O      tau( 122) = (   0.3757482   0.6729749   1.5155776  )
       123        O      tau( 123) = (   0.3613724   0.1249247   1.5151439  )
       124        O      tau( 124) = (   0.1129169   0.3224918   1.5571838  )
       125        O      tau( 125) = (   0.1580226   0.8374540   1.8209462  )
       126        O      tau( 126) = (   0.3964371   0.6927973   1.2548158  )
       127        O      tau( 127) = (   0.3425460   0.1434071   1.2554580  )
       128        O      tau( 128) = (   0.0951476   0.2873483   1.8142913  )
       129        O      tau( 129) = (   0.0915744   0.5399361   1.6925782  )
       130        O      tau( 130) = (   0.3476648   0.9823179   1.3836286  )
       131        O      tau( 131) = (   0.3686904   0.3789818   1.6819772  )
       132        O      tau( 132) = (   0.1222508   0.0604368   1.3930584  )
       133        O      tau( 133) = (   0.1179118   0.6106013   1.3948723  )
       134        O      tau( 134) = (   0.3966368   0.4509867   1.3826334  )
       135        O      tau( 135) = (   0.1546825   0.0015702   1.6934648  )
       136        O      tau( 136) = (   0.3773232   0.9216783   1.6812421  )
       137        P      tau( 137) = (   0.7088550   0.9300633   1.6956615  )
       138        P      tau( 138) = (   0.9546391   0.6039920   1.3882016  )
       139        P      tau( 139) = (   0.7861313   0.0539690   1.3808971  )
       140        P      tau( 140) = (   0.5320716   0.3863344   1.7004805  )
       141        O      tau( 141) = (   0.6333026   0.8679629   1.5520824  )
       142        O      tau( 142) = (   0.8777710   0.6729500   1.5224461  )
       143        O      tau( 143) = (   0.8617708   0.1227652   1.5169485  )
       144        O      tau( 144) = (   0.6127642   0.3270143   1.5579163  )
       145        O      tau( 145) = (   0.6483538   0.8329242   1.8103769  )
       146        O      tau( 146) = (   0.8943529   0.6911253   1.2630188  )
       147        O      tau( 147) = (   0.8429851   0.1446062   1.2562262  )
       148        O      tau( 148) = (   0.5929067   0.2897237   1.8141651  )
       149        O      tau( 149) = (   0.5848154   0.5442225   1.6989682  )
       150        O      tau( 150) = (   0.8496775   0.9825043   1.3815819  )
       151        O      tau( 151) = (   0.8705103   0.3772225   1.6832178  )
       152        O      tau( 152) = (   0.6234977   0.0619490   1.3925952  )
       153        O      tau( 153) = (   0.6178427   0.6111075   1.3950142  )
       154        O      tau( 154) = (   0.8977226   0.4494998   1.3884974  )
       155        O      tau( 155) = (   0.6505054   0.0039779   1.6957510  )
       156        O      tau( 156) = (   0.8731762   0.9239488   1.6850968  )
       157        O      tau( 157) = (   0.8861067   0.6670336   1.8454411  )
       158        H      tau( 158) = (   0.7940650   0.7158124   1.8550683  )

     -------------------------------------------------
     Parameters for Dispersion (Grimme-D2) Correction:
     -------------------------------------------------
       atom      VdW radius       C_6     

        Ni         2.952        374.666
        Mn         2.952        374.666
        P          3.222        271.980
        O          2.536         24.284
        H          1.892          4.857

     number of k points=     1  Gaussian smearing, width (Ry)=  0.0100
                       cart. coord. in units 2pi/alat
        k(    1) = (   0.0000000   0.0000000   0.0000000), wk =   1.0000000

     Dense  grid:  1979026 G-vectors     FFT dimensions: ( 128, 144, 450)

     Smooth grid:   500628 G-vectors     FFT dimensions: (  81,  90, 288)

     Estimated max dynamical RAM per process >     333.40 MB

     Estimated total dynamical RAM >      20.84 GB

     Check: negative core charge=   -0.000002
     Generating pointlists ...
     new r_m :   0.0878 (alat units)  1.5669 (a.u.) for type    1
     new r_m :   0.0772 (alat units)  1.3778 (a.u.) for type    2
     new r_m :   0.0664 (alat units)  1.1861 (a.u.) for type    3
     new r_m :   0.0432 (alat units)  0.7704 (a.u.) for type    4
     new r_m :   0.0432 (alat units)  0.7704 (a.u.) for type    5

     Initial potential from superposition of free atoms

     starting charge    1107.8886, renormalised to    1108.0000

     negative rho (up, down):  1.550E-03 4.665E-04
 
     Adding external electric field

     Computed dipole along edir(3) : 
        Dipole                1.6140 Ry au,          4.1023 Debye
        Dipole field          0.0010 Ry au, 
 
        Potential amp.       -0.1059 Ry
        Total length         54.7057 bohr
 
 
     Adding external electric field

     Computed dipole along edir(3) : 
        Dipole                1.6140 Ry au,          4.1023 Debye
        Dipole field          0.0010 Ry au, 
 
        Potential amp.       -0.1059 Ry
        Total length         54.7057 bohr
 
     Starting wfcs are  818 randomized atomic wfcs

     total cpu time spent up to now is       14.2 secs

     Self-consistent Calculation

     iteration #  1     ecut=    50.00 Ry     beta= 0.10
     Davidson diagonalization with overlap
     ethr =  1.00E-02,  avg # of iterations =  6.0

     negative rho (up, down):  4.330E-01 9.447E-07
 
     Adding external electric field

     Computed dipole along edir(3) : 
        Dipole               -3.6832 Ry au,         -9.3618 Debye
        Dipole field         -0.0022 Ry au, 
 
        Potential amp.        0.2416 Ry
        Total length         54.7057 bohr
 
 
     Adding external electric field

     Computed dipole along edir(3) : 
        Dipole               -3.6832 Ry au,         -9.3618 Debye
        Dipole field         -0.0022 Ry au, 
 
        Potential amp.        0.2416 Ry
        Total length         54.7057 bohr
 

     total cpu time spent up to now is       53.2 secs

     total energy              =   -7858.35530193 Ry
     estimated scf accuracy    <     744.41389367 Ry

     total magnetization       =   222.00 Bohr mag/cell
     absolute magnetization    =   318.97 Bohr mag/cell

     iteration #  2     ecut=    50.00 Ry     beta= 0.10
     Davidson diagonalization with overlap
     ethr =  1.00E-02,  avg # of iterations =  2.0

     negative rho (up, down):  4.051E-01 5.258E-07
 
     Adding external electric field

     Computed dipole along edir(3) : 
        Dipole               -2.5354 Ry au,         -6.4443 Debye
        Dipole field         -0.0015 Ry au, 
 
        Potential amp.        0.1663 Ry
        Total length         54.7057 bohr
 
 
     Adding external electric field

     Computed dipole along edir(3) : 
        Dipole               -2.5354 Ry au,         -6.4443 Debye
        Dipole field         -0.0015 Ry au, 
 
        Potential amp.        0.1663 Ry
        Total length         54.7057 bohr
 

     total cpu time spent up to now is       76.9 secs

     total energy              =   -7939.86857525 Ry
     estimated scf accuracy    <     195.80844414 Ry

     total magnetization       =   165.28 Bohr mag/cell
     absolute magnetization    =   212.49 Bohr mag/cell

     iteration #  3     ecut=    50.00 Ry     beta= 0.10
     Davidson diagonalization with overlap
     ethr =  1.00E-02,  avg # of iterations =  1.5

     negative rho (up, down):  3.612E-01 5.026E-07
 
     Adding external electric field

     Computed dipole along edir(3) : 
        Dipole               -2.1918 Ry au,         -5.5710 Debye
        Dipole field         -0.0013 Ry au, 
 
        Potential amp.        0.1438 Ry
        Total length         54.7057 bohr
 
 
     Adding external electric field

     Computed dipole along edir(3) : 
        Dipole               -2.1918 Ry au,         -5.5710 Debye
        Dipole field         -0.0013 Ry au, 
 
        Potential amp.        0.1438 Ry
        Total length         54.7057 bohr
 

     total cpu time spent up to now is       96.7 secs

     total energy              =   -7969.53878377 Ry
     estimated scf accuracy    <     104.10669358 Ry

     total magnetization       =   142.50 Bohr mag/cell
     absolute magnetization    =   191.88 Bohr mag/cell

     iteration #  4     ecut=    50.00 Ry     beta= 0.10
     Davidson diagonalization with overlap
     ethr =  9.40E-03,  avg # of iterations =  1.0

     negative rho (up, down):  2.870E-01 2.307E-07
 
     Adding external electric field

     Computed dipole along edir(3) : 
        Dipole               -2.0545 Ry au,         -5.2220 Debye
        Dipole field         -0.0012 Ry au, 
 
        Potential amp.        0.1348 Ry
        Total length         54.7057 bohr
 
 
     Adding external electric field

     Computed dipole along edir(3) : 
        Dipole               -2.0545 Ry au,         -5.2220 Debye
        Dipole field         -0.0012 Ry au, 
 
        Potential amp.        0.1348 Ry
        Total length         54.7057 bohr
 

     total cpu time spent up to now is      115.9 secs

     total energy              =   -8001.71321817 Ry
     estimated scf accuracy    <      84.45308266 Ry

     total magnetization       =   127.48 Bohr mag/cell
     absolute magnetization    =   178.15 Bohr mag/cell

     iteration #  5     ecut=    50.00 Ry     beta= 0.10
     Davidson diagonalization with overlap
     ethr =  7.62E-03,  avg # of iterations =  1.0

     negative rho (up, down):  4.520E-02 6.273E-08
 
     Adding external electric field

     Computed dipole along edir(3) : 
        Dipole               -1.6725 Ry au,         -4.2511 Debye
        Dipole field         -0.0010 Ry au, 
 
        Potential amp.        0.1097 Ry
        Total length         54.7057 bohr
 
 
     Adding external electric field

     Computed dipole along edir(3) : 
        Dipole               -1.6725 Ry au,         -4.2511 Debye
        Dipole field         -0.0010 Ry au, 
 
        Potential amp.        0.1097 Ry
        Total length         54.7057 bohr
 

     total cpu time spent up to now is      135.2 secs

     total energy              =   -8061.84208291 Ry
     estimated scf accuracy    <      68.01617995 Ry

     total magnetization       =   106.24 Bohr mag/cell
     absolute magnetization    =   159.99 Bohr mag/cell

     iteration #  6     ecut=    50.00 Ry     beta= 0.10
     Davidson diagonalization with overlap
     ethr =  6.14E-03,  avg # of iterations =  1.0

     negative rho (up, down):  7.431E-04 1.595E-03
 
     Adding external electric field

     Computed dipole along edir(3) : 
        Dipole               -1.3539 Ry au,         -3.4412 Debye
        Dipole field         -0.0008 Ry au, 
 
        Potential amp.        0.0888 Ry
        Total length         54.7057 bohr
 
 
     Adding external electric field

     Computed dipole along edir(3) : 
        Dipole               -1.3539 Ry au,         -3.4412 Debye
        Dipole field         -0.0008 Ry au, 
 
        Potential amp.        0.0888 Ry
        Total length         54.7057 bohr
 

     total cpu time spent up to now is      154.0 secs

     total energy              =   -8076.02237176 Ry
     estimated scf accuracy    <      15.94550280 Ry

     total magnetization       =   100.00 Bohr mag/cell
     absolute magnetization    =   133.25 Bohr mag/cell

     iteration #  7     ecut=    50.00 Ry     beta= 0.10
     Davidson diagonalization with overlap
     ethr =  1.44E-03,  avg # of iterations =  6.5

     negative rho (up, down):  7.329E-04 1.562E-03
 
     Adding external electric field

     Computed dipole along edir(3) : 
        Dipole               -1.3496 Ry au,         -3.4304 Debye
        Dipole field         -0.0008 Ry au, 
 
        Potential amp.        0.0885 Ry
        Total length         54.7057 bohr
 
 
     Adding external electric field

     Computed dipole along edir(3) : 
        Dipole               -1.3496 Ry au,         -3.4304 Debye
        Dipole field         -0.0008 Ry au, 
 
        Potential amp.        0.0885 Ry
        Total length         54.7057 bohr
 

     total cpu time spent up to now is      188.3 secs

     total energy              =   -8079.00510269 Ry
     estimated scf accuracy    <      34.31140759 Ry

     total magnetization       =    64.99 Bohr mag/cell
     absolute magnetization    =    83.25 Bohr mag/cell

     iteration #  8     ecut=    50.00 Ry     beta= 0.10
     Davidson diagonalization with overlap
     ethr =  1.44E-03,  avg # of iterations =  1.0

     negative rho (up, down):  7.238E-04 1.543E-03
 
     Adding external electric field

     Computed dipole along edir(3) : 
        Dipole               -1.3543 Ry au,         -3.4423 Debye
        Dipole field         -0.0008 Ry au, 
 
        Potential amp.        0.0888 Ry
        Total length         54.7057 bohr
 
 
     Adding external electric field

     Computed dipole along edir(3) : 
        Dipole               -1.3543 Ry au,         -3.4423 Debye
        Dipole field         -0.0008 Ry au, 
 
        Potential amp.        0.0888 Ry
        Total length         54.7057 bohr
 

     total cpu time spent up to now is      206.6 secs

     total energy              =   -8079.08229949 Ry
     estimated scf accuracy    <      33.23999358 Ry

     total magnetization       =    65.49 Bohr mag/cell
     absolute magnetization    =    83.25 Bohr mag/cell

     iteration #  9     ecut=    50.00 Ry     beta= 0.10
     Davidson diagonalization with overlap
     ethr =  1.44E-03,  avg # of iterations =  1.0

     negative rho (up, down):  7.733E-04 1.606E-03
 
     Adding external electric field

     Computed dipole along edir(3) : 
        Dipole               -1.3340 Ry au,         -3.3907 Debye
        Dipole field         -0.0008 Ry au, 
 
        Potential amp.        0.0875 Ry
        Total length         54.7057 bohr
 
 
     Adding external electric field

     Computed dipole along edir(3) : 
        Dipole               -1.3340 Ry au,         -3.3907 Debye
        Dipole field         -0.0008 Ry au, 
 
        Potential amp.        0.0875 Ry
        Total length         54.7057 bohr
 

     total cpu time spent up to now is      225.4 secs

     total energy              =   -8079.06243061 Ry
     estimated scf accuracy    <      33.41671684 Ry

     total magnetization       =    65.44 Bohr mag/cell
     absolute magnetization    =    82.90 Bohr mag/cell

     iteration # 10     ecut=    50.00 Ry     beta= 0.10
     Davidson diagonalization with overlap
     ethr =  1.44E-03,  avg # of iterations =  1.0

     negative rho (up, down):  7.686E-04 1.603E-03
 
     Adding external electric field

     Computed dipole along edir(3) : 
        Dipole               -1.3602 Ry au,         -3.4572 Debye
        Dipole field         -0.0008 Ry au, 
 
        Potential amp.        0.0892 Ry
        Total length         54.7057 bohr
 
 
     Adding external electric field

     Computed dipole along edir(3) : 
        Dipole               -1.3602 Ry au,         -3.4572 Debye
        Dipole field         -0.0008 Ry au, 
 
        Potential amp.        0.0892 Ry
        Total length         54.7057 bohr
 

     total cpu time spent up to now is      243.9 secs

     total energy              =   -8079.08728860 Ry
     estimated scf accuracy    <      32.52713105 Ry

     total magnetization       =    65.83 Bohr mag/cell
     absolute magnetization    =    82.96 Bohr mag/cell

     iteration # 11     ecut=    50.00 Ry     beta= 0.10
     Davidson diagonalization with overlap
     ethr =  1.44E-03,  avg # of iterations =  1.0

     negative rho (up, down):  6.874E-04 1.452E-03
 
     Adding external electric field

     Computed dipole along edir(3) : 
        Dipole               -1.3531 Ry au,         -3.4394 Debye
        Dipole field         -0.0008 Ry au, 
 
        Potential amp.        0.0888 Ry
        Total length         54.7057 bohr
 
 
     Adding external electric field

     Computed dipole along edir(3) : 
        Dipole               -1.3531 Ry au,         -3.4394 Debye
        Dipole field         -0.0008 Ry au, 
 
        Potential amp.        0.0888 Ry
        Total length         54.7057 bohr
 

     total cpu time spent up to now is      261.6 secs

     total energy              =   -8079.12698802 Ry
     estimated scf accuracy    <      32.99673283 Ry

     total magnetization       =    65.72 Bohr mag/cell
     absolute magnetization    =    82.72 Bohr mag/cell

     iteration # 12     ecut=    50.00 Ry     beta= 0.10
     Davidson diagonalization with overlap
     ethr =  1.44E-03,  avg # of iterations =  1.0

     negative rho (up, down):  3.974E-03 7.271E-03
 
     Adding external electric field

     Computed dipole along edir(3) : 
        Dipole               -1.3479 Ry au,         -3.4261 Debye
        Dipole field         -0.0008 Ry au, 
 
        Potential amp.        0.0884 Ry
        Total length         54.7057 bohr
 
 
     Adding external electric field

     Computed dipole along edir(3) : 
        Dipole               -1.3479 Ry au,         -3.4261 Debye
        Dipole field         -0.0008 Ry au, 
 
        Potential amp.        0.0884 Ry
        Total length         54.7057 bohr
 

     total cpu time spent up to now is      279.2 secs

     total energy              =   -8078.77551217 Ry
     estimated scf accuracy    <      33.63767666 Ry

     total magnetization       =    65.43 Bohr mag/cell
     absolute magnetization    =    82.38 Bohr mag/cell

     iteration # 13     ecut=    50.00 Ry     beta= 0.10
     Davidson diagonalization with overlap
     ethr =  1.44E-03,  avg # of iterations =  1.0

     negative rho (up, down):  7.947E-04 2.196E-03
 
     Adding external electric field

     Computed dipole along edir(3) : 
        Dipole               -1.2405 Ry au,         -3.1531 Debye
        Dipole field         -0.0007 Ry au, 
 
        Potential amp.        0.0814 Ry
        Total length         54.7057 bohr
 
 
     Adding external electric field

     Computed dipole along edir(3) : 
        Dipole               -1.2405 Ry au,         -3.1531 Debye
        Dipole field         -0.0007 Ry au, 
 
        Potential amp.        0.0814 Ry
        Total length         54.7057 bohr
 

     total cpu time spent up to now is      297.5 secs

     total energy              =   -8079.18566845 Ry
     estimated scf accuracy    <      27.15799036 Ry

     total magnetization       =    67.62 Bohr mag/cell
     absolute magnetization    =    83.82 Bohr mag/cell

     iteration # 14     ecut=    50.00 Ry     beta= 0.10
     Davidson diagonalization with overlap
     ethr =  1.44E-03,  avg # of iterations =  1.0

     negative rho (up, down):  7.698E-02 6.530E-02
 
     Adding external electric field

     Computed dipole along edir(3) : 
        Dipole               -0.9797 Ry au,         -2.4902 Debye
        Dipole field         -0.0006 Ry au, 
 
        Potential amp.        0.0643 Ry
        Total length         54.7057 bohr
 
 
     Adding external electric field

     Computed dipole along edir(3) : 
        Dipole               -0.9797 Ry au,         -2.4902 Debye
        Dipole field         -0.0006 Ry au, 
 
        Potential amp.        0.0643 Ry
        Total length         54.7057 bohr
 

     total cpu time spent up to now is      315.2 secs

     total energy              =   -8076.09072411 Ry
     estimated scf accuracy    <      37.15359591 Ry

     total magnetization       =    62.95 Bohr mag/cell
     absolute magnetization    =    79.73 Bohr mag/cell

     iteration # 15     ecut=    50.00 Ry     beta= 0.10
     Davidson diagonalization with overlap
     ethr =  1.44E-03,  avg # of iterations =  2.0

     negative rho (up, down):  5.615E-02 5.219E-02
 
     Adding external electric field

     Computed dipole along edir(3) : 
        Dipole               -0.8613 Ry au,         -2.1892 Debye
        Dipole field         -0.0005 Ry au, 
 
        Potential amp.        0.0565 Ry
        Total length         54.7057 bohr
 
 
     Adding external electric field

     Computed dipole along edir(3) : 
        Dipole               -0.8613 Ry au,         -2.1892 Debye
        Dipole field         -0.0005 Ry au, 
 
        Potential amp.        0.0565 Ry
        Total length         54.7057 bohr
 

     total cpu time spent up to now is      335.4 secs

     total energy              =   -8078.13981681 Ry
     estimated scf accuracy    <       1.91977079 Ry

     total magnetization       =    97.43 Bohr mag/cell
     absolute magnetization    =   109.77 Bohr mag/cell

     iteration # 16     ecut=    50.00 Ry     beta= 0.10
     Davidson diagonalization with overlap
     ethr =  1.73E-04,  avg # of iterations =  8.0

     negative rho (up, down):  2.484E-02 2.524E-02
 
     Adding external electric field

     Computed dipole along edir(3) : 
        Dipole               -0.8612 Ry au,         -2.1889 Debye
        Dipole field         -0.0005 Ry au, 
 
        Potential amp.        0.0565 Ry
        Total length         54.7057 bohr
 
 
     Adding external electric field

     Computed dipole along edir(3) : 
        Dipole               -0.8612 Ry au,         -2.1889 Debye
        Dipole field         -0.0005 Ry au, 
 
        Potential amp.        0.0565 Ry
        Total length         54.7057 bohr
 

     total cpu time spent up to now is      362.2 secs

     total energy              =   -8078.21761436 Ry
     estimated scf accuracy    <       1.52871434 Ry

     total magnetization       =    96.03 Bohr mag/cell
     absolute magnetization    =   107.44 Bohr mag/cell

     iteration # 17     ecut=    50.00 Ry     beta= 0.10
     Davidson diagonalization with overlap
     ethr =  1.38E-04,  avg # of iterations =  1.5

     negative rho (up, down):  6.778E-03 6.731E-03
 
     Adding external electric field

     Computed dipole along edir(3) : 
        Dipole               -1.3461 Ry au,         -3.4215 Debye
        Dipole field         -0.0008 Ry au, 
 
        Potential amp.        0.0883 Ry
        Total length         54.7057 bohr
 
 
     Adding external electric field

     Computed dipole along edir(3) : 
        Dipole               -1.3461 Ry au,         -3.4215 Debye
        Dipole field         -0.0008 Ry au, 
 
        Potential amp.        0.0883 Ry
        Total length         54.7057 bohr
 

     total cpu time spent up to now is      381.6 secs

     total energy              =   -8078.30081388 Ry
     estimated scf accuracy    <       1.39724194 Ry

     total magnetization       =    94.72 Bohr mag/cell
     absolute magnetization    =   104.94 Bohr mag/cell

     iteration # 18     ecut=    50.00 Ry     beta= 0.10
     Davidson diagonalization with overlap
     ethr =  1.26E-04,  avg # of iterations =  2.0

     negative rho (up, down):  8.702E-04 1.194E-03
 
     Adding external electric field

     Computed dipole along edir(3) : 
        Dipole               -1.2759 Ry au,         -3.2431 Debye
        Dipole field         -0.0008 Ry au, 
 
        Potential amp.        0.0837 Ry
        Total length         54.7057 bohr
 
 
     Adding external electric field

     Computed dipole along edir(3) : 
        Dipole               -1.2759 Ry au,         -3.2431 Debye
        Dipole field         -0.0008 Ry au, 
 
        Potential amp.        0.0837 Ry
        Total length         54.7057 bohr
 

     total cpu time spent up to now is      401.6 secs

     total energy              =   -8078.41521043 Ry
     estimated scf accuracy    <       0.77503584 Ry

     total magnetization       =    94.77 Bohr mag/cell
     absolute magnetization    =   103.16 Bohr mag/cell

     iteration # 19     ecut=    50.00 Ry     beta= 0.10
     Davidson diagonalization with overlap
     ethr =  6.99E-05,  avg # of iterations =  7.5

     negative rho (up, down):  1.248E-03 1.875E-03
 
     Adding external electric field

     Computed dipole along edir(3) : 
        Dipole               -1.1863 Ry au,         -3.0152 Debye
        Dipole field         -0.0007 Ry au, 
 
        Potential amp.        0.0778 Ry
        Total length         54.7057 bohr
 
 
     Adding external electric field

     Computed dipole along edir(3) : 
        Dipole               -1.1863 Ry au,         -3.0152 Debye
        Dipole field         -0.0007 Ry au, 
 
        Potential amp.        0.0778 Ry
        Total length         54.7057 bohr
 

     total cpu time spent up to now is      426.9 secs

     total energy              =   -8078.42903828 Ry
     estimated scf accuracy    <       1.43602422 Ry

     total magnetization       =    91.50 Bohr mag/cell
     absolute magnetization    =    98.68 Bohr mag/cell

     iteration # 20     ecut=    50.00 Ry     beta= 0.10
     Davidson diagonalization with overlap
     ethr =  6.99E-05,  avg # of iterations =  1.5

     negative rho (up, down):  2.105E-04 3.684E-04
 
     Adding external electric field

     Computed dipole along edir(3) : 
        Dipole               -1.1155 Ry au,         -2.8354 Debye
        Dipole field         -0.0007 Ry au, 
 
        Potential amp.        0.0732 Ry
        Total length         54.7057 bohr
 
 
     Adding external electric field

     Computed dipole along edir(3) : 
        Dipole               -1.1155 Ry au,         -2.8354 Debye
        Dipole field         -0.0007 Ry au, 
 
        Potential amp.        0.0732 Ry
        Total length         54.7057 bohr
 

     total cpu time spent up to now is      446.1 secs

     total energy              =   -8078.48216806 Ry
     estimated scf accuracy    <       0.90099543 Ry

     total magnetization       =    92.63 Bohr mag/cell
     absolute magnetization    =    99.42 Bohr mag/cell

     iteration # 21     ecut=    50.00 Ry     beta= 0.10
     Davidson diagonalization with overlap
     ethr =  6.99E-05,  avg # of iterations =  1.5

     negative rho (up, down):  2.160E-04 4.003E-04
 
     Adding external electric field

     Computed dipole along edir(3) : 
        Dipole               -1.1151 Ry au,         -2.8342 Debye
        Dipole field         -0.0007 Ry au, 
 
        Potential amp.        0.0731 Ry
        Total length         54.7057 bohr
 
 
     Adding external electric field

     Computed dipole along edir(3) : 
        Dipole               -1.1151 Ry au,         -2.8342 Debye
        Dipole field         -0.0007 Ry au, 
 
        Potential amp.        0.0731 Ry
        Total length         54.7057 bohr
 

     total cpu time spent up to now is      466.3 secs

     total energy              =   -8078.51411963 Ry
     estimated scf accuracy    <       2.33509376 Ry

     total magnetization       =    88.97 Bohr mag/cell
     absolute magnetization    =    94.54 Bohr mag/cell

     iteration # 22     ecut=    50.00 Ry     beta= 0.10
     Davidson diagonalization with overlap
     ethr =  6.99E-05,  avg # of iterations =  1.5

     negative rho (up, down):  1.608E-03 2.202E-03
 
     Adding external electric field

     Computed dipole along edir(3) : 
        Dipole               -1.2684 Ry au,         -3.2239 Debye
        Dipole field         -0.0008 Ry au, 
 
        Potential amp.        0.0832 Ry
        Total length         54.7057 bohr
 
 
     Adding external electric field

     Computed dipole along edir(3) : 
        Dipole               -1.2684 Ry au,         -3.2239 Debye
        Dipole field         -0.0008 Ry au, 
 
        Potential amp.        0.0832 Ry
        Total length         54.7057 bohr
 

     total cpu time spent up to now is      486.2 secs

     total energy              =   -8078.57066808 Ry
     estimated scf accuracy    <       1.31455185 Ry

     total magnetization       =    91.38 Bohr mag/cell
     absolute magnetization    =    95.83 Bohr mag/cell

     iteration # 23     ecut=    50.00 Ry     beta= 0.10
     Davidson diagonalization with overlap
     ethr =  6.99E-05,  avg # of iterations =  1.5

     negative rho (up, down):  2.702E-04 4.652E-04
 
     Adding external electric field

     Computed dipole along edir(3) : 
        Dipole               -1.0701 Ry au,         -2.7198 Debye
        Dipole field         -0.0006 Ry au, 
 
        Potential amp.        0.0702 Ry
        Total length         54.7057 bohr
 
 
     Adding external electric field

     Computed dipole along edir(3) : 
        Dipole               -1.0701 Ry au,         -2.7198 Debye
        Dipole field         -0.0006 Ry au, 
 
        Potential amp.        0.0702 Ry
        Total length         54.7057 bohr
 

     total cpu time spent up to now is      505.2 secs

     total energy              =   -8078.53843430 Ry
     estimated scf accuracy    <       2.49040914 Ry

     total magnetization       =    90.43 Bohr mag/cell
     absolute magnetization    =    94.75 Bohr mag/cell

     iteration # 24     ecut=    50.00 Ry     beta= 0.10
     Davidson diagonalization with overlap
     ethr =  6.99E-05,  avg # of iterations =  1.5

     negative rho (up, down):  3.241E-04 6.007E-04
 
     Adding external electric field

     Computed dipole along edir(3) : 
        Dipole               -1.0859 Ry au,         -2.7600 Debye
        Dipole field         -0.0007 Ry au, 
 
        Potential amp.        0.0712 Ry
        Total length         54.7057 bohr
 
 
     Adding external electric field

     Computed dipole along edir(3) : 
        Dipole               -1.0859 Ry au,         -2.7600 Debye
        Dipole field         -0.0007 Ry au, 
 
        Potential amp.        0.0712 Ry
        Total length         54.7057 bohr
 

     total cpu time spent up to now is      524.9 secs

     total energy              =   -8078.55559641 Ry
     estimated scf accuracy    <       0.59706130 Ry

     total magnetization       =    94.04 Bohr mag/cell
     absolute magnetization    =    97.60 Bohr mag/cell

     iteration # 25     ecut=    50.00 Ry     beta= 0.10
     Davidson diagonalization with overlap
     ethr =  5.39E-05,  avg # of iterations =  1.5

     negative rho (up, down):  4.177E-03 4.563E-03
 
     Adding external electric field

     Computed dipole along edir(3) : 
        Dipole               -0.9781 Ry au,         -2.4860 Debye
        Dipole field         -0.0006 Ry au, 
 
        Potential amp.        0.0641 Ry
        Total length         54.7057 bohr
 
 
     Adding external electric field

     Computed dipole along edir(3) : 
        Dipole               -0.9781 Ry au,         -2.4860 Debye
        Dipole field         -0.0006 Ry au, 
 
        Potential amp.        0.0641 Ry
        Total length         54.7057 bohr
 

     total cpu time spent up to now is      543.8 secs

     total energy              =   -8078.58099919 Ry
     estimated scf accuracy    <       0.93494962 Ry

     total magnetization       =    93.05 Bohr mag/cell
     absolute magnetization    =    96.67 Bohr mag/cell

     iteration # 26     ecut=    50.00 Ry     beta= 0.10
     Davidson diagonalization with overlap
     ethr =  5.39E-05,  avg # of iterations =  2.0

     negative rho (up, down):  2.962E-03 3.310E-03
 
     Adding external electric field

     Computed dipole along edir(3) : 
        Dipole               -0.9337 Ry au,         -2.3731 Debye
        Dipole field         -0.0006 Ry au, 
 
        Potential amp.        0.0612 Ry
        Total length         54.7057 bohr
 
 
     Adding external electric field

     Computed dipole along edir(3) : 
        Dipole               -0.9337 Ry au,         -2.3731 Debye
        Dipole field         -0.0006 Ry au, 
 
        Potential amp.        0.0612 Ry
        Total length         54.7057 bohr
 

     total cpu time spent up to now is      563.5 secs

     total energy              =   -8078.59902454 Ry
     estimated scf accuracy    <       0.30294144 Ry

     total magnetization       =    94.99 Bohr mag/cell
     absolute magnetization    =    97.32 Bohr mag/cell

     iteration # 27     ecut=    50.00 Ry     beta= 0.10
     Davidson diagonalization with overlap
     ethr =  2.73E-05,  avg # of iterations =  2.0

     negative rho (up, down):  5.013E-04 5.193E-04
 
     Adding external electric field

     Computed dipole along edir(3) : 
        Dipole               -0.8357 Ry au,         -2.1241 Debye
        Dipole field         -0.0005 Ry au, 
 
        Potential amp.        0.0548 Ry
        Total length         54.7057 bohr
 
 
     Adding external electric field

     Computed dipole along edir(3) : 
        Dipole               -0.8357 Ry au,         -2.1241 Debye
        Dipole field         -0.0005 Ry au, 
 
        Potential amp.        0.0548 Ry
        Total length         54.7057 bohr
 

     total cpu time spent up to now is      582.8 secs

     total energy              =   -8078.60331211 Ry
     estimated scf accuracy    <       0.28106027 Ry

     total magnetization       =    95.21 Bohr mag/cell
     absolute magnetization    =    97.46 Bohr mag/cell

     iteration # 28     ecut=    50.00 Ry     beta= 0.10
     Davidson diagonalization with overlap
     c_bands:  4 eigenvalues not converged
     ethr =  2.54E-05,  avg # of iterations = 11.0

     negative rho (up, down):  4.946E-04 2.839E-04
 
     Adding external electric field

     Computed dipole along edir(3) : 
        Dipole               -0.7638 Ry au,         -1.9413 Debye
        Dipole field         -0.0005 Ry au, 
 
        Potential amp.        0.0501 Ry
        Total length         54.7057 bohr
 
 
     Adding external electric field

     Computed dipole along edir(3) : 
        Dipole               -0.7638 Ry au,         -1.9413 Debye
        Dipole field         -0.0005 Ry au, 
 
        Potential amp.        0.0501 Ry
        Total length         54.7057 bohr
 

     total cpu time spent up to now is      616.7 secs

     total energy              =   -8078.60421897 Ry
     estimated scf accuracy    <       0.22223306 Ry

     total magnetization       =    95.74 Bohr mag/cell
     absolute magnetization    =    97.74 Bohr mag/cell

     iteration # 29     ecut=    50.00 Ry     beta= 0.10
     Davidson diagonalization with overlap
     ethr =  2.01E-05,  avg # of iterations =  2.0

     negative rho (up, down):  7.825E-05 3.750E-05
 
     Adding external electric field

     Computed dipole along edir(3) : 
        Dipole               -0.7780 Ry au,         -1.9774 Debye
        Dipole field         -0.0005 Ry au, 
 
        Potential amp.        0.0510 Ry
        Total length         54.7057 bohr
 
 
     Adding external electric field

     Computed dipole along edir(3) : 
        Dipole               -0.7780 Ry au,         -1.9774 Debye
        Dipole field         -0.0005 Ry au, 
 
        Potential amp.        0.0510 Ry
        Total length         54.7057 bohr
 

     total cpu time spent up to now is      637.1 secs

     total energy              =   -8078.60504139 Ry
     estimated scf accuracy    <       0.20656048 Ry

     total magnetization       =    95.95 Bohr mag/cell
     absolute magnetization    =    97.64 Bohr mag/cell

     iteration # 30     ecut=    50.00 Ry     beta= 0.10
     Davidson diagonalization with overlap
     ethr =  1.86E-05,  avg # of iterations =  1.5

     negative rho (up, down):  7.335E-05 3.177E-05
 
     Adding external electric field

     Computed dipole along edir(3) : 
        Dipole               -0.7817 Ry au,         -1.9869 Debye
        Dipole field         -0.0005 Ry au, 
 
        Potential amp.        0.0513 Ry
        Total length         54.7057 bohr
 
 
     Adding external electric field

     Computed dipole along edir(3) : 
        Dipole               -0.7817 Ry au,         -1.9869 Debye
        Dipole field         -0.0005 Ry au, 
 
        Potential amp.        0.0513 Ry
        Total length         54.7057 bohr
 

     total cpu time spent up to now is      656.6 secs

     total energy              =   -8078.60388127 Ry
     estimated scf accuracy    <       0.19338907 Ry

     total magnetization       =    95.92 Bohr mag/cell
     absolute magnetization    =    97.69 Bohr mag/cell

     iteration # 31     ecut=    50.00 Ry     beta= 0.10
     Davidson diagonalization with overlap
     ethr =  1.75E-05,  avg # of iterations =  1.5

     negative rho (up, down):  1.130E-03 8.844E-04
 
     Adding external electric field

     Computed dipole along edir(3) : 
        Dipole               -0.8920 Ry au,         -2.2672 Debye
        Dipole field         -0.0005 Ry au, 
 
        Potential amp.        0.0585 Ry
        Total length         54.7057 bohr
 
 
     Adding external electric field

     Computed dipole along edir(3) : 
        Dipole               -0.8920 Ry au,         -2.2672 Debye
        Dipole field         -0.0005 Ry au, 
 
        Potential amp.        0.0585 Ry
        Total length         54.7057 bohr
 

     total cpu time spent up to now is      675.3 secs

     total energy              =   -8078.60516060 Ry
     estimated scf accuracy    <       0.20173349 Ry

     total magnetization       =    95.91 Bohr mag/cell
     absolute magnetization    =    97.74 Bohr mag/cell

     iteration # 32     ecut=    50.00 Ry     beta= 0.10
     Davidson diagonalization with overlap
     ethr =  1.75E-05,  avg # of iterations =  1.5

     negative rho (up, down):  4.313E-03 4.068E-03
 
     Adding external electric field

     Computed dipole along edir(3) : 
        Dipole               -1.0961 Ry au,         -2.7861 Debye
        Dipole field         -0.0007 Ry au, 
 
        Potential amp.        0.0719 Ry
        Total length         54.7057 bohr
 
 
     Adding external electric field

     Computed dipole along edir(3) : 
        Dipole               -1.0961 Ry au,         -2.7861 Debye
        Dipole field         -0.0007 Ry au, 
 
        Potential amp.        0.0719 Ry
        Total length         54.7057 bohr
 

     total cpu time spent up to now is      694.2 secs

     total energy              =   -8078.60683771 Ry
     estimated scf accuracy    <       0.10695517 Ry

     total magnetization       =    95.74 Bohr mag/cell
     absolute magnetization    =    97.18 Bohr mag/cell

     iteration # 33     ecut=    50.00 Ry     beta= 0.10
     Davidson diagonalization with overlap
     ethr =  9.65E-06,  avg # of iterations = 16.5

     negative rho (up, down):  6.679E-03 6.074E-03
 
     Adding external electric field

     Computed dipole along edir(3) : 
        Dipole               -1.1239 Ry au,         -2.8566 Debye
        Dipole field         -0.0007 Ry au, 
 
        Potential amp.        0.0737 Ry
        Total length         54.7057 bohr
 
 
     Adding external electric field

     Computed dipole along edir(3) : 
        Dipole               -1.1239 Ry au,         -2.8566 Debye
        Dipole field         -0.0007 Ry au, 
 
        Potential amp.        0.0737 Ry
        Total length         54.7057 bohr
 

     total cpu time spent up to now is      735.6 secs

     total energy              =   -8078.60459798 Ry
     estimated scf accuracy    <       0.05387319 Ry

     total magnetization       =    95.56 Bohr mag/cell
     absolute magnetization    =    96.85 Bohr mag/cell

     iteration # 34     ecut=    50.00 Ry     beta= 0.10
     Davidson diagonalization with overlap
     ethr =  4.86E-06,  avg # of iterations =  3.0

     negative rho (up, down):  1.144E-02 1.075E-02
 
     Adding external electric field

     Computed dipole along edir(3) : 
        Dipole               -1.1784 Ry au,         -2.9953 Debye
        Dipole field         -0.0007 Ry au, 
 
        Potential amp.        0.0773 Ry
        Total length         54.7057 bohr
 
 
     Adding external electric field

     Computed dipole along edir(3) : 
        Dipole               -1.1784 Ry au,         -2.9953 Debye
        Dipole field         -0.0007 Ry au, 
 
        Potential amp.        0.0773 Ry
        Total length         54.7057 bohr
 

     total cpu time spent up to now is      757.7 secs

     total energy              =   -8078.60490424 Ry
     estimated scf accuracy    <       0.05018400 Ry

     total magnetization       =    96.08 Bohr mag/cell
     absolute magnetization    =    97.38 Bohr mag/cell

     iteration # 35     ecut=    50.00 Ry     beta= 0.10
     Davidson diagonalization with overlap
     ethr =  4.53E-06,  avg # of iterations =  2.0

     negative rho (up, down):  8.999E-03 8.550E-03
 
     Adding external electric field

     Computed dipole along edir(3) : 
        Dipole               -1.1366 Ry au,         -2.8890 Debye
        Dipole field         -0.0007 Ry au, 
 
        Potential amp.        0.0745 Ry
        Total length         54.7057 bohr
 
 
     Adding external electric field

     Computed dipole along edir(3) : 
        Dipole               -1.1366 Ry au,         -2.8890 Debye
        Dipole field         -0.0007 Ry au, 
 
        Potential amp.        0.0745 Ry
        Total length         54.7057 bohr
 

     total cpu time spent up to now is      778.1 secs

     total energy              =   -8078.60566681 Ry
     estimated scf accuracy    <       0.03951605 Ry

     total magnetization       =    96.03 Bohr mag/cell
     absolute magnetization    =    97.27 Bohr mag/cell

     iteration # 36     ecut=    50.00 Ry     beta= 0.10
     Davidson diagonalization with overlap
     ethr =  3.57E-06,  avg # of iterations =  3.0

     negative rho (up, down):  1.143E-02 1.097E-02
 
     Adding external electric field

     Computed dipole along edir(3) : 
        Dipole               -1.1532 Ry au,         -2.9310 Debye
        Dipole field         -0.0007 Ry au, 
 
        Potential amp.        0.0756 Ry
        Total length         54.7057 bohr
 
 
     Adding external electric field

     Computed dipole along edir(3) : 
        Dipole               -1.1532 Ry au,         -2.9310 Debye
        Dipole field         -0.0007 Ry au, 
 
        Potential amp.        0.0756 Ry
        Total length         54.7057 bohr
 

     total cpu time spent up to now is      800.2 secs

     total energy              =   -8078.60537817 Ry
     estimated scf accuracy    <       0.05924005 Ry

     total magnetization       =    96.03 Bohr mag/cell
     absolute magnetization    =    97.25 Bohr mag/cell

     iteration # 37     ecut=    50.00 Ry     beta= 0.10
     Davidson diagonalization with overlap
     ethr =  3.57E-06,  avg # of iterations =  1.5

     negative rho (up, down):  1.239E-02 1.256E-02
 
     Adding external electric field

     Computed dipole along edir(3) : 
        Dipole               -1.2071 Ry au,         -3.0682 Debye
        Dipole field         -0.0007 Ry au, 
 
        Potential amp.        0.0792 Ry
        Total length         54.7057 bohr
 
 
     Adding external electric field

     Computed dipole along edir(3) : 
        Dipole               -1.2071 Ry au,         -3.0682 Debye
        Dipole field         -0.0007 Ry au, 
 
        Potential amp.        0.0792 Ry
        Total length         54.7057 bohr
 

     total cpu time spent up to now is      819.5 secs

     total energy              =   -8078.60666269 Ry
     estimated scf accuracy    <       0.05762491 Ry

     total magnetization       =    96.01 Bohr mag/cell
     absolute magnetization    =    97.21 Bohr mag/cell

     iteration # 38     ecut=    50.00 Ry     beta= 0.10
     Davidson diagonalization with overlap
     ethr =  3.57E-06,  avg # of iterations =  3.0

     negative rho (up, down):  1.244E-02 1.244E-02
 
     Adding external electric field

     Computed dipole along edir(3) : 
        Dipole               -1.1963 Ry au,         -3.0407 Debye
        Dipole field         -0.0007 Ry au, 
 
        Potential amp.        0.0785 Ry
        Total length         54.7057 bohr
 
 
     Adding external electric field

     Computed dipole along edir(3) : 
        Dipole               -1.1963 Ry au,         -3.0407 Debye
        Dipole field         -0.0007 Ry au, 
 
        Potential amp.        0.0785 Ry
        Total length         54.7057 bohr
 

     total cpu time spent up to now is      841.2 secs

     total energy              =   -8078.60586724 Ry
     estimated scf accuracy    <       0.04249993 Ry

     total magnetization       =    95.92 Bohr mag/cell
     absolute magnetization    =    97.15 Bohr mag/cell

     iteration # 39     ecut=    50.00 Ry     beta= 0.10
     Davidson diagonalization with overlap
     ethr =  3.57E-06,  avg # of iterations =  2.0

     negative rho (up, down):  1.520E-02 1.534E-02
 
     Adding external electric field

     Computed dipole along edir(3) : 
        Dipole               -1.2596 Ry au,         -3.2016 Debye
        Dipole field         -0.0008 Ry au, 
 
        Potential amp.        0.0826 Ry
        Total length         54.7057 bohr
 
 
     Adding external electric field

     Computed dipole along edir(3) : 
        Dipole               -1.2596 Ry au,         -3.2016 Debye
        Dipole field         -0.0008 Ry au, 
 
        Potential amp.        0.0826 Ry
        Total length         54.7057 bohr
 

     total cpu time spent up to now is      862.1 secs

     total energy              =   -8078.60551189 Ry
     estimated scf accuracy    <       0.04460298 Ry

     total magnetization       =    95.95 Bohr mag/cell
     absolute magnetization    =    97.14 Bohr mag/cell

     iteration # 40     ecut=    50.00 Ry     beta= 0.10
     Davidson diagonalization with overlap
     ethr =  3.57E-06,  avg # of iterations =  3.0

     negative rho (up, down):  1.286E-02 1.300E-02
 
     Adding external electric field

     Computed dipole along edir(3) : 
        Dipole               -1.2614 Ry au,         -3.2063 Debye
        Dipole field         -0.0008 Ry au, 
 
        Potential amp.        0.0827 Ry
        Total length         54.7057 bohr
 
 
     Adding external electric field

     Computed dipole along edir(3) : 
        Dipole               -1.2614 Ry au,         -3.2063 Debye
        Dipole field         -0.0008 Ry au, 
 
        Potential amp.        0.0827 Ry
        Total length         54.7057 bohr
 

     total cpu time spent up to now is      883.3 secs

     total energy              =   -8078.60625427 Ry
     estimated scf accuracy    <       0.02814473 Ry

     total magnetization       =    95.83 Bohr mag/cell
     absolute magnetization    =    97.00 Bohr mag/cell

     iteration # 41     ecut=    50.00 Ry     beta= 0.10
     Davidson diagonalization with overlap
     ethr =  2.54E-06,  avg # of iterations =  5.5

     negative rho (up, down):  1.431E-02 1.401E-02
 
     Adding external electric field

     Computed dipole along edir(3) : 
        Dipole               -1.2772 Ry au,         -3.2463 Debye
        Dipole field         -0.0008 Ry au, 
 
        Potential amp.        0.0838 Ry
        Total length         54.7057 bohr
 
 
     Adding external electric field

     Computed dipole along edir(3) : 
        Dipole               -1.2772 Ry au,         -3.2463 Debye
        Dipole field         -0.0008 Ry au, 
 
        Potential amp.        0.0838 Ry
        Total length         54.7057 bohr
 

     total cpu time spent up to now is      906.6 secs

     total energy              =   -8078.60596552 Ry
     estimated scf accuracy    <       0.02592065 Ry

     total magnetization       =    95.79 Bohr mag/cell
     absolute magnetization    =    96.99 Bohr mag/cell

     iteration # 42     ecut=    50.00 Ry     beta= 0.10
     Davidson diagonalization with overlap
     ethr =  2.34E-06,  avg # of iterations = 12.5

     negative rho (up, down):  1.474E-02 1.449E-02
 
     Adding external electric field

     Computed dipole along edir(3) : 
        Dipole               -1.2713 Ry au,         -3.2314 Debye
        Dipole field         -0.0008 Ry au, 
 
        Potential amp.        0.0834 Ry
        Total length         54.7057 bohr
 
 
     Adding external electric field

     Computed dipole along edir(3) : 
        Dipole               -1.2713 Ry au,         -3.2314 Debye
        Dipole field         -0.0008 Ry au, 
 
        Potential amp.        0.0834 Ry
        Total length         54.7057 bohr
 

     total cpu time spent up to now is      944.5 secs

     total energy              =   -8078.60574282 Ry
     estimated scf accuracy    <       0.02379235 Ry

     total magnetization       =    95.82 Bohr mag/cell
     absolute magnetization    =    97.02 Bohr mag/cell

     iteration # 43     ecut=    50.00 Ry     beta= 0.10
     Davidson diagonalization with overlap
     c_bands:  1 eigenvalues not converged
     ethr =  2.15E-06,  avg # of iterations = 11.0

     negative rho (up, down):  1.472E-02 1.448E-02
 
     Adding external electric field

     Computed dipole along edir(3) : 
        Dipole               -1.2695 Ry au,         -3.2267 Debye
        Dipole field         -0.0008 Ry au, 
 
        Potential amp.        0.0833 Ry
        Total length         54.7057 bohr
 
 
     Adding external electric field

     Computed dipole along edir(3) : 
        Dipole               -1.2695 Ry au,         -3.2267 Debye
        Dipole field         -0.0008 Ry au, 
 
        Potential amp.        0.0833 Ry
        Total length         54.7057 bohr
 

     total cpu time spent up to now is      971.7 secs

     total energy              =   -8078.60571046 Ry
     estimated scf accuracy    <       0.02386026 Ry

     total magnetization       =    95.81 Bohr mag/cell
     absolute magnetization    =    97.00 Bohr mag/cell

     iteration # 44     ecut=    50.00 Ry     beta= 0.10
     Davidson diagonalization with overlap
     ethr =  2.15E-06,  avg # of iterations =  8.0

     negative rho (up, down):  1.195E-02 1.202E-02
 
     Adding external electric field

     Computed dipole along edir(3) : 
        Dipole               -1.2542 Ry au,         -3.1878 Debye
        Dipole field         -0.0008 Ry au, 
 
        Potential amp.        0.0823 Ry
        Total length         54.7057 bohr
 
 
     Adding external electric field

     Computed dipole along edir(3) : 
        Dipole               -1.2542 Ry au,         -3.1878 Debye
        Dipole field         -0.0008 Ry au, 
 
        Potential amp.        0.0823 Ry
        Total length         54.7057 bohr
 

     total cpu time spent up to now is      996.6 secs

     total energy              =   -8078.60629593 Ry
     estimated scf accuracy    <       0.02383661 Ry

     total magnetization       =    95.81 Bohr mag/cell
     absolute magnetization    =    97.00 Bohr mag/cell

     iteration # 45     ecut=    50.00 Ry     beta= 0.10
     Davidson diagonalization with overlap
     ethr =  2.15E-06,  avg # of iterations =  2.0

     negative rho (up, down):  1.260E-02 1.246E-02
 
     Adding external electric field

     Computed dipole along edir(3) : 
        Dipole               -1.2586 Ry au,         -3.1991 Debye
        Dipole field         -0.0008 Ry au, 
 
        Potential amp.        0.0826 Ry
        Total length         54.7057 bohr
 
 
     Adding external electric field

     Computed dipole along edir(3) : 
        Dipole               -1.2586 Ry au,         -3.1991 Debye
        Dipole field         -0.0008 Ry au, 
 
        Potential amp.        0.0826 Ry
        Total length         54.7057 bohr
 

     total cpu time spent up to now is     1017.8 secs

     total energy              =   -8078.60607775 Ry
     estimated scf accuracy    <       0.02586842 Ry

     total magnetization       =    95.79 Bohr mag/cell
     absolute magnetization    =    96.98 Bohr mag/cell

     iteration # 46     ecut=    50.00 Ry     beta= 0.10
     Davidson diagonalization with overlap
     ethr =  2.15E-06,  avg # of iterations =  3.0

     negative rho (up, down):  1.214E-02 1.208E-02
 
     Adding external electric field

     Computed dipole along edir(3) : 
        Dipole               -1.2412 Ry au,         -3.1549 Debye
        Dipole field         -0.0007 Ry au, 
 
        Potential amp.        0.0814 Ry
        Total length         54.7057 bohr
 
 
     Adding external electric field

     Computed dipole along edir(3) : 
        Dipole               -1.2412 Ry au,         -3.1549 Debye
        Dipole field         -0.0007 Ry au, 
 
        Potential amp.        0.0814 Ry
        Total length         54.7057 bohr
 

     total cpu time spent up to now is     1038.4 secs

     total energy              =   -8078.60641394 Ry
     estimated scf accuracy    <       0.02264172 Ry

     total magnetization       =    95.80 Bohr mag/cell
     absolute magnetization    =    97.00 Bohr mag/cell

     iteration # 47     ecut=    50.00 Ry     beta= 0.10
     Davidson diagonalization with overlap
     ethr =  2.04E-06,  avg # of iterations =  2.0

     negative rho (up, down):  1.320E-02 1.278E-02
 
     Adding external electric field

     Computed dipole along edir(3) : 
        Dipole               -1.2412 Ry au,         -3.1548 Debye
        Dipole field         -0.0007 Ry au, 
 
        Potential amp.        0.0814 Ry
        Total length         54.7057 bohr
 
 
     Adding external electric field

     Computed dipole along edir(3) : 
        Dipole               -1.2412 Ry au,         -3.1548 Debye
        Dipole field         -0.0007 Ry au, 
 
        Potential amp.        0.0814 Ry
        Total length         54.7057 bohr
 

     total cpu time spent up to now is     1059.6 secs

     total energy              =   -8078.60398870 Ry
     estimated scf accuracy    <       0.02460711 Ry

     total magnetization       =    95.86 Bohr mag/cell
     absolute magnetization    =    97.08 Bohr mag/cell

     iteration # 48     ecut=    50.00 Ry     beta= 0.10
     Davidson diagonalization with overlap
     ethr =  2.04E-06,  avg # of iterations =  2.0

     negative rho (up, down):  1.395E-02 1.382E-02
 
     Adding external electric field

     Computed dipole along edir(3) : 
        Dipole               -1.2517 Ry au,         -3.1815 Debye
        Dipole field         -0.0008 Ry au, 
 
        Potential amp.        0.0821 Ry
        Total length         54.7057 bohr
 
 
     Adding external electric field

     Computed dipole along edir(3) : 
        Dipole               -1.2517 Ry au,         -3.1815 Debye
        Dipole field         -0.0008 Ry au, 
 
        Potential amp.        0.0821 Ry
        Total length         54.7057 bohr
 

     total cpu time spent up to now is     1079.7 secs

     total energy              =   -8078.60585631 Ry
     estimated scf accuracy    <       0.02546527 Ry

     total magnetization       =    95.91 Bohr mag/cell
     absolute magnetization    =    97.04 Bohr mag/cell

     iteration # 49     ecut=    50.00 Ry     beta= 0.10
     Davidson diagonalization with overlap
     ethr =  2.04E-06,  avg # of iterations =  2.0

     negative rho (up, down):  1.517E-02 1.483E-02
 
     Adding external electric field

     Computed dipole along edir(3) : 
        Dipole               -1.2501 Ry au,         -3.1773 Debye
        Dipole field         -0.0007 Ry au, 
 
        Potential amp.        0.0820 Ry
        Total length         54.7057 bohr
 
 
     Adding external electric field

     Computed dipole along edir(3) : 
        Dipole               -1.2501 Ry au,         -3.1773 Debye
        Dipole field         -0.0007 Ry au, 
 
        Potential amp.        0.0820 Ry
        Total length         54.7057 bohr
 

     total cpu time spent up to now is     1099.8 secs

     total energy              =   -8078.60574616 Ry
     estimated scf accuracy    <       0.02889365 Ry

     total magnetization       =    95.92 Bohr mag/cell
     absolute magnetization    =    97.10 Bohr mag/cell

     iteration # 50     ecut=    50.00 Ry     beta= 0.10
     Davidson diagonalization with overlap
     ethr =  2.04E-06,  avg # of iterations =  1.5

     negative rho (up, down):  1.482E-02 1.475E-02
 
     Adding external electric field

     Computed dipole along edir(3) : 
        Dipole               -1.2560 Ry au,         -3.1924 Debye
        Dipole field         -0.0008 Ry au, 
 
        Potential amp.        0.0824 Ry
        Total length         54.7057 bohr
 
 
     Adding external electric field

     Computed dipole along edir(3) : 
        Dipole               -1.2560 Ry au,         -3.1924 Debye
        Dipole field         -0.0008 Ry au, 
 
        Potential amp.        0.0824 Ry
        Total length         54.7057 bohr
 

     total cpu time spent up to now is     1118.4 secs

     total energy              =   -8078.60600180 Ry
     estimated scf accuracy    <       0.02454045 Ry

     total magnetization       =    95.81 Bohr mag/cell
     absolute magnetization    =    97.04 Bohr mag/cell

     iteration # 51     ecut=    50.00 Ry     beta= 0.10
     Davidson diagonalization with overlap
     ethr =  2.04E-06,  avg # of iterations =  1.5

     negative rho (up, down):  1.398E-02 1.412E-02
 
     Adding external electric field

     Computed dipole along edir(3) : 
        Dipole               -1.2461 Ry au,         -3.1673 Debye
        Dipole field         -0.0007 Ry au, 
 
        Potential amp.        0.0817 Ry
        Total length         54.7057 bohr
 
 
     Adding external electric field

     Computed dipole along edir(3) : 
        Dipole               -1.2461 Ry au,         -3.1673 Debye
        Dipole field         -0.0007 Ry au, 
 
        Potential amp.        0.0817 Ry
        Total length         54.7057 bohr
 

     total cpu time spent up to now is     1138.6 secs

     total energy              =   -8078.60605846 Ry
     estimated scf accuracy    <       0.02444324 Ry

     total magnetization       =    95.86 Bohr mag/cell
     absolute magnetization    =    97.06 Bohr mag/cell

     iteration # 52     ecut=    50.00 Ry     beta= 0.10
     Davidson diagonalization with overlap
     ethr =  2.04E-06,  avg # of iterations =  1.5

     negative rho (up, down):  1.443E-02 1.440E-02
 
     Adding external electric field

     Computed dipole along edir(3) : 
        Dipole               -1.2547 Ry au,         -3.1892 Debye
        Dipole field         -0.0008 Ry au, 
 
        Potential amp.        0.0823 Ry
        Total length         54.7057 bohr
 
 
     Adding external electric field

     Computed dipole along edir(3) : 
        Dipole               -1.2547 Ry au,         -3.1892 Debye
        Dipole field         -0.0008 Ry au, 
 
        Potential amp.        0.0823 Ry
        Total length         54.7057 bohr
 

     total cpu time spent up to now is     1158.4 secs

     total energy              =   -8078.60616282 Ry
     estimated scf accuracy    <       0.02336938 Ry

     total magnetization       =    95.81 Bohr mag/cell
     absolute magnetization    =    97.00 Bohr mag/cell

     iteration # 53     ecut=    50.00 Ry     beta= 0.10
     Davidson diagonalization with overlap
     ethr =  2.04E-06,  avg # of iterations =  1.0

     negative rho (up, down):  1.285E-02 1.276E-02
 
     Adding external electric field

     Computed dipole along edir(3) : 
        Dipole               -1.2412 Ry au,         -3.1549 Debye
        Dipole field         -0.0007 Ry au, 
 
        Potential amp.        0.0814 Ry
        Total length         54.7057 bohr
 
 
     Adding external electric field

     Computed dipole along edir(3) : 
        Dipole               -1.2412 Ry au,         -3.1549 Debye
        Dipole field         -0.0007 Ry au, 
 
        Potential amp.        0.0814 Ry
        Total length         54.7057 bohr
 

     total cpu time spent up to now is     1176.1 secs

     total energy              =   -8078.60639497 Ry
     estimated scf accuracy    <       0.02472692 Ry

     total magnetization       =    95.78 Bohr mag/cell
     absolute magnetization    =    96.99 Bohr mag/cell

     iteration # 54     ecut=    50.00 Ry     beta= 0.10
     Davidson diagonalization with overlap
     ethr =  2.04E-06,  avg # of iterations =  1.5

     negative rho (up, down):  1.325E-02 1.310E-02
 
     Adding external electric field

     Computed dipole along edir(3) : 
        Dipole               -1.2546 Ry au,         -3.1889 Debye
        Dipole field         -0.0008 Ry au, 
 
        Potential amp.        0.0823 Ry
        Total length         54.7057 bohr
 
 
     Adding external electric field

     Computed dipole along edir(3) : 
        Dipole               -1.2546 Ry au,         -3.1889 Debye
        Dipole field         -0.0008 Ry au, 
 
        Potential amp.        0.0823 Ry
        Total length         54.7057 bohr
 

     total cpu time spent up to now is     1195.9 secs

     total energy              =   -8078.60668035 Ry
     estimated scf accuracy    <       0.02422690 Ry

     total magnetization       =    95.80 Bohr mag/cell
     absolute magnetization    =    97.02 Bohr mag/cell

     iteration # 55     ecut=    50.00 Ry     beta= 0.10
     Davidson diagonalization with overlap
     ethr =  2.04E-06,  avg # of iterations =  1.0

     negative rho (up, down):  1.141E-02 1.121E-02
 
     Adding external electric field

     Computed dipole along edir(3) : 
        Dipole               -1.2007 Ry au,         -3.0518 Debye
        Dipole field         -0.0007 Ry au, 
 
        Potential amp.        0.0787 Ry
        Total length         54.7057 bohr
 
 
     Adding external electric field

     Computed dipole along edir(3) : 
        Dipole               -1.2007 Ry au,         -3.0518 Debye
        Dipole field         -0.0007 Ry au, 
 
        Potential amp.        0.0787 Ry
        Total length         54.7057 bohr
 

     total cpu time spent up to now is     1213.9 secs

     total energy              =   -8078.60610525 Ry
     estimated scf accuracy    <       0.02454846 Ry

     total magnetization       =    95.82 Bohr mag/cell
     absolute magnetization    =    97.07 Bohr mag/cell

     iteration # 56     ecut=    50.00 Ry     beta= 0.10
     Davidson diagonalization with overlap
     ethr =  2.04E-06,  avg # of iterations =  2.0

     negative rho (up, down):  1.299E-02 1.265E-02
 
     Adding external electric field

     Computed dipole along edir(3) : 
        Dipole               -1.2075 Ry au,         -3.0690 Debye
        Dipole field         -0.0007 Ry au, 
 
        Potential amp.        0.0792 Ry
        Total length         54.7057 bohr
 
 
     Adding external electric field

     Computed dipole along edir(3) : 
        Dipole               -1.2075 Ry au,         -3.0690 Debye
        Dipole field         -0.0007 Ry au, 
 
        Potential amp.        0.0792 Ry
        Total length         54.7057 bohr
 

     total cpu time spent up to now is     1233.7 secs

     total energy              =   -8078.60542684 Ry
     estimated scf accuracy    <       0.02530117 Ry

     total magnetization       =    95.82 Bohr mag/cell
     absolute magnetization    =    97.04 Bohr mag/cell

     iteration # 57     ecut=    50.00 Ry     beta= 0.10
     Davidson diagonalization with overlap
     ethr =  2.04E-06,  avg # of iterations =  2.0

     negative rho (up, down):  1.183E-02 1.180E-02
 
     Adding external electric field

     Computed dipole along edir(3) : 
        Dipole               -1.2137 Ry au,         -3.0850 Debye
        Dipole field         -0.0007 Ry au, 
 
        Potential amp.        0.0796 Ry
        Total length         54.7057 bohr
 
 
     Adding external electric field

     Computed dipole along edir(3) : 
        Dipole               -1.2137 Ry au,         -3.0850 Debye
        Dipole field         -0.0007 Ry au, 
 
        Potential amp.        0.0796 Ry
        Total length         54.7057 bohr
 

     total cpu time spent up to now is     1254.5 secs

     total energy              =   -8078.60671259 Ry
     estimated scf accuracy    <       0.02643515 Ry

     total magnetization       =    95.81 Bohr mag/cell
     absolute magnetization    =    97.00 Bohr mag/cell

     iteration # 58     ecut=    50.00 Ry     beta= 0.10
     Davidson diagonalization with overlap
     ethr =  2.04E-06,  avg # of iterations =  1.5

     negative rho (up, down):  1.251E-02 1.226E-02
 
     Adding external electric field

     Computed dipole along edir(3) : 
        Dipole               -1.2357 Ry au,         -3.1407 Debye
        Dipole field         -0.0007 Ry au, 
 
        Potential amp.        0.0810 Ry
[...]
    -6.0351  -6.0222  -6.0190  -5.9852  -5.9489  -5.9353  -5.9182  -5.8953
    -5.8838  -5.8749  -5.8644  -5.8235  -5.8117  -5.7901  -5.7525  -5.7259
    -5.7237  -5.7179  -5.6841  -5.6614  -5.6333  -5.6274  -5.6114  -5.5935
    -5.5864  -5.5677  -5.5432  -5.5308  -5.5284  -5.5187  -5.4974  -5.4305
    -5.4055  -5.3685  -5.3455  -5.2998  -5.2981  -5.2885  -5.2729  -5.2092
    -5.1833  -5.1703  -5.1668  -5.1187  -5.0876  -5.0398  -5.0160  -4.9637
    -4.9148  -4.9114  -4.8657  -4.8529  -4.8348  -4.8245  -4.7946  -4.7818
    -4.7027  -4.6785  -4.6654  -4.6386  -4.6128  -4.5949  -4.4818  -4.4581
    -4.4428  -4.4297  -4.4179  -4.3664  -4.3388  -4.3121  -4.2623  -4.2480
    -4.2283  -4.2203  -4.1527  -4.1131  -4.0904  -4.0761  -4.0259  -4.0123
    -3.9389  -3.9026  -3.8912  -3.8791  -3.8745  -3.8172  -3.7916  -3.7826
    -3.7770  -3.7601  -3.7319  -3.7083  -3.6644  -3.6513  -3.6446  -3.6315
    -3.5996  -3.5834  -3.5691  -3.5608  -3.5455  -3.5292  -3.5268  -3.4929
    -3.4682  -3.4526  -3.4462  -3.4236  -3.4169  -3.4163  -3.3716  -3.3581
    -3.3414  -3.3354  -3.3144  -3.3002  -3.2624  -3.2582  -3.2174  -3.2017
    -3.1909  -3.1491  -3.1378  -3.1153  -3.1020  -3.0881  -3.0741  -3.0459
    -3.0269  -3.0020  -2.9705  -2.9447  -2.9385  -2.9094  -2.8963  -2.8674
    -2.8585  -2.8276  -2.7919  -2.7676  -2.7499  -2.7377  -2.7324  -2.7193
    -2.7104  -2.6974  -2.6963  -2.6795  -2.6561  -2.6513  -2.6359  -2.6299
    -2.6186  -2.5886  -2.5746  -2.5712  -2.5495  -2.5456  -2.5396  -2.5157
    -2.4850  -2.4765  -2.4513  -2.4368  -2.4253  -2.4008  -2.3809  -2.3652
    -2.3406  -2.3346  -2.3227  -2.3114  -2.2753  -2.2566  -2.2369  -2.2353
    -2.2209  -2.2034  -2.1765  -2.1478  -2.1356  -2.1084  -2.0995  -2.0690
    -2.0629  -2.0526  -2.0266  -2.0141  -1.9997  -1.9718  -1.9538  -1.9321
    -1.9213  -1.9149  -1.9108  -1.8827  -1.8768  -1.8555  -1.8481  -1.8377
    -1.7729  -1.7611  -1.7364  -1.7144  -1.6987  -1.6752  -1.6712  -1.6521
    -1.6456  -1.6269  -1.6197  -1.6027  -1.5805  -1.5614  -1.5438  -1.5117
    -1.4885  -1.4715  -1.4334  -1.4220  -1.4015  -1.3928  -1.3723  -1.3561
    -1.3504  -1.3395  -1.3248  -1.2687  -1.2447  -1.2234  -1.2116  -1.1505
    -1.1350  -1.1112  -1.0466  -1.0447  -1.0336  -1.0201  -0.8825  -0.8401
    -0.7785  -0.7306  -0.6546  -0.6329  -0.4967  -0.4540  -0.4521  -0.3158
     0.1359   0.1491   0.1917   0.2091   0.2187   0.2444   0.2657   0.2736
     0.2887   0.2961   0.3008   0.3268   0.3306   0.3419   0.3425   0.3485
     0.3625   0.3671   0.3747   0.3824   0.3926   0.4001   0.4155   0.4238
     0.4290   0.4336   0.4395   0.4454   0.4477   0.4664   0.4752   0.4792
     0.4846   0.4917   0.4940   0.5094   0.5166   0.5268   0.5351   0.5395
     0.5607   0.5666   0.5793   0.5913   0.5962   0.5968   0.6096   0.6200
     0.6273   0.6299   0.6376   0.6520   0.6694   0.6817   0.6852   0.6895
     0.6988   0.6995   0.7076   0.7261   0.7374   0.7419   0.7655   0.7662
     0.7713   0.7804   0.7836   0.8084   0.8139   0.8278   0.8326   0.8343
     0.8671   0.8778   0.9264   0.9404   0.9818   0.9870   1.0235   1.0902
     1.1095   1.7188   1.7250   1.7416   1.7643   1.7772   1.7840   1.7919
     1.8189   1.8424   1.8531   1.8869   1.9131   1.9303   1.9524   1.9794
     2.0004   2.0231   2.0402   2.0513   2.0588   2.0746   2.0862   2.1154
     2.1401   2.1568   2.1613   2.1681   2.1770   2.2165   2.2263   2.2418
     2.2553   2.2630   2.2873   2.3043   2.3060   2.3232   2.3471   2.3588
     2.3854   2.4016   2.4224   2.4448   2.4684   2.4720   2.4860   2.5629
     2.5747   2.6142   2.6977   2.7219   2.7630   2.7637   2.8218   3.3218
     3.5026   3.6548   3.7156   3.7183   3.7478   3.8111   3.8452   3.8766
     3.9035   3.9119   3.9407   3.9636   3.9827   3.9886   4.0198   4.0336
     4.0471   4.0650   4.0981   4.1067   4.1234   4.1543   4.1705   4.1903
     4.1983   4.2114   4.2282   4.2711   4.3579   4.4080   4.5582   4.7425
     4.7680   4.8276   4.8417   4.8837   4.9397   4.9498   4.9700   5.0309
     5.0566   5.0740   5.1170   5.1396   5.1803   5.1834   5.3262   6.1302
     6.3171   6.3997   6.5374   6.6078   6.6600   6.6700   6.7290   6.8134
     6.8918   6.9110   6.9566   6.9807   7.1682   7.2437   7.2875   7.3113
     7.3446   7.3943   7.4473   7.4963   7.5366   7.5443   7.6452   7.6714
     7.7784   7.8340   7.8421   7.8800   7.9097   7.9492   7.9595   7.9811
     8.0245   8.0432   8.0752   8.1225   8.1564   8.1792   8.1962   8.2343
     8.2626   8.2849   8.3069   8.3185   8.3512   8.3561   8.3862   8.4182
     8.4270   8.4474   8.4845   8.5154   8.5297   8.5384   8.5677   8.5922
     8.6079

     the Fermi energy is     1.6492 ev

!    total energy              =   -8078.60446681 Ry
     estimated scf accuracy    <       0.00000094 Ry
     smearing contrib. (-TS)   =      -0.02254695 Ry
     internal energy E=F+TS    =   -8078.58191986 Ry

     The total energy is F=E-TS. E is the sum of the following terms:
     one-electron contribution =  -94726.46565833 Ry
     hartree contribution      =   47946.28356991 Ry
     xc contribution           =   -2177.33065431 Ry
     ewald contribution        =   40880.70101312 Ry
     Dispersion Correction     =      -1.77024328 Ry
     electric field correction =       0.00005304 Ry

     total magnetization       =    95.87 Bohr mag/cell
     absolute magnetization    =    97.23 Bohr mag/cell

     convergence has been achieved in 105 iterations

     negative rho (up, down):  1.165E-03 6.333E-04

     Forces acting on atoms (cartesian axes, Ry/au):

     atom    1 type  1   force =     0.02409849   -0.01757315    0.01977502
     atom    2 type  1   force =    -0.00197183    0.00014624   -0.00552819
     atom    3 type  2   force =    -0.03031943   -0.01576788   -0.00863264
     atom    4 type  1   force =     0.00188731   -0.00338191   -0.00470251
     atom    5 type  1   force =    -0.00372956    0.00247803   -0.00200934
     atom    6 type  1   force =     0.00250182    0.00723264   -0.00438978
     atom    7 type  1   force =     0.03186364   -0.01941152    0.01756133
     atom    8 type  2   force =    -0.00182791    0.00016392   -0.00893330
     atom    9 type  2   force =    -0.02897143   -0.01540821   -0.00866604
     atom   10 type  1   force =     0.00206705   -0.00305753   -0.00446707
     atom   11 type  1   force =    -0.00344135    0.00287554   -0.00119785
     atom   12 type  1   force =     0.00364852    0.00658970   -0.00381404
     atom   13 type  3   force =     0.00212089    0.00072433   -0.00767687
     atom   14 type  3   force =    -0.02975995    0.04991090   -0.06599889
     atom   15 type  3   force =     0.03465966    0.03761186   -0.05986214
     atom   16 type  3   force =    -0.00441214    0.00309643   -0.00102606
     atom   17 type  4   force =    -0.00205989    0.00127929    0.00266331
     atom   18 type  4   force =    -0.00167618   -0.00508478    0.02744153
     atom   19 type  4   force =     0.00401312    0.00286482    0.02950254
     atom   20 type  4   force =     0.00010277   -0.00277704   -0.00494887
     atom   21 type  4   force =    -0.00307443   -0.00235358    0.00351943
     atom   22 type  4   force =     0.00468571   -0.00320217    0.03400138
     atom   23 type  4   force =    -0.00595253   -0.00104435    0.03237238
     atom   24 type  4   force =     0.00070454   -0.00103049    0.00014445
     atom   25 type  4   force =    -0.00125782    0.00093187    0.00220574
     atom   26 type  4   force =    -0.01443844   -0.02282619   -0.00187814
     atom   27 type  4   force =     0.00163851   -0.00071544    0.00120077
     atom   28 type  4   force =    -0.01776827    0.00341774    0.00116037
     atom   29 type  4   force =     0.02084409   -0.00460853    0.00823205
     atom   30 type  4   force =     0.01236131   -0.03421474    0.00107998
     atom   31 type  4   force =     0.00046012    0.00107116    0.00234635
     atom   32 type  4   force =    -0.00195102    0.00008819    0.00268592
     atom   33 type  3   force =    -0.00055016   -0.00163518   -0.00515597
     atom   34 type  3   force =    -0.03023839    0.05982897   -0.08318548
     atom   35 type  3   force =     0.03460155    0.03341299   -0.05929506
     atom   36 type  3   force =    -0.00386016    0.00470156   -0.00081375
     atom   37 type  4   force =    -0.00113887    0.00126515    0.00292041
     atom   38 type  4   force =    -0.00313511   -0.00549407    0.03302117
     atom   39 type  4   force =     0.00447795    0.00398737    0.02926543
     atom   40 type  4   force =     0.00024176   -0.00328855   -0.00504841
     atom   41 type  4   force =    -0.00011723   -0.00001404    0.00371866
     atom   42 type  4   force =     0.00538807    0.00037081    0.01970856
     atom   43 type  4   force =    -0.00174994    0.00042905    0.03444732
     atom   44 type  4   force =     0.00097870   -0.00090593    0.00017314
     atom   45 type  4   force =    -0.00011988   -0.00256238    0.00131232
     atom   46 type  4   force =    -0.01500900   -0.02048626   -0.00054297
     atom   47 type  4   force =     0.00177105   -0.00060543    0.00128115
     atom   48 type  4   force =    -0.01811824    0.00404584    0.00158619
     atom   49 type  4   force =     0.01664145   -0.00280779    0.00494749
     atom   50 type  4   force =     0.01174811   -0.03692260    0.00431233
     atom   51 type  4   force =     0.00098669    0.00109411    0.00174678
     atom   52 type  4   force =     0.00115544   -0.00219471    0.00365501
     atom   53 type  1   force =     0.00134332    0.00048279   -0.00049911
     atom   54 type  1   force =     0.00075938    0.00049830    0.00096998
     atom   55 type  2   force =    -0.00012916   -0.00037114   -0.00033248
     atom   56 type  1   force =    -0.00093590   -0.00035688    0.00090145
     atom   57 type  1   force =     0.00023304    0.00016267    0.00059109
     atom   58 type  1   force =    -0.00011409   -0.00015117    0.00055413
     atom   59 type  1   force =     0.00055559    0.00080632   -0.00057494
     atom   60 type  2   force =    -0.00116694   -0.00169513    0.00652901
     atom   61 type  2   force =    -0.00040881   -0.00023288   -0.00036591
     atom   62 type  1   force =     0.00034110    0.00074165    0.00087486
     atom   63 type  1   force =    -0.00030053    0.00029208    0.00055572
     atom   64 type  1   force =     0.00032156   -0.00028275    0.00018739
     atom   65 type  3   force =    -0.00057494   -0.00111501    0.00293650
     atom   66 type  3   force =     0.00006437   -0.00014336   -0.00177375
     atom   67 type  3   force =     0.00034958    0.00055084   -0.00142459
     atom   68 type  3   force =    -0.00072347    0.00017318    0.00319927
     atom   69 type  4   force =    -0.00058335    0.00034281   -0.00108976
     atom   70 type  4   force =    -0.00005658    0.00005640    0.00046888
     atom   71 type  4   force =     0.00016296   -0.00019903    0.00041933
     atom   72 type  4   force =     0.00060873   -0.00048498   -0.00112508
     atom   73 type  4   force =    -0.00010747    0.00023387    0.00117740
     atom   74 type  4   force =    -0.00027471   -0.00058066    0.00176735
     atom   75 type  4   force =    -0.00001962    0.00000028    0.00051071
     atom   76 type  4   force =    -0.00011989   -0.00123629    0.00076546
     atom   77 type  4   force =    -0.00081063    0.00041221   -0.00084495
     atom   78 type  4   force =    -0.00026269   -0.00001968    0.00039742
     atom   79 type  4   force =     0.00046434    0.00053259   -0.00135610
     atom   80 type  4   force =     0.00001271    0.00059021    0.00029169
     atom   81 type  4   force =    -0.00034353   -0.00027112    0.00033152
     atom   82 type  4   force =     0.00015200   -0.00016795    0.00011022
     atom   83 type  4   force =    -0.00006482    0.00047830   -0.00044320
     atom   84 type  4   force =    -0.00038490    0.00018435   -0.00065017
     atom   85 type  3   force =    -0.00017751   -0.00087346    0.00162825
     atom   86 type  3   force =     0.00058551   -0.00048413   -0.00052608
     atom   87 type  3   force =    -0.00026275   -0.00003380   -0.00115864
     atom   88 type  3   force =    -0.00106645   -0.00052692    0.00097626
     atom   89 type  4   force =    -0.00014986   -0.00006427   -0.00054091
     atom   90 type  4   force =     0.00006180   -0.00048086    0.00151127
     atom   91 type  4   force =     0.00028217    0.00005758    0.00040275
     atom   92 type  4   force =     0.00051390   -0.00066760   -0.00079403
     atom   93 type  4   force =     0.00188043    0.00114401    0.00168223
     atom   94 type  4   force =    -0.00034752    0.00009629    0.00128128
     atom   95 type  4   force =     0.00028271    0.00017553    0.00053961
     atom   96 type  4   force =    -0.00015630   -0.00073540   -0.00025969
     atom   97 type  4   force =     0.00018665   -0.00038613   -0.00057508
     atom   98 type  4   force =    -0.00049681   -0.00019212    0.00037170
     atom   99 type  4   force =     0.00044445    0.00051279   -0.00106808
     atom  100 type  4   force =     0.00047265    0.00036594    0.00054366
     atom  101 type  4   force =    -0.00030238   -0.00016804    0.00049679
     atom  102 type  4   force =     0.00088395   -0.00047632    0.00045750
     atom  103 type  4   force =     0.00097934    0.00036406    0.00029937
     atom  104 type  4   force =    -0.00028346   -0.00068463    0.00004810
     atom  105 type  1   force =     0.00027666    0.00030794    0.00031309
     atom  106 type  1   force =     0.00008061    0.00032046    0.00044875
     atom  107 type  2   force =    -0.00010495    0.00026094    0.00025649
     atom  108 type  1   force =    -0.00013024   -0.00030599   -0.00000861
     atom  109 type  1   force =    -0.00001597   -0.00010793    0.00035260
     atom  110 type  1   force =     0.00063935    0.00024601   -0.00022357
     atom  111 type  1   force =    -0.00002331    0.00020367    0.00059367
     atom  112 type  2   force =    -0.00308420   -0.00138466    0.00339490
     atom  113 type  2   force =    -0.00025083    0.00014895    0.00018594
     atom  114 type  1   force =     0.00028155   -0.00012608    0.00043962
     atom  115 type  1   force =     0.00004567   -0.00010725    0.00029397
     atom  116 type  1   force =     0.00002612   -0.00004039    0.00025921
     atom  117 type  3   force =     0.00009641    0.00021906    0.00015542
     atom  118 type  3   force =     0.00034327   -0.00001621    0.00003903
     atom  119 type  3   force =     0.00018634    0.00029937   -0.00009565
     atom  120 type  3   force =    -0.00000937   -0.00029059   -0.00034682
     atom  121 type  4   force =    -0.00011797   -0.00043370    0.00029989
     atom  122 type  4   force =     0.00019825   -0.00048282    0.00021592
     atom  123 type  4   force =    -0.00031525    0.00013760   -0.00009212
     atom  124 type  4   force =    -0.00010610   -0.00050372   -0.00036926
     atom  125 type  4   force =    -0.00052281    0.00064990   -0.00012787
     atom  126 type  4   force =     0.00002272    0.00044455    0.00018505
     atom  127 type  4   force =     0.00022746   -0.00006132    0.00033814
     atom  128 type  4   force =    -0.00012044    0.00049692    0.00002150
     atom  129 type  4   force =    -0.00042233   -0.00035015    0.00015646
     atom  130 type  4   force =    -0.00041534    0.00003303    0.00011986
     atom  131 type  4   force =    -0.00010133   -0.00017334   -0.00008645
     atom  132 type  4   force =    -0.00005754    0.00027084   -0.00005056
     atom  133 type  4   force =     0.00007838    0.00005536   -0.00006940
     atom  134 type  4   force =     0.00050536   -0.00001929    0.00026659
     atom  135 type  4   force =     0.00040610   -0.00001321   -0.00017420
     atom  136 type  4   force =    -0.00020939    0.00069745    0.00023109
     atom  137 type  3   force =    -0.00071243   -0.00037250    0.00068908
     atom  138 type  3   force =     0.00037015    0.00001138    0.00012376
     atom  139 type  3   force =    -0.00037261   -0.00014667   -0.00022057
     atom  140 type  3   force =    -0.00003401    0.00045178    0.00027396
     atom  141 type  4   force =     0.00006960    0.00004172   -0.00010599
     atom  142 type  4   force =     0.00023401    0.00004049   -0.00027875
     atom  143 type  4   force =    -0.00010440   -0.00037698   -0.00037913
     atom  144 type  4   force =    -0.00053510    0.00060906    0.00020179
     atom  145 type  4   force =    -0.00042711    0.00057412   -0.00058086
     atom  146 type  4   force =     0.00003883    0.00031621   -0.00016035
     atom  147 type  4   force =    -0.00014919    0.00019271   -0.00003530
     atom  148 type  4   force =     0.00003987   -0.00003369   -0.00040374
     atom  149 type  4   force =    -0.00037201    0.00010410   -0.00015471
     atom  150 type  4   force =    -0.00012375    0.00000705    0.00000115
     atom  151 type  4   force =     0.00012155    0.00061331   -0.00024606
     atom  152 type  4   force =    -0.00005431    0.00012683   -0.00015506
     atom  153 type  4   force =    -0.00018964    0.00002705   -0.00011397
     atom  154 type  4   force =     0.00004490    0.00040559   -0.00019238
     atom  155 type  4   force =     0.00012934   -0.00007528    0.00024714
     atom  156 type  4   force =    -0.00028165    0.00017630   -0.00023531
     atom  157 type  4   force =     0.01608975   -0.00593632   -0.00499423
     atom  158 type  5   force =    -0.01150497    0.00645095    0.00120611

     Total force =     0.226435     Total SCF correction =     0.004509
 
     init_run     :     11.18s CPU     11.91s WALL (       1 calls)
     electrons    :   2142.97s CPU   2207.66s WALL (       1 calls)
     forces       :      6.43s CPU      6.78s WALL (       1 calls)
     force_london :      0.09s CPU      0.09s WALL (       1 calls)

     Called by init_run:
     wfcinit      :      6.58s CPU      6.79s WALL (       1 calls)
     potinit      :      0.62s CPU      0.83s WALL (       1 calls)
     hinit0       :      2.23s CPU      2.31s WALL (       1 calls)

     Called by electrons:
     c_bands      :   1641.11s CPU   1674.63s WALL (     105 calls)
     sum_band     :    305.39s CPU    322.13s WALL (     105 calls)
     v_of_rho     :     34.82s CPU     36.11s WALL (     106 calls)
     newd         :    115.48s CPU    128.36s WALL (     106 calls)
     mix_rho      :     43.22s CPU     43.66s WALL (     105 calls)
     energy_londo :      0.10s CPU      0.10s WALL (       1 calls)

     Called by c_bands:
     init_us_2    :      3.20s CPU      3.26s WALL (     424 calls)
     init_us_2:cp :      3.19s CPU      3.26s WALL (     424 calls)
     regterg      :   1612.36s CPU   1645.55s WALL (     212 calls)

     Called by *egterg:
     rdiaghg      :    414.80s CPU    430.55s WALL (     776 calls)
     h_psi        :    618.93s CPU    627.02s WALL (     778 calls)
     s_psi        :     72.86s CPU     72.92s WALL (     778 calls)
     g_psi        :      0.53s CPU      0.53s WALL (     564 calls)

     Called by h_psi:
     h_psi:calbec :    158.55s CPU    164.89s WALL (     778 calls)
     vloc_psi     :    384.78s CPU    385.72s WALL (     778 calls)
     add_vuspsi   :     74.52s CPU     75.31s WALL (     778 calls)

     General routines
     calbec       :    233.63s CPU    243.12s WALL (     996 calls)
     fft          :     99.84s CPU    102.04s WALL (    1921 calls)
     ffts         :     23.03s CPU     23.06s WALL (   13109 calls)
     fftw         :    444.78s CPU    445.80s WALL (  359840 calls)
     interpolate  :      3.03s CPU      3.18s WALL (     212 calls)
 
     Parallel routines
 
     PWSCF        :  36m 2.75s CPU  37m 8.83s WALL

 
   This run was terminated on:  19:17:21  17Nov2025            

=------------------------------------------------------------------------------=
   JOB DONE.
=------------------------------------------------------------------------------=
