
     Program PWSCF v.7.2 starts on 18Nov2025 at  0:27:36 

     This program is part of the open-source Quantum ESPRESSO suite
     for quantum simulation of materials; please cite
         "P. Giannozzi et al., J. Phys.:Condens. Matter 21 395502 (2009);
         "P. Giannozzi et al., J. Phys.:Condens. Matter 29 465901 (2017);
         "P. Giannozzi et al., J. Chem. Phys. 152 154105 (2020);
          URL http://www.quantum-espresso.org", 
     in publications or presentations arising from this work. More details at
     http://www.quantum-espresso.org/quote

     Parallel version (MPI), running on    64 processors

     MPI processes distributed on     4 nodes
     460376 MiB available memory on the printing compute node when the environment starts
 
     Reading input from PWINPUT_atm158_zm

     Current dimensions of program PWSCF are:
     Max number of different atomic species (ntypx) = 10
     Max number of k-points (npk) =  40000
     Max angular momentum in pseudopotentials (lmaxx) =  4
     Presently no symmetry can be used with electric field

     file Ni.pbe-n-rrkjus_psl.1.0.0.UPF: wavefunction(s)  3D renormalized
     file Mn.pbe-spn-rrkjus_psl.0.3.1.UPF: wavefunction(s)  3D renormalized
     file O.pbe-rrkjus.UPF: wavefunction(s)  2S renormalized
     file H.pbe-rrkjus.UPF: wavefunction(s)  1S renormalized

     gamma-point specific algorithms are used
 
     R & G space division:  proc/nbgrp/npool/nimage =      64
     Subspace diagonalization in iterative solution of the eigenvalue problem:
     one sub-group per band group will be used
     custom distributed-memory algorithm (size of sub-group:  7*  7 procs)

 
     Parallelization info
     --------------------
     sticks:   dense  smooth     PW     G-vecs:    dense   smooth      PW
     Min         214      85     20                61830    15614    1928
     Max         216      86     22                61864    15658    1982
     Sum       13727    5503   1375              3958051  1001255  125211
 
     Using Slab Decomposition
 


     bravais-lattice index     =            0
     lattice parameter (alat)  =      17.8532  a.u.
     unit-cell volume          =   20962.6682 (a.u.)^3
     number of atoms/cell      =          158
     number of atomic types    =            5
     number of electrons       =      1108.00
     number of Kohn-Sham states=          665
     kinetic-energy cutoff     =      50.0000  Ry
     charge density cutoff     =     500.0000  Ry
     scf convergence threshold =      1.0E-06
     mixing beta               =       0.1000
     number of iterations used =            8  local-TF  mixing
     Exchange-correlation=  SLA  PW   PBE  PBE
                           (   1   4   3   4   0   0   0)

     celldm(1)=  17.853155  celldm(2)=   0.000000  celldm(3)=   0.000000
     celldm(4)=   0.000000  celldm(5)=   0.000000  celldm(6)=   0.000000

     crystal axes: (cart. coord. in units of alat)
               a(1) = (   1.000000   0.000000   0.000000 )  
               a(2) = (   0.003237   1.081997   0.000000 )  
               a(3) = (   0.000000   0.000000   3.404673 )  

     reciprocal axes: (cart. coord. in units 2 pi/alat)
               b(1) = (  1.000000 -0.002992  0.000000 )  
               b(2) = (  0.000000  0.924217  0.000000 )  
               b(3) = (  0.000000  0.000000  0.293714 )  


     PseudoPot. # 1 for Ni read from file:
     ~/PSEUDO/Ni.pbe-n-rrkjus_psl.1.0.0.UPF
     MD5 check sum: Not computed, couldn't open file
     Pseudo is Ultrasoft + core correction, Zval = 10.0
     Generated using "atomic" code by A. Dal Corso  v.5.1.2
     Using radial grid of 1195 points,  6 beta functions with: 
                l(1) =   0
                l(2) =   0
                l(3) =   1
                l(4) =   1
                l(5) =   2
                l(6) =   2
     Q(r) pseudized with 0 coefficients 


     PseudoPot. # 2 for Mn read from file:
     ~/PSEUDO/Mn.pbe-spn-rrkjus_psl.0.3.1.UPF
     MD5 check sum: Not computed, couldn't open file
     Pseudo is Ultrasoft + core correction, Zval = 15.0
     Generated using &quot;atomic&quot; code by A. Dal Corso  v.6.2.2
     Using radial grid of 1187 points,  6 beta functions with: 
                l(1) =   0
                l(2) =   0
                l(3) =   1
                l(4) =   1
                l(5) =   2
                l(6) =   2
     Q(r) pseudized with 0 coefficients 


     PseudoPot. # 3 for P  read from file:
     ~/PSEUDO/P.pbe-n-rrkjus_psl.1.0.0.UPF
     MD5 check sum: Not computed, couldn't open file
     Pseudo is Ultrasoft + core correction, Zval =  5.0
     Generated using "atomic" code by A. Dal Corso  v.5.1
     Using radial grid of 1147 points,  6 beta functions with: 
                l(1) =   0
                l(2) =   0
                l(3) =   1
                l(4) =   1
                l(5) =   2
                l(6) =   2
     Q(r) pseudized with 0 coefficients 


     PseudoPot. # 4 for O  read from file:
     ~/PSEUDO/O.pbe-rrkjus.UPF
     MD5 check sum: Not computed, couldn't open file
     Pseudo is Ultrasoft, Zval =  6.0
     Generated by new atomic code, or converted to UPF format
     Using radial grid of 1269 points,  4 beta functions with: 
                l(1) =   0
                l(2) =   0
                l(3) =   1
                l(4) =   1
     Q(r) pseudized with 0 coefficients 


     PseudoPot. # 5 for H  read from file:
     ~/PSEUDO/H.pbe-rrkjus.UPF
     MD5 check sum: Not computed, couldn't open file
     Pseudo is Ultrasoft, Zval =  1.0
     Generated by new atomic code, or converted to UPF format
     Using radial grid of 1061 points,  2 beta functions with: 
                l(1) =   0
                l(2) =   0
     Q(r) pseudized with 0 coefficients 


     atomic species   valence    mass     pseudopotential
     Ni               10.00    58.69300     Ni( 1.00)
     Mn               15.00    54.93800     Mn( 1.00)
     P                 5.00    30.97300     P ( 1.00)
     O                 6.00    15.99900     O ( 1.00)
     H                 1.00     1.00790     H ( 1.00)

     Starting magnetic structure 
     atomic species   magnetization
     Ni              1.000
     Mn              1.000
     P               1.000
     O               1.000
     H               0.000

     No symmetry found



   Cartesian axes

     site n.     atom                  positions (alat units)
         1        Ni     tau(   1) = (   0.2448189   0.8359134   0.1216996  )
         2        Ni     tau(   2) = (   0.4920952   0.7731948   0.4438949  )
         3        Mn     tau(   3) = (   0.0113021   0.2918949   0.1160512  )
         4        Ni     tau(   4) = (   0.2586115   0.2268566   0.4417628  )
         5        Ni     tau(   5) = (   1.0019827   1.0705803   0.2835623  )
         6        Ni     tau(   6) = (   0.2518099   0.5339061   0.2823483  )
         7        Ni     tau(   7) = (   0.7400999   0.8349186   0.1225624  )
         8        Mn     tau(   8) = (   0.9886961   0.7700845   0.4492175  )
         9        Mn     tau(   9) = (   0.5113421   0.2944667   0.1158892  )
        10        Ni     tau(  10) = (   0.7560857   0.2263843   0.4422798  )
        11        Ni     tau(  11) = (   0.5009386   1.0712238   0.2822610  )
        12        Ni     tau(  12) = (   0.7496978   0.5336600   0.2834396  )
        13        P      tau(  13) = (   0.2147792   0.9686896   0.4382665  )
        14        P      tau(  14) = (   0.4607377   0.6441916   0.1265334  )
        15        P      tau(  15) = (   0.2883218   0.0913464   0.1265752  )
        16        P      tau(  16) = (   0.0408981   0.4221836   0.4354960  )
        17        O      tau(  17) = (   0.1380864   0.9007819   0.3023220  )
        18        O      tau(  18) = (   0.3817439   0.7113683   0.2624610  )
        19        O      tau(  19) = (   0.3638364   0.1608547   0.2624417  )
        20        O      tau(  20) = (   0.1207568   0.3545755   0.3021219  )
        21        O      tau(  21) = (   0.1552194   0.8797563   0.5625160  )
        22        O      tau(  22) = (   0.4022820   0.7317969   0.0010585  )
        23        O      tau(  23) = (   0.3454844   0.1823965   0.0026336  )
        24        O      tau(  24) = (   0.1017019   0.3344979   0.5594858  )
        25        O      tau(  25) = (   0.0970074   0.5770714   0.4346455  )
        26        O      tau(  26) = (   0.3534166   1.0203677   0.1270707  )
        27        O      tau(  27) = (   0.3778024   0.4172402   0.4261028  )
        28        O      tau(  28) = (   0.1256171   0.0954063   0.1372153  )
        29        O      tau(  29) = (   0.1232168   0.6482422   0.1385172  )
        30        O      tau(  30) = (   0.4028533   0.4897833   0.1289718  )
        31        O      tau(  31) = (   0.1511050   0.0405554   0.4369979  )
        32        O      tau(  32) = (   0.3776556   0.9624293   0.4288159  )
        33        P      tau(  33) = (   0.7084770   0.9682119   0.4394551  )
        34        P      tau(  34) = (   0.9603154   0.6409658   0.1292469  )
        35        P      tau(  35) = (   0.7875734   0.0899770   0.1274098  )
        36        P      tau(  36) = (   0.5405152   0.4272620   0.4364455  )
        37        O      tau(  37) = (   0.6323583   0.8977630   0.3036670  )
        38        O      tau(  38) = (   0.8809646   0.7091921   0.2627111  )
        39        O      tau(  39) = (   0.8631054   0.1587239   0.2636487  )
        40        O      tau(  40) = (   0.6202581   0.3578380   0.3034239  )
        41        O      tau(  41) = (   0.6499160   0.8772596   0.5630912  )
        42        O      tau(  42) = (   0.8990171   0.7283464   0.0054426  )
        43        O      tau(  43) = (   0.8448361   0.1806154   0.0030658  )
        44        O      tau(  44) = (   0.6023096   0.3392612   0.5600469  )
        45        O      tau(  45) = (   0.5960222   0.5826131   0.4346340  )
        46        O      tau(  46) = (   0.8515023   1.0184215   0.1281632  )
        47        O      tau(  47) = (   0.8779640   0.4148900   0.4260983  )
        48        O      tau(  48) = (   0.6251159   0.0957170   0.1376895  )
        49        O      tau(  49) = (   0.6237654   0.6481585   0.1378370  )
        50        O      tau(  50) = (   0.9038046   0.4863338   0.1307354  )
        51        O      tau(  51) = (   0.6458737   0.0402574   0.4377979  )
        52        O      tau(  52) = (   0.8712434   0.9635255   0.4285638  )
        53        Ni     tau(  53) = (   0.2420320   0.8169913   0.7491577  )
        54        Ni     tau(  54) = (   0.4893084   0.7542727   1.0713530  )
        55        Mn     tau(  55) = (   0.0085152   0.2729728   0.7435093  )
        56        Ni     tau(  56) = (   0.2558246   0.2079345   1.0692209  )
        57        Ni     tau(  57) = (   0.9991959   1.0516583   0.9110204  )
        58        Ni     tau(  58) = (   0.2490231   0.5149840   0.9098064  )
        59        Ni     tau(  59) = (   0.7373131   0.8159965   0.7500205  )
        60        Mn     tau(  60) = (   0.9859093   0.7511625   1.0766756  )
        61        Mn     tau(  61) = (   0.5085552   0.2755447   0.7433473  )
        62        Ni     tau(  62) = (   0.7532989   0.2074622   1.0697379  )
        63        Ni     tau(  63) = (   0.4981517   1.0523018   0.9097191  )
        64        Ni     tau(  64) = (   0.7469109   0.5147379   0.9108977  )
        65        P      tau(  65) = (   0.2119924   0.9497675   1.0657246  )
        66        P      tau(  66) = (   0.4579509   0.6252695   0.7539915  )
        67        P      tau(  67) = (   0.2855349   0.0724244   0.7540333  )
        68        P      tau(  68) = (   0.0381112   0.4032615   1.0629541  )
        69        O      tau(  69) = (   0.1352995   0.8818598   0.9297801  )
        70        O      tau(  70) = (   0.3789570   0.6924463   0.8899191  )
        71        O      tau(  71) = (   0.3610496   0.1419327   0.8898998  )
        72        O      tau(  72) = (   0.1179700   0.3356534   0.9295800  )
        73        O      tau(  73) = (   0.1524325   0.8608343   1.1899741  )
        74        O      tau(  74) = (   0.3994952   0.7128748   0.6285166  )
        75        O      tau(  75) = (   0.3426976   0.1634744   0.6300917  )
        76        O      tau(  76) = (   0.0989151   0.3155758   1.1869439  )
        77        O      tau(  77) = (   0.0942206   0.5581494   1.0621036  )
        78        O      tau(  78) = (   0.3506297   1.0014456   0.7545288  )
        79        O      tau(  79) = (   0.3750155   0.3983181   1.0535609  )
        80        O      tau(  80) = (   0.1228303   0.0764842   0.7646734  )
        81        O      tau(  81) = (   0.1204299   0.6293201   0.7659753  )
        82        O      tau(  82) = (   0.4000664   0.4708612   0.7564299  )
        83        O      tau(  83) = (   0.1483182   0.0216333   1.0644560  )
        84        O      tau(  84) = (   0.3748687   0.9435072   1.0562740  )
        85        P      tau(  85) = (   0.7056901   0.9492898   1.0669132  )
        86        P      tau(  86) = (   0.9575286   0.6220438   0.7567050  )
        87        P      tau(  87) = (   0.7847866   0.0710549   0.7548679  )
        88        P      tau(  88) = (   0.5377283   0.4083400   1.0639036  )
        89        O      tau(  89) = (   0.6295714   0.8788409   0.9311251  )
        90        O      tau(  90) = (   0.8781778   0.6902700   0.8901692  )
        91        O      tau(  91) = (   0.8603186   0.1398018   0.8911068  )
        92        O      tau(  92) = (   0.6174712   0.3389159   0.9308820  )
        93        O      tau(  93) = (   0.6471291   0.8583376   1.1905493  )
        94        O      tau(  94) = (   0.8962302   0.7094244   0.6329007  )
        95        O      tau(  95) = (   0.8420493   0.1616933   0.6305239  )
        96        O      tau(  96) = (   0.5995227   0.3203391   1.1875050  )
        97        O      tau(  97) = (   0.5932354   0.5636910   1.0620921  )
        98        O      tau(  98) = (   0.8487155   0.9994995   0.7556213  )
        99        O      tau(  99) = (   0.8751772   0.3959680   1.0535564  )
       100        O      tau( 100) = (   0.6223291   0.0767949   0.7651476  )
       101        O      tau( 101) = (   0.6209785   0.6292365   0.7652951  )
       102        O      tau( 102) = (   0.9010178   0.4674118   0.7581935  )
       103        O      tau( 103) = (   0.6430869   0.0213354   1.0652560  )
       104        O      tau( 104) = (   0.8684566   0.9446034   1.0560219  )
       105        Ni     tau( 105) = (   0.2384978   0.7977595   1.3788694  )
       106        Ni     tau( 106) = (   0.4977364   0.7374783   1.6806186  )
       107        Mn     tau( 107) = (   0.0074064   0.2578144   1.3744489  )
       108        Ni     tau( 108) = (   0.2437957   0.1954136   1.6827143  )
       109        Ni     tau( 109) = (   1.0006497   1.0326434   1.5404833  )
       110        Ni     tau( 110) = (   0.2439992   0.4967508   1.5401191  )
       111        Ni     tau( 111) = (   0.7374428   0.7984296   1.3777262  )
       112        Mn     tau( 112) = (   0.9966803   0.7366577   1.7115429  )
       113        Mn     tau( 113) = (   0.5076556   0.2589984   1.3732312  )
       114        Ni     tau( 114) = (   0.7423887   0.1965493   1.6832389  )
       115        Ni     tau( 115) = (   0.4997824   1.0361881   1.5381360  )
       116        Ni     tau( 116) = (   0.7435623   0.4992904   1.5465492  )
       117        P      tau( 117) = (   0.2144549   0.9278899   1.6995636  )
       118        P      tau( 118) = (   0.4551955   0.6050722   1.3802014  )
       119        P      tau( 119) = (   0.2849604   0.0539795   1.3804579  )
       120        P      tau( 120) = (   0.0337229   0.3834112   1.7005366  )
       121        O      tau( 121) = (   0.1305203   0.8570033   1.5637456  )
       122        O      tau( 122) = (   0.3757482   0.6729749   1.5155776  )
       123        O      tau( 123) = (   0.3613724   0.1249247   1.5151439  )
       124        O      tau( 124) = (   0.1129169   0.3224918   1.5571838  )
       125        O      tau( 125) = (   0.1580226   0.8374540   1.8209462  )
       126        O      tau( 126) = (   0.3964371   0.6927973   1.2548158  )
       127        O      tau( 127) = (   0.3425460   0.1434071   1.2554580  )
       128        O      tau( 128) = (   0.0951476   0.2873483   1.8142913  )
       129        O      tau( 129) = (   0.0915744   0.5399361   1.6925782  )
       130        O      tau( 130) = (   0.3476648   0.9823179   1.3836286  )
       131        O      tau( 131) = (   0.3686904   0.3789818   1.6819772  )
       132        O      tau( 132) = (   0.1222508   0.0604368   1.3930584  )
       133        O      tau( 133) = (   0.1179118   0.6106013   1.3948723  )
       134        O      tau( 134) = (   0.3966368   0.4509867   1.3826334  )
       135        O      tau( 135) = (   0.1546825   0.0015702   1.6934648  )
       136        O      tau( 136) = (   0.3773232   0.9216783   1.6812421  )
       137        P      tau( 137) = (   0.7088550   0.9300633   1.6956615  )
       138        P      tau( 138) = (   0.9546391   0.6039920   1.3882016  )
       139        P      tau( 139) = (   0.7861313   0.0539690   1.3808971  )
       140        P      tau( 140) = (   0.5320716   0.3863344   1.7004805  )
       141        O      tau( 141) = (   0.6333026   0.8679629   1.5520824  )
       142        O      tau( 142) = (   0.8777710   0.6729500   1.5224461  )
       143        O      tau( 143) = (   0.8617708   0.1227652   1.5169485  )
       144        O      tau( 144) = (   0.6127642   0.3270143   1.5579163  )
       145        O      tau( 145) = (   0.6483538   0.8329242   1.8103769  )
       146        O      tau( 146) = (   0.8943529   0.6911253   1.2630188  )
       147        O      tau( 147) = (   0.8429851   0.1446062   1.2562262  )
       148        O      tau( 148) = (   0.5929067   0.2897237   1.8141651  )
       149        O      tau( 149) = (   0.5848154   0.5442225   1.6989682  )
       150        O      tau( 150) = (   0.8496775   0.9825043   1.3815819  )
       151        O      tau( 151) = (   0.8705103   0.3772225   1.6832178  )
       152        O      tau( 152) = (   0.6234977   0.0619490   1.3925952  )
       153        O      tau( 153) = (   0.6178427   0.6111075   1.3950142  )
       154        O      tau( 154) = (   0.8977226   0.4494998   1.3884974  )
       155        O      tau( 155) = (   0.6505054   0.0039779   1.6957510  )
       156        O      tau( 156) = (   0.8731762   0.9239488   1.6850968  )
       157        O      tau( 157) = (   0.8871652   0.6670336   1.8454411  )
       158        H      tau( 158) = (   0.7940650   0.7158124   1.8540099  )

     -------------------------------------------------
     Parameters for Dispersion (Grimme-D2) Correction:
     -------------------------------------------------
       atom      VdW radius       C_6     

        Ni         2.952        374.666
        Mn         2.952        374.666
        P          3.222        271.980
        O          2.536         24.284
        H          1.892          4.857

     number of k points=     1  Gaussian smearing, width (Ry)=  0.0100
                       cart. coord. in units 2pi/alat
        k(    1) = (   0.0000000   0.0000000   0.0000000), wk =   1.0000000

     Dense  grid:  1979026 G-vectors     FFT dimensions: ( 128, 144, 450)

     Smooth grid:   500628 G-vectors     FFT dimensions: (  81,  90, 288)

     Estimated max dynamical RAM per process >     333.40 MB

     Estimated total dynamical RAM >      20.84 GB

     Check: negative core charge=   -0.000002
     Generating pointlists ...
     new r_m :   0.0878 (alat units)  1.5669 (a.u.) for type    1
     new r_m :   0.0769 (alat units)  1.3732 (a.u.) for type    2
     new r_m :   0.0664 (alat units)  1.1861 (a.u.) for type    3
     new r_m :   0.0435 (alat units)  0.7766 (a.u.) for type    4
     new r_m :   0.0435 (alat units)  0.7766 (a.u.) for type    5

     Initial potential from superposition of free atoms

     starting charge    1107.8886, renormalised to    1108.0000

     negative rho (up, down):  1.551E-03 4.664E-04
 
     Adding external electric field

     Computed dipole along edir(3) : 
        Dipole                1.6122 Ry au,          4.0977 Debye
        Dipole field          0.0010 Ry au, 
 
        Potential amp.       -0.1057 Ry
        Total length         54.7057 bohr
 
 
     Adding external electric field

     Computed dipole along edir(3) : 
        Dipole                1.6122 Ry au,          4.0977 Debye
        Dipole field          0.0010 Ry au, 
 
        Potential amp.       -0.1057 Ry
        Total length         54.7057 bohr
 
     Starting wfcs are  818 randomized atomic wfcs

     total cpu time spent up to now is       14.6 secs

     Self-consistent Calculation

     iteration #  1     ecut=    50.00 Ry     beta= 0.10
     Davidson diagonalization with overlap
     ethr =  1.00E-02,  avg # of iterations =  5.5

     negative rho (up, down):  4.317E-01 9.181E-07
 
     Adding external electric field

     Computed dipole along edir(3) : 
        Dipole               -3.6942 Ry au,         -9.3897 Debye
        Dipole field         -0.0022 Ry au, 
 
        Potential amp.        0.2423 Ry
        Total length         54.7057 bohr
 
 
     Adding external electric field

     Computed dipole along edir(3) : 
        Dipole               -3.6942 Ry au,         -9.3897 Debye
        Dipole field         -0.0022 Ry au, 
 
        Potential amp.        0.2423 Ry
        Total length         54.7057 bohr
 

     total cpu time spent up to now is       54.1 secs

     total energy              =   -7858.32390578 Ry
     estimated scf accuracy    <     744.72337061 Ry

     total magnetization       =   222.00 Bohr mag/cell
     absolute magnetization    =   318.93 Bohr mag/cell

     iteration #  2     ecut=    50.00 Ry     beta= 0.10
     Davidson diagonalization with overlap
     ethr =  1.00E-02,  avg # of iterations =  2.0

     negative rho (up, down):  4.049E-01 7.769E-07
 
     Adding external electric field

     Computed dipole along edir(3) : 
        Dipole               -2.5640 Ry au,         -6.5171 Debye
        Dipole field         -0.0015 Ry au, 
 
        Potential amp.        0.1682 Ry
        Total length         54.7057 bohr
 
 
     Adding external electric field

     Computed dipole along edir(3) : 
        Dipole               -2.5640 Ry au,         -6.5171 Debye
        Dipole field         -0.0015 Ry au, 
 
        Potential amp.        0.1682 Ry
        Total length         54.7057 bohr
 

     total cpu time spent up to now is       77.9 secs

     total energy              =   -7939.87170333 Ry
     estimated scf accuracy    <     196.33254691 Ry

     total magnetization       =   165.39 Bohr mag/cell
     absolute magnetization    =   212.47 Bohr mag/cell

     iteration #  3     ecut=    50.00 Ry     beta= 0.10
     Davidson diagonalization with overlap
     ethr =  1.00E-02,  avg # of iterations =  1.5

     negative rho (up, down):  3.610E-01 9.630E-07
 
     Adding external electric field

     Computed dipole along edir(3) : 
        Dipole               -2.2026 Ry au,         -5.5984 Debye
        Dipole field         -0.0013 Ry au, 
 
        Potential amp.        0.1445 Ry
        Total length         54.7057 bohr
 
 
     Adding external electric field

     Computed dipole along edir(3) : 
        Dipole               -2.2026 Ry au,         -5.5984 Debye
        Dipole field         -0.0013 Ry au, 
 
        Potential amp.        0.1445 Ry
        Total length         54.7057 bohr
 

     total cpu time spent up to now is       96.8 secs

     total energy              =   -7969.63676059 Ry
     estimated scf accuracy    <     104.69740161 Ry

     total magnetization       =   142.54 Bohr mag/cell
     absolute magnetization    =   191.84 Bohr mag/cell

     iteration #  4     ecut=    50.00 Ry     beta= 0.10
     Davidson diagonalization with overlap
     ethr =  9.45E-03,  avg # of iterations =  1.0

     negative rho (up, down):  2.879E-01 3.659E-07
 
     Adding external electric field

     Computed dipole along edir(3) : 
        Dipole               -2.0657 Ry au,         -5.2504 Debye
        Dipole field         -0.0012 Ry au, 
 
        Potential amp.        0.1355 Ry
        Total length         54.7057 bohr
 
 
     Adding external electric field

     Computed dipole along edir(3) : 
        Dipole               -2.0657 Ry au,         -5.2504 Debye
        Dipole field         -0.0012 Ry au, 
 
        Potential amp.        0.1355 Ry
        Total length         54.7057 bohr
 

     total cpu time spent up to now is      114.7 secs

     total energy              =   -8001.20348160 Ry
     estimated scf accuracy    <      84.40716578 Ry

     total magnetization       =   127.43 Bohr mag/cell
     absolute magnetization    =   178.06 Bohr mag/cell

     iteration #  5     ecut=    50.00 Ry     beta= 0.10
     Davidson diagonalization with overlap
     ethr =  7.62E-03,  avg # of iterations =  1.0

     negative rho (up, down):  4.718E-02 3.023E-08
 
     Adding external electric field

     Computed dipole along edir(3) : 
        Dipole               -1.6109 Ry au,         -4.0945 Debye
        Dipole field         -0.0010 Ry au, 
 
        Potential amp.        0.1057 Ry
        Total length         54.7057 bohr
 
 
     Adding external electric field

     Computed dipole along edir(3) : 
        Dipole               -1.6109 Ry au,         -4.0945 Debye
        Dipole field         -0.0010 Ry au, 
 
        Potential amp.        0.1057 Ry
        Total length         54.7057 bohr
 

     total cpu time spent up to now is      133.3 secs

     total energy              =   -8061.40191866 Ry
     estimated scf accuracy    <      68.43116014 Ry

     total magnetization       =   106.35 Bohr mag/cell
     absolute magnetization    =   160.14 Bohr mag/cell

     iteration #  6     ecut=    50.00 Ry     beta= 0.10
     Davidson diagonalization with overlap
     ethr =  6.18E-03,  avg # of iterations =  1.0

     negative rho (up, down):  5.838E-04 1.115E-03
 
     Adding external electric field

     Computed dipole along edir(3) : 
        Dipole               -1.2404 Ry au,         -3.1528 Debye
        Dipole field         -0.0007 Ry au, 
 
        Potential amp.        0.0814 Ry
        Total length         54.7057 bohr
 
 
     Adding external electric field

     Computed dipole along edir(3) : 
        Dipole               -1.2404 Ry au,         -3.1528 Debye
        Dipole field         -0.0007 Ry au, 
 
        Potential amp.        0.0814 Ry
        Total length         54.7057 bohr
 

     total cpu time spent up to now is      152.9 secs

     total energy              =   -8076.00918333 Ry
     estimated scf accuracy    <      16.56972419 Ry

     total magnetization       =   100.00 Bohr mag/cell
     absolute magnetization    =   133.59 Bohr mag/cell

     iteration #  7     ecut=    50.00 Ry     beta= 0.10
     Davidson diagonalization with overlap
     ethr =  1.50E-03,  avg # of iterations =  6.5

     negative rho (up, down):  5.638E-04 1.074E-03
 
     Adding external electric field

     Computed dipole along edir(3) : 
        Dipole               -1.2352 Ry au,         -3.1396 Debye
        Dipole field         -0.0007 Ry au, 
 
        Potential amp.        0.0810 Ry
        Total length         54.7057 bohr
 
 
     Adding external electric field

     Computed dipole along edir(3) : 
        Dipole               -1.2352 Ry au,         -3.1396 Debye
        Dipole field         -0.0007 Ry au, 
 
        Potential amp.        0.0810 Ry
        Total length         54.7057 bohr
 

     total cpu time spent up to now is      185.9 secs

     total energy              =   -8078.95242292 Ry
     estimated scf accuracy    <      32.96951239 Ry

     total magnetization       =    65.51 Bohr mag/cell
     absolute magnetization    =    83.73 Bohr mag/cell

     iteration #  8     ecut=    50.00 Ry     beta= 0.10
     Davidson diagonalization with overlap
     ethr =  1.50E-03,  avg # of iterations =  1.0

     negative rho (up, down):  5.839E-04 1.129E-03
 
     Adding external electric field

     Computed dipole along edir(3) : 
        Dipole               -1.2345 Ry au,         -3.1378 Debye
        Dipole field         -0.0007 Ry au, 
 
        Potential amp.        0.0810 Ry
        Total length         54.7057 bohr
 
 
     Adding external electric field

     Computed dipole along edir(3) : 
        Dipole               -1.2345 Ry au,         -3.1378 Debye
        Dipole field         -0.0007 Ry au, 
 
        Potential amp.        0.0810 Ry
        Total length         54.7057 bohr
 

     total cpu time spent up to now is      203.3 secs

     total energy              =   -8079.10955064 Ry
     estimated scf accuracy    <      31.92613807 Ry

     total magnetization       =    65.96 Bohr mag/cell
     absolute magnetization    =    83.68 Bohr mag/cell

     iteration #  9     ecut=    50.00 Ry     beta= 0.10
     Davidson diagonalization with overlap
     ethr =  1.50E-03,  avg # of iterations =  1.0

     negative rho (up, down):  4.708E-04 9.724E-04
 
     Adding external electric field

     Computed dipole along edir(3) : 
        Dipole               -1.2266 Ry au,         -3.1177 Debye
        Dipole field         -0.0007 Ry au, 
 
        Potential amp.        0.0804 Ry
        Total length         54.7057 bohr
 
 
     Adding external electric field

     Computed dipole along edir(3) : 
        Dipole               -1.2266 Ry au,         -3.1177 Debye
        Dipole field         -0.0007 Ry au, 
 
        Potential amp.        0.0804 Ry
        Total length         54.7057 bohr
 

     total cpu time spent up to now is      220.9 secs

     total energy              =   -8078.86628518 Ry
     estimated scf accuracy    <      34.08773654 Ry

     total magnetization       =    65.03 Bohr mag/cell
     absolute magnetization    =    82.58 Bohr mag/cell

     iteration # 10     ecut=    50.00 Ry     beta= 0.10
     Davidson diagonalization with overlap
     ethr =  1.50E-03,  avg # of iterations =  1.0

     negative rho (up, down):  3.945E-04 8.704E-04
 
     Adding external electric field

     Computed dipole along edir(3) : 
        Dipole               -1.2416 Ry au,         -3.1559 Debye
        Dipole field         -0.0007 Ry au, 
 
        Potential amp.        0.0814 Ry
        Total length         54.7057 bohr
 
 
     Adding external electric field

     Computed dipole along edir(3) : 
        Dipole               -1.2416 Ry au,         -3.1559 Debye
        Dipole field         -0.0007 Ry au, 
 
        Potential amp.        0.0814 Ry
        Total length         54.7057 bohr
 

     total cpu time spent up to now is      238.3 secs

     total energy              =   -8078.66376257 Ry
     estimated scf accuracy    <      28.40000575 Ry

     total magnetization       =    66.85 Bohr mag/cell
     absolute magnetization    =    83.34 Bohr mag/cell

     iteration # 11     ecut=    50.00 Ry     beta= 0.10
     Davidson diagonalization with overlap
     ethr =  1.50E-03,  avg # of iterations =  1.0

     negative rho (up, down):  3.391E-04 7.595E-04
 
     Adding external electric field

     Computed dipole along edir(3) : 
        Dipole               -1.2538 Ry au,         -3.1868 Debye
        Dipole field         -0.0008 Ry au, 
 
        Potential amp.        0.0822 Ry
        Total length         54.7057 bohr
 
 
     Adding external electric field

     Computed dipole along edir(3) : 
        Dipole               -1.2538 Ry au,         -3.1868 Debye
        Dipole field         -0.0008 Ry au, 
 
        Potential amp.        0.0822 Ry
        Total length         54.7057 bohr
 

     total cpu time spent up to now is      255.8 secs

     total energy              =   -8078.50700028 Ry
     estimated scf accuracy    <      22.96058392 Ry

     total magnetization       =    68.96 Bohr mag/cell
     absolute magnetization    =    84.32 Bohr mag/cell

     iteration # 12     ecut=    50.00 Ry     beta= 0.10
     Davidson diagonalization with overlap
     ethr =  1.50E-03,  avg # of iterations =  1.0

     negative rho (up, down):  2.921E-04 7.642E-04
 
     Adding external electric field

     Computed dipole along edir(3) : 
        Dipole               -1.2127 Ry au,         -3.0823 Debye
        Dipole field         -0.0007 Ry au, 
 
        Potential amp.        0.0795 Ry
        Total length         54.7057 bohr
 
 
     Adding external electric field

     Computed dipole along edir(3) : 
        Dipole               -1.2127 Ry au,         -3.0823 Debye
        Dipole field         -0.0007 Ry au, 
 
        Potential amp.        0.0795 Ry
        Total length         54.7057 bohr
 

     total cpu time spent up to now is      272.9 secs

     total energy              =   -8078.47298456 Ry
     estimated scf accuracy    <      17.77278970 Ry

     total magnetization       =    72.52 Bohr mag/cell
     absolute magnetization    =    86.78 Bohr mag/cell

     iteration # 13     ecut=    50.00 Ry     beta= 0.10
     Davidson diagonalization with overlap
     ethr =  1.50E-03,  avg # of iterations =  1.0

     negative rho (up, down):  2.339E-04 1.021E-03
 
     Adding external electric field

     Computed dipole along edir(3) : 
        Dipole               -1.1619 Ry au,         -2.9532 Debye
        Dipole field         -0.0007 Ry au, 
 
        Potential amp.        0.0762 Ry
        Total length         54.7057 bohr
 
 
     Adding external electric field

     Computed dipole along edir(3) : 
        Dipole               -1.1619 Ry au,         -2.9532 Debye
        Dipole field         -0.0007 Ry au, 
 
        Potential amp.        0.0762 Ry
        Total length         54.7057 bohr
 

     total cpu time spent up to now is      290.4 secs

     total energy              =   -8078.46183510 Ry
     estimated scf accuracy    <      17.33981817 Ry

     total magnetization       =    71.70 Bohr mag/cell
     absolute magnetization    =    85.79 Bohr mag/cell

     iteration # 14     ecut=    50.00 Ry     beta= 0.10
     Davidson diagonalization with overlap
     ethr =  1.50E-03,  avg # of iterations =  1.0

     negative rho (up, down):  2.766E-04 6.170E-04
 
     Adding external electric field

     Computed dipole along edir(3) : 
        Dipole               -1.1443 Ry au,         -2.9085 Debye
        Dipole field         -0.0007 Ry au, 
 
        Potential amp.        0.0751 Ry
        Total length         54.7057 bohr
 
 
     Adding external electric field

     Computed dipole along edir(3) : 
        Dipole               -1.1443 Ry au,         -2.9085 Debye
        Dipole field         -0.0007 Ry au, 
 
        Potential amp.        0.0751 Ry
        Total length         54.7057 bohr
 

     total cpu time spent up to now is      307.6 secs

     total energy              =   -8077.67797576 Ry
     estimated scf accuracy    <      18.79783257 Ry

     total magnetization       =    69.84 Bohr mag/cell
     absolute magnetization    =    83.71 Bohr mag/cell

     iteration # 15     ecut=    50.00 Ry     beta= 0.10
     Davidson diagonalization with overlap
     ethr =  1.50E-03,  avg # of iterations =  1.0

     negative rho (up, down):  1.659E-04 2.986E-04
 
     Adding external electric field

     Computed dipole along edir(3) : 
        Dipole               -1.2505 Ry au,         -3.1785 Debye
        Dipole field         -0.0007 Ry au, 
 
        Potential amp.        0.0820 Ry
        Total length         54.7057 bohr
 
 
     Adding external electric field

     Computed dipole along edir(3) : 
        Dipole               -1.2505 Ry au,         -3.1785 Debye
        Dipole field         -0.0007 Ry au, 
 
        Potential amp.        0.0820 Ry
        Total length         54.7057 bohr
 

     total cpu time spent up to now is      325.8 secs

     total energy              =   -8078.16848468 Ry
     estimated scf accuracy    <       5.97768319 Ry

     total magnetization       =    89.40 Bohr mag/cell
     absolute magnetization    =    99.54 Bohr mag/cell

     iteration # 16     ecut=    50.00 Ry     beta= 0.10
     Davidson diagonalization with overlap
     ethr =  5.40E-04,  avg # of iterations =  1.5

     negative rho (up, down):  1.184E-04 2.439E-04
 
     Adding external electric field

     Computed dipole along edir(3) : 
        Dipole               -1.2298 Ry au,         -3.1259 Debye
        Dipole field         -0.0007 Ry au, 
 
        Potential amp.        0.0807 Ry
        Total length         54.7057 bohr
 
 
     Adding external electric field

     Computed dipole along edir(3) : 
        Dipole               -1.2298 Ry au,         -3.1259 Debye
        Dipole field         -0.0007 Ry au, 
 
        Potential amp.        0.0807 Ry
        Total length         54.7057 bohr
 

     total cpu time spent up to now is      343.8 secs

     total energy              =   -8078.31202327 Ry
     estimated scf accuracy    <       0.93389287 Ry

     total magnetization       =    97.39 Bohr mag/cell
     absolute magnetization    =   105.71 Bohr mag/cell

     iteration # 17     ecut=    50.00 Ry     beta= 0.10
     Davidson diagonalization with overlap
     ethr =  8.43E-05,  avg # of iterations = 10.5

     negative rho (up, down):  1.979E-05 1.006E-04
 
     Adding external electric field

     Computed dipole along edir(3) : 
        Dipole               -1.1148 Ry au,         -2.8335 Debye
        Dipole field         -0.0007 Ry au, 
 
        Potential amp.        0.0731 Ry
        Total length         54.7057 bohr
 
 
     Adding external electric field

     Computed dipole along edir(3) : 
        Dipole               -1.1148 Ry au,         -2.8335 Debye
        Dipole field         -0.0007 Ry au, 
 
        Potential amp.        0.0731 Ry
        Total length         54.7057 bohr
 

     total cpu time spent up to now is      373.1 secs

     total energy              =   -8078.34578621 Ry
     estimated scf accuracy    <       0.76294630 Ry

     total magnetization       =    97.20 Bohr mag/cell
     absolute magnetization    =   105.21 Bohr mag/cell

     iteration # 18     ecut=    50.00 Ry     beta= 0.10
     Davidson diagonalization with overlap
     ethr =  6.89E-05,  avg # of iterations =  2.0

     negative rho (up, down):  1.858E-05 9.887E-05
 
     Adding external electric field

     Computed dipole along edir(3) : 
        Dipole               -1.1175 Ry au,         -2.8403 Debye
        Dipole field         -0.0007 Ry au, 
 
        Potential amp.        0.0733 Ry
        Total length         54.7057 bohr
 
 
     Adding external electric field

     Computed dipole along edir(3) : 
        Dipole               -1.1175 Ry au,         -2.8403 Debye
        Dipole field         -0.0007 Ry au, 
 
        Potential amp.        0.0733 Ry
        Total length         54.7057 bohr
 

     total cpu time spent up to now is      393.5 secs

     total energy              =   -8078.43346423 Ry
     estimated scf accuracy    <       3.59123733 Ry

     total magnetization       =    89.86 Bohr mag/cell
     absolute magnetization    =    96.84 Bohr mag/cell

     iteration # 19     ecut=    50.00 Ry     beta= 0.10
     Davidson diagonalization with overlap
     ethr =  6.89E-05,  avg # of iterations =  1.0

     negative rho (up, down):  1.473E-05 9.106E-05
 
     Adding external electric field

     Computed dipole along edir(3) : 
        Dipole               -1.1118 Ry au,         -2.8258 Debye
        Dipole field         -0.0007 Ry au, 
 
        Potential amp.        0.0729 Ry
        Total length         54.7057 bohr
 
 
     Adding external electric field

     Computed dipole along edir(3) : 
        Dipole               -1.1118 Ry au,         -2.8258 Debye
        Dipole field         -0.0007 Ry au, 
 
        Potential amp.        0.0729 Ry
        Total length         54.7057 bohr
 

     total cpu time spent up to now is      411.6 secs

     total energy              =   -8078.42522259 Ry
     estimated scf accuracy    <       2.82812925 Ry

     total magnetization       =    90.59 Bohr mag/cell
     absolute magnetization    =    97.32 Bohr mag/cell

     iteration # 20     ecut=    50.00 Ry     beta= 0.10
     Davidson diagonalization with overlap
     ethr =  6.89E-05,  avg # of iterations =  1.0

     negative rho (up, down):  1.230E-05 6.112E-05
 
     Adding external electric field

     Computed dipole along edir(3) : 
        Dipole               -1.1075 Ry au,         -2.8149 Debye
        Dipole field         -0.0007 Ry au, 
 
        Potential amp.        0.0726 Ry
        Total length         54.7057 bohr
 
 
     Adding external electric field

     Computed dipole along edir(3) : 
        Dipole               -1.1075 Ry au,         -2.8149 Debye
        Dipole field         -0.0007 Ry au, 
 
        Potential amp.        0.0726 Ry
        Total length         54.7057 bohr
 

     total cpu time spent up to now is      428.8 secs

     total energy              =   -8078.45061165 Ry
     estimated scf accuracy    <       2.09411174 Ry

     total magnetization       =    90.86 Bohr mag/cell
     absolute magnetization    =    97.32 Bohr mag/cell

     iteration # 21     ecut=    50.00 Ry     beta= 0.10
     Davidson diagonalization with overlap
     ethr =  6.89E-05,  avg # of iterations =  1.0

     negative rho (up, down):  3.580E-06 8.063E-06
 
     Adding external electric field

     Computed dipole along edir(3) : 
        Dipole               -1.0741 Ry au,         -2.7301 Debye
        Dipole field         -0.0006 Ry au, 
 
        Potential amp.        0.0704 Ry
        Total length         54.7057 bohr
 
 
     Adding external electric field

     Computed dipole along edir(3) : 
        Dipole               -1.0741 Ry au,         -2.7301 Debye
        Dipole field         -0.0006 Ry au, 
 
        Potential amp.        0.0704 Ry
        Total length         54.7057 bohr
 

     total cpu time spent up to now is      446.7 secs

     total energy              =   -8078.49992833 Ry
     estimated scf accuracy    <       2.41773764 Ry

     total magnetization       =    90.82 Bohr mag/cell
     absolute magnetization    =    97.14 Bohr mag/cell

     iteration # 22     ecut=    50.00 Ry     beta= 0.10
     Davidson diagonalization with overlap
     ethr =  6.89E-05,  avg # of iterations =  1.5

     negative rho (up, down):  1.552E-06 2.350E-06
 
     Adding external electric field

     Computed dipole along edir(3) : 
        Dipole               -1.0403 Ry au,         -2.6442 Debye
        Dipole field         -0.0006 Ry au, 
 
        Potential amp.        0.0682 Ry
        Total length         54.7057 bohr
 
 
     Adding external electric field

     Computed dipole along edir(3) : 
        Dipole               -1.0403 Ry au,         -2.6442 Debye
        Dipole field         -0.0006 Ry au, 
 
        Potential amp.        0.0682 Ry
        Total length         54.7057 bohr
 

     total cpu time spent up to now is      465.3 secs

     total energy              =   -8078.55640102 Ry
     estimated scf accuracy    <       1.46829229 Ry

     total magnetization       =    92.11 Bohr mag/cell
     absolute magnetization    =    97.60 Bohr mag/cell

     iteration # 23     ecut=    50.00 Ry     beta= 0.10
     Davidson diagonalization with overlap
     ethr =  6.89E-05,  avg # of iterations =  1.0

     negative rho (up, down):  1.309E-04 4.981E-05
 
     Adding external electric field

     Computed dipole along edir(3) : 
        Dipole               -0.9717 Ry au,         -2.4697 Debye
        Dipole field         -0.0006 Ry au, 
 
        Potential amp.        0.0637 Ry
        Total length         54.7057 bohr
 
 
     Adding external electric field

     Computed dipole along edir(3) : 
        Dipole               -0.9717 Ry au,         -2.4697 Debye
        Dipole field         -0.0006 Ry au, 
 
        Potential amp.        0.0637 Ry
        Total length         54.7057 bohr
 

     total cpu time spent up to now is      482.6 secs

     total energy              =   -8078.59224912 Ry
     estimated scf accuracy    <       2.22916236 Ry

     total magnetization       =    91.33 Bohr mag/cell
     absolute magnetization    =    95.98 Bohr mag/cell

     iteration # 24     ecut=    50.00 Ry     beta= 0.10
     Davidson diagonalization with overlap
     ethr =  6.89E-05,  avg # of iterations =  1.5

     negative rho (up, down):  1.819E-04 8.449E-05
 
     Adding external electric field

     Computed dipole along edir(3) : 
        Dipole               -0.9723 Ry au,         -2.4712 Debye
        Dipole field         -0.0006 Ry au, 
 
        Potential amp.        0.0638 Ry
        Total length         54.7057 bohr
 
 
     Adding external electric field

     Computed dipole along edir(3) : 
        Dipole               -0.9723 Ry au,         -2.4712 Debye
        Dipole field         -0.0006 Ry au, 
 
        Potential amp.        0.0638 Ry
        Total length         54.7057 bohr
 

     total cpu time spent up to now is      500.4 secs

     total energy              =   -8078.59876086 Ry
     estimated scf accuracy    <       1.97316507 Ry

     total magnetization       =    92.35 Bohr mag/cell
     absolute magnetization    =    95.60 Bohr mag/cell

     iteration # 25     ecut=    50.00 Ry     beta= 0.10
     Davidson diagonalization with overlap
     ethr =  6.89E-05,  avg # of iterations =  1.0

     negative rho (up, down):  1.120E-03 8.046E-04
 
     Adding external electric field

     Computed dipole along edir(3) : 
        Dipole               -0.9390 Ry au,         -2.3866 Debye
        Dipole field         -0.0006 Ry au, 
 
        Potential amp.        0.0616 Ry
        Total length         54.7057 bohr
 
 
     Adding external electric field

     Computed dipole along edir(3) : 
        Dipole               -0.9390 Ry au,         -2.3866 Debye
        Dipole field         -0.0006 Ry au, 
 
        Potential amp.        0.0616 Ry
        Total length         54.7057 bohr
 

     total cpu time spent up to now is      517.3 secs

     total energy              =   -8078.57863391 Ry
     estimated scf accuracy    <       1.40347992 Ry

     total magnetization       =    92.93 Bohr mag/cell
     absolute magnetization    =    95.96 Bohr mag/cell

     iteration # 26     ecut=    50.00 Ry     beta= 0.10
     Davidson diagonalization with overlap
     ethr =  6.89E-05,  avg # of iterations =  1.0

     negative rho (up, down):  9.459E-04 8.484E-04
 
     Adding external electric field

     Computed dipole along edir(3) : 
        Dipole               -0.9309 Ry au,         -2.3661 Debye
        Dipole field         -0.0006 Ry au, 
 
        Potential amp.        0.0611 Ry
        Total length         54.7057 bohr
 
 
     Adding external electric field

     Computed dipole along edir(3) : 
        Dipole               -0.9309 Ry au,         -2.3661 Debye
        Dipole field         -0.0006 Ry au, 
 
        Potential amp.        0.0611 Ry
        Total length         54.7057 bohr
 

     total cpu time spent up to now is      533.6 secs

     total energy              =   -8078.60709676 Ry
     estimated scf accuracy    <       0.13416180 Ry

     total magnetization       =    95.63 Bohr mag/cell
     absolute magnetization    =    97.69 Bohr mag/cell

     iteration # 27     ecut=    50.00 Ry     beta= 0.10
     Davidson diagonalization with overlap
     ethr =  1.21E-05,  avg # of iterations = 12.5

     negative rho (up, down):  8.532E-04 8.505E-04
 
     Adding external electric field

     Computed dipole along edir(3) : 
        Dipole               -0.9082 Ry au,         -2.3085 Debye
        Dipole field         -0.0005 Ry au, 
 
        Potential amp.        0.0596 Ry
        Total length         54.7057 bohr
 
 
     Adding external electric field

     Computed dipole along edir(3) : 
        Dipole               -0.9082 Ry au,         -2.3085 Debye
        Dipole field         -0.0005 Ry au, 
 
        Potential amp.        0.0596 Ry
        Total length         54.7057 bohr
 

     total cpu time spent up to now is      569.0 secs

     total energy              =   -8078.60994292 Ry
     estimated scf accuracy    <       0.09011004 Ry

     total magnetization       =    95.76 Bohr mag/cell
     absolute magnetization    =    97.53 Bohr mag/cell

     iteration # 28     ecut=    50.00 Ry     beta= 0.10
     Davidson diagonalization with overlap
     c_bands:  2 eigenvalues not converged
     ethr =  8.13E-06,  avg # of iterations = 11.0

     negative rho (up, down):  8.679E-04 9.617E-04
 
     Adding external electric field

     Computed dipole along edir(3) : 
        Dipole               -0.8692 Ry au,         -2.2093 Debye
        Dipole field         -0.0005 Ry au, 
 
        Potential amp.        0.0570 Ry
        Total length         54.7057 bohr
 
 
     Adding external electric field

     Computed dipole along edir(3) : 
        Dipole               -0.8692 Ry au,         -2.2093 Debye
        Dipole field         -0.0005 Ry au, 
 
        Potential amp.        0.0570 Ry
        Total length         54.7057 bohr
 

     total cpu time spent up to now is      597.2 secs

     total energy              =   -8078.60874783 Ry
     estimated scf accuracy    <       0.07933728 Ry

     total magnetization       =    95.79 Bohr mag/cell
     absolute magnetization    =    97.35 Bohr mag/cell

     iteration # 29     ecut=    50.00 Ry     beta= 0.10
     Davidson diagonalization with overlap
     ethr =  7.16E-06,  avg # of iterations = 28.0

     negative rho (up, down):  1.058E-03 1.122E-03
 
     Adding external electric field

     Computed dipole along edir(3) : 
        Dipole               -0.8538 Ry au,         -2.1703 Debye
        Dipole field         -0.0005 Ry au, 
 
        Potential amp.        0.0560 Ry
        Total length         54.7057 bohr
 
 
     Adding external electric field

     Computed dipole along edir(3) : 
        Dipole               -0.8538 Ry au,         -2.1703 Debye
        Dipole field         -0.0005 Ry au, 
 
        Potential amp.        0.0560 Ry
        Total length         54.7057 bohr
 

     total cpu time spent up to now is      648.1 secs

     total energy              =   -8078.60936682 Ry
     estimated scf accuracy    <       0.07279243 Ry

     total magnetization       =    95.59 Bohr mag/cell
     absolute magnetization    =    96.92 Bohr mag/cell

     iteration # 30     ecut=    50.00 Ry     beta= 0.10
     Davidson diagonalization with overlap
     ethr =  6.57E-06,  avg # of iterations =  2.0

     negative rho (up, down):  9.065E-04 9.721E-04
 
     Adding external electric field

     Computed dipole along edir(3) : 
        Dipole               -0.8298 Ry au,         -2.1091 Debye
        Dipole field         -0.0005 Ry au, 
 
        Potential amp.        0.0544 Ry
        Total length         54.7057 bohr
 
 
     Adding external electric field

     Computed dipole along edir(3) : 
        Dipole               -0.8298 Ry au,         -2.1091 Debye
        Dipole field         -0.0005 Ry au, 
 
        Potential amp.        0.0544 Ry
        Total length         54.7057 bohr
 

     total cpu time spent up to now is      669.5 secs

     total energy              =   -8078.60922423 Ry
     estimated scf accuracy    <       0.07117610 Ry

     total magnetization       =    95.58 Bohr mag/cell
     absolute magnetization    =    96.85 Bohr mag/cell

     iteration # 31     ecut=    50.00 Ry     beta= 0.10
     Davidson diagonalization with overlap
     ethr =  6.42E-06,  avg # of iterations =  1.5

     negative rho (up, down):  8.597E-04 8.869E-04
 
     Adding external electric field

     Computed dipole along edir(3) : 
        Dipole               -0.8001 Ry au,         -2.0336 Debye
        Dipole field         -0.0005 Ry au, 
 
        Potential amp.        0.0525 Ry
        Total length         54.7057 bohr
 
 
     Adding external electric field

     Computed dipole along edir(3) : 
        Dipole               -0.8001 Ry au,         -2.0336 Debye
        Dipole field         -0.0005 Ry au, 
 
        Potential amp.        0.0525 Ry
        Total length         54.7057 bohr
 

     total cpu time spent up to now is      688.2 secs

     total energy              =   -8078.60892345 Ry
     estimated scf accuracy    <       0.07138623 Ry

     total magnetization       =    95.49 Bohr mag/cell
     absolute magnetization    =    96.75 Bohr mag/cell

     iteration # 32     ecut=    50.00 Ry     beta= 0.10
     Davidson diagonalization with overlap
     ethr =  6.42E-06,  avg # of iterations =  2.0

     negative rho (up, down):  4.969E-04 5.792E-04
 
     Adding external electric field

     Computed dipole along edir(3) : 
        Dipole               -0.7455 Ry au,         -1.8948 Debye
        Dipole field         -0.0004 Ry au, 
 
        Potential amp.        0.0489 Ry
        Total length         54.7057 bohr
 
 
     Adding external electric field

     Computed dipole along edir(3) : 
        Dipole               -0.7455 Ry au,         -1.8948 Debye
        Dipole field         -0.0004 Ry au, 
 
        Potential amp.        0.0489 Ry
        Total length         54.7057 bohr
 

     total cpu time spent up to now is      708.7 secs

     total energy              =   -8078.60853283 Ry
     estimated scf accuracy    <       0.07353031 Ry

     total magnetization       =    95.49 Bohr mag/cell
     absolute magnetization    =    96.75 Bohr mag/cell

     iteration # 33     ecut=    50.00 Ry     beta= 0.10
     Davidson diagonalization with overlap
     ethr =  6.42E-06,  avg # of iterations =  2.0

     negative rho (up, down):  2.940E-04 3.771E-04
 
     Adding external electric field

     Computed dipole along edir(3) : 
        Dipole               -0.8292 Ry au,         -2.1076 Debye
        Dipole field         -0.0005 Ry au, 
 
        Potential amp.        0.0544 Ry
        Total length         54.7057 bohr
 
 
     Adding external electric field

     Computed dipole along edir(3) : 
        Dipole               -0.8292 Ry au,         -2.1076 Debye
        Dipole field         -0.0005 Ry au, 
 
        Potential amp.        0.0544 Ry
        Total length         54.7057 bohr
 

     total cpu time spent up to now is      729.5 secs

     total energy              =   -8078.60917566 Ry
     estimated scf accuracy    <       0.06916698 Ry

     total magnetization       =    95.43 Bohr mag/cell
     absolute magnetization    =    96.77 Bohr mag/cell

     iteration # 34     ecut=    50.00 Ry     beta= 0.10
     Davidson diagonalization with overlap
     ethr =  6.24E-06,  avg # of iterations =  1.5

     negative rho (up, down):  3.964E-07 2.027E-06
 
     Adding external electric field

     Computed dipole along edir(3) : 
        Dipole               -0.7767 Ry au,         -1.9742 Debye
        Dipole field         -0.0005 Ry au, 
 
        Potential amp.        0.0509 Ry
        Total length         54.7057 bohr
 
 
     Adding external electric field

     Computed dipole along edir(3) : 
        Dipole               -0.7767 Ry au,         -1.9742 Debye
        Dipole field         -0.0005 Ry au, 
 
        Potential amp.        0.0509 Ry
        Total length         54.7057 bohr
 

     total cpu time spent up to now is      748.9 secs

     total energy              =   -8078.60839790 Ry
     estimated scf accuracy    <       0.05403906 Ry

     total magnetization       =    95.64 Bohr mag/cell
     absolute magnetization    =    96.97 Bohr mag/cell

     iteration # 35     ecut=    50.00 Ry     beta= 0.10
     Davidson diagonalization with overlap
     ethr =  4.88E-06,  avg # of iterations =  3.0

     negative rho (up, down):  1.001E-04 1.666E-04
 
     Adding external electric field

     Computed dipole along edir(3) : 
        Dipole               -0.7359 Ry au,         -1.8706 Debye
        Dipole field         -0.0004 Ry au, 
 
        Potential amp.        0.0483 Ry
        Total length         54.7057 bohr
 
 
     Adding external electric field

     Computed dipole along edir(3) : 
        Dipole               -0.7359 Ry au,         -1.8706 Debye
        Dipole field         -0.0004 Ry au, 
 
        Potential amp.        0.0483 Ry
        Total length         54.7057 bohr
 

     total cpu time spent up to now is      769.9 secs

     total energy              =   -8078.60765390 Ry
     estimated scf accuracy    <       0.05711668 Ry

     total magnetization       =    95.76 Bohr mag/cell
     absolute magnetization    =    97.12 Bohr mag/cell

     iteration # 36     ecut=    50.00 Ry     beta= 0.10
     Davidson diagonalization with overlap
     ethr =  4.88E-06,  avg # of iterations =  1.5

     negative rho (up, down):  3.312E-04 5.071E-04
 
     Adding external electric field

     Computed dipole along edir(3) : 
        Dipole               -0.7132 Ry au,         -1.8129 Debye
        Dipole field         -0.0004 Ry au, 
 
        Potential amp.        0.0468 Ry
        Total length         54.7057 bohr
 
 
     Adding external electric field

     Computed dipole along edir(3) : 
        Dipole               -0.7132 Ry au,         -1.8129 Debye
        Dipole field         -0.0004 Ry au, 
 
        Potential amp.        0.0468 Ry
        Total length         54.7057 bohr
 

     total cpu time spent up to now is      789.3 secs

     total energy              =   -8078.60663990 Ry
     estimated scf accuracy    <       0.05955435 Ry

     total magnetization       =    95.72 Bohr mag/cell
     absolute magnetization    =    97.09 Bohr mag/cell

     iteration # 37     ecut=    50.00 Ry     beta= 0.10
     Davidson diagonalization with overlap
     ethr =  4.88E-06,  avg # of iterations =  2.0

     negative rho (up, down):  3.612E-04 7.033E-04
 
     Adding external electric field

     Computed dipole along edir(3) : 
        Dipole               -0.7033 Ry au,         -1.7877 Debye
        Dipole field         -0.0004 Ry au, 
 
        Potential amp.        0.0461 Ry
        Total length         54.7057 bohr
 
 
     Adding external electric field

     Computed dipole along edir(3) : 
        Dipole               -0.7033 Ry au,         -1.7877 Debye
        Dipole field         -0.0004 Ry au, 
 
        Potential amp.        0.0461 Ry
        Total length         54.7057 bohr
 

     total cpu time spent up to now is      810.3 secs

     total energy              =   -8078.60482541 Ry
     estimated scf accuracy    <       0.05778386 Ry

     total magnetization       =    95.70 Bohr mag/cell
     absolute magnetization    =    97.07 Bohr mag/cell

     iteration # 38     ecut=    50.00 Ry     beta= 0.10
     Davidson diagonalization with overlap
     c_bands:  4 eigenvalues not converged
     ethr =  4.88E-06,  avg # of iterations = 10.5

     negative rho (up, down):  1.368E-04 5.430E-04
 
     Adding external electric field

     Computed dipole along edir(3) : 
        Dipole               -0.7351 Ry au,         -1.8684 Debye
        Dipole field         -0.0004 Ry au, 
 
        Potential amp.        0.0482 Ry
        Total length         54.7057 bohr
 
 
     Adding external electric field

     Computed dipole along edir(3) : 
        Dipole               -0.7351 Ry au,         -1.8684 Debye
        Dipole field         -0.0004 Ry au, 
 
        Potential amp.        0.0482 Ry
        Total length         54.7057 bohr
 

     total cpu time spent up to now is      837.1 secs

     total energy              =   -8078.60211979 Ry
     estimated scf accuracy    <       0.04822353 Ry

     total magnetization       =    95.68 Bohr mag/cell
     absolute magnetization    =    97.01 Bohr mag/cell

     iteration # 39     ecut=    50.00 Ry     beta= 0.10
     Davidson diagonalization with overlap
     ethr =  4.35E-06,  avg # of iterations =  2.5

     negative rho (up, down):  5.564E-04 9.761E-04
 
     Adding external electric field

     Computed dipole along edir(3) : 
        Dipole               -0.6724 Ry au,         -1.7089 Debye
        Dipole field         -0.0004 Ry au, 
 
        Potential amp.        0.0441 Ry
        Total length         54.7057 bohr
 
 
     Adding external electric field

     Computed dipole along edir(3) : 
        Dipole               -0.6724 Ry au,         -1.7089 Debye
        Dipole field         -0.0004 Ry au, 
 
        Potential amp.        0.0441 Ry
        Total length         54.7057 bohr
 

     total cpu time spent up to now is      858.6 secs

     total energy              =   -8078.60380330 Ry
     estimated scf accuracy    <       0.04450148 Ry

     total magnetization       =    95.63 Bohr mag/cell
     absolute magnetization    =    96.94 Bohr mag/cell

     iteration # 40     ecut=    50.00 Ry     beta= 0.10
     Davidson diagonalization with overlap
     ethr =  4.02E-06,  avg # of iterations =  2.0

     negative rho (up, down):  6.930E-04 1.141E-03
 
     Adding external electric field

     Computed dipole along edir(3) : 
        Dipole               -0.6802 Ry au,         -1.7290 Debye
        Dipole field         -0.0004 Ry au, 
 
        Potential amp.        0.0446 Ry
        Total length         54.7057 bohr
 
 
     Adding external electric field

     Computed dipole along edir(3) : 
        Dipole               -0.6802 Ry au,         -1.7290 Debye
        Dipole field         -0.0004 Ry au, 
 
        Potential amp.        0.0446 Ry
        Total length         54.7057 bohr
 

     total cpu time spent up to now is      878.7 secs

     total energy              =   -8078.60388031 Ry
     estimated scf accuracy    <       0.04290272 Ry

     total magnetization       =    95.78 Bohr mag/cell
     absolute magnetization    =    96.98 Bohr mag/cell

     iteration # 41     ecut=    50.00 Ry     beta= 0.10
     Davidson diagonalization with overlap
     ethr =  3.87E-06,  avg # of iterations =  1.5

     negative rho (up, down):  6.278E-04 9.846E-04
 
     Adding external electric field

     Computed dipole along edir(3) : 
        Dipole               -0.6533 Ry au,         -1.6605 Debye
        Dipole field         -0.0004 Ry au, 
 
        Potential amp.        0.0428 Ry
        Total length         54.7057 bohr
 
 
     Adding external electric field

     Computed dipole along edir(3) : 
        Dipole               -0.6533 Ry au,         -1.6605 Debye
        Dipole field         -0.0004 Ry au, 
 
        Potential amp.        0.0428 Ry
        Total length         54.7057 bohr
 

     total cpu time spent up to now is      897.9 secs

     total energy              =   -8078.60532903 Ry
     estimated scf accuracy    <       0.04242983 Ry

     total magnetization       =    95.77 Bohr mag/cell
     absolute magnetization    =    96.95 Bohr mag/cell

     iteration # 42     ecut=    50.00 Ry     beta= 0.10
     Davidson diagonalization with overlap
     ethr =  3.83E-06,  avg # of iterations =  1.5

     negative rho (up, down):  6.556E-04 1.005E-03
 
     Adding external electric field

     Computed dipole along edir(3) : 
        Dipole               -0.6473 Ry au,         -1.6453 Debye
        Dipole field         -0.0004 Ry au, 
 
        Potential amp.        0.0425 Ry
        Total length         54.7057 bohr
 
 
     Adding external electric field

     Computed dipole along edir(3) : 
        Dipole               -0.6473 Ry au,         -1.6453 Debye
        Dipole field         -0.0004 Ry au, 
 
        Potential amp.        0.0425 Ry
        Total length         54.7057 bohr
 

     total cpu time spent up to now is      917.6 secs

     total energy              =   -8078.60568850 Ry
     estimated scf accuracy    <       0.04070182 Ry

     total magnetization       =    95.79 Bohr mag/cell
     absolute magnetization    =    97.01 Bohr mag/cell

     iteration # 43     ecut=    50.00 Ry     beta= 0.10
     Davidson diagonalization with overlap
     ethr =  3.67E-06,  avg # of iterations =  1.5

     negative rho (up, down):  7.447E-04 1.033E-03
 
     Adding external electric field

     Computed dipole along edir(3) : 
        Dipole               -0.6576 Ry au,         -1.6714 Debye
        Dipole field         -0.0004 Ry au, 
 
        Potential amp.        0.0431 Ry
        Total length         54.7057 bohr
 
 
     Adding external electric field

     Computed dipole along edir(3) : 
        Dipole               -0.6576 Ry au,         -1.6714 Debye
        Dipole field         -0.0004 Ry au, 
 
        Potential amp.        0.0431 Ry
        Total length         54.7057 bohr
 

     total cpu time spent up to now is      937.2 secs

     total energy              =   -8078.60583545 Ry
     estimated scf accuracy    <       0.04195396 Ry

     total magnetization       =    95.77 Bohr mag/cell
     absolute magnetization    =    97.00 Bohr mag/cell

     iteration # 44     ecut=    50.00 Ry     beta= 0.10
     Davidson diagonalization with overlap
     ethr =  3.67E-06,  avg # of iterations =  1.5

     negative rho (up, down):  1.608E-03 1.905E-03
 
     Adding external electric field

     Computed dipole along edir(3) : 
        Dipole               -0.6444 Ry au,         -1.6379 Debye
        Dipole field         -0.0004 Ry au, 
 
        Potential amp.        0.0423 Ry
        Total length         54.7057 bohr
 
 
     Adding external electric field

     Computed dipole along edir(3) : 
        Dipole               -0.6444 Ry au,         -1.6379 Debye
        Dipole field         -0.0004 Ry au, 
 
        Potential amp.        0.0423 Ry
        Total length         54.7057 bohr
 

     total cpu time spent up to now is      956.0 secs

     total energy              =   -8078.60503857 Ry
     estimated scf accuracy    <       0.03888962 Ry

     total magnetization       =    95.83 Bohr mag/cell
     absolute magnetization    =    97.07 Bohr mag/cell

     iteration # 45     ecut=    50.00 Ry     beta= 0.10
     Davidson diagonalization with overlap
     ethr =  3.51E-06,  avg # of iterations =  2.0

     negative rho (up, down):  2.063E-03 2.525E-03
 
     Adding external electric field

     Computed dipole along edir(3) : 
        Dipole               -0.5710 Ry au,         -1.4514 Debye
        Dipole field         -0.0003 Ry au, 
 
        Potential amp.        0.0375 Ry
        Total length         54.7057 bohr
 
 
     Adding external electric field

     Computed dipole along edir(3) : 
        Dipole               -0.5710 Ry au,         -1.4514 Debye
        Dipole field         -0.0003 Ry au, 
 
        Potential amp.        0.0375 Ry
        Total length         54.7057 bohr
 

     total cpu time spent up to now is      977.0 secs

     total energy              =   -8078.60446955 Ry
     estimated scf accuracy    <       0.03291132 Ry

     total magnetization       =    95.77 Bohr mag/cell
     absolute magnetization    =    96.99 Bohr mag/cell

     iteration # 46     ecut=    50.00 Ry     beta= 0.10
     Davidson diagonalization with overlap
     ethr =  2.97E-06,  avg # of iterations =  2.0

     negative rho (up, down):  3.333E-03 4.108E-03
 
     Adding external electric field

     Computed dipole along edir(3) : 
        Dipole               -0.5231 Ry au,         -1.3296 Debye
        Dipole field         -0.0003 Ry au, 
 
        Potential amp.        0.0343 Ry
        Total length         54.7057 bohr
 
 
     Adding external electric field

     Computed dipole along edir(3) : 
        Dipole               -0.5231 Ry au,         -1.3296 Debye
        Dipole field         -0.0003 Ry au, 
 
        Potential amp.        0.0343 Ry
        Total length         54.7057 bohr
 

     total cpu time spent up to now is      997.7 secs

     total energy              =   -8078.60362584 Ry
     estimated scf accuracy    <       0.02796939 Ry

     total magnetization       =    95.75 Bohr mag/cell
     absolute magnetization    =    96.98 Bohr mag/cell

     iteration # 47     ecut=    50.00 Ry     beta= 0.10
     Davidson diagonalization with overlap
     ethr =  2.52E-06,  avg # of iterations =  2.0

     negative rho (up, down):  5.258E-03 6.390E-03
 
     Adding external electric field

     Computed dipole along edir(3) : 
        Dipole               -0.4703 Ry au,         -1.1953 Debye
        Dipole field         -0.0003 Ry au, 
 
        Potential amp.        0.0308 Ry
        Total length         54.7057 bohr
 
 
     Adding external electric field

     Computed dipole along edir(3) : 
        Dipole               -0.4703 Ry au,         -1.1953 Debye
        Dipole field         -0.0003 Ry au, 
 
        Potential amp.        0.0308 Ry
        Total length         54.7057 bohr
 

     total cpu time spent up to now is     1017.9 secs

     total energy              =   -8078.60332784 Ry
     estimated scf accuracy    <       0.02508954 Ry

     total magnetization       =    95.73 Bohr mag/cell
     absolute magnetization    =    96.98 Bohr mag/cell

     iteration # 48     ecut=    50.00 Ry     beta= 0.10
     Davidson diagonalization with overlap
     ethr =  2.26E-06,  avg # of iterations = 12.0

     negative rho (up, down):  6.088E-03 7.179E-03
 
     Adding external electric field

     Computed dipole along edir(3) : 
        Dipole               -0.4567 Ry au,         -1.1607 Debye
        Dipole field         -0.0003 Ry au, 
 
        Potential amp.        0.0300 Ry
        Total length         54.7057 bohr
 
 
     Adding external electric field

     Computed dipole along edir(3) : 
        Dipole               -0.4567 Ry au,         -1.1607 Debye
        Dipole field         -0.0003 Ry au, 
 
        Potential amp.        0.0300 Ry
        Total length         54.7057 bohr
 

     total cpu time spent up to now is     1056.1 secs

     total energy              =   -8078.60365671 Ry
     estimated scf accuracy    <       0.02240602 Ry

     total magnetization       =    95.78 Bohr mag/cell
     absolute magnetization    =    97.07 Bohr mag/cell

     iteration # 49     ecut=    50.00 Ry     beta= 0.10
     Davidson diagonalization with overlap
     ethr =  2.02E-06,  avg # of iterations =  2.0

     negative rho (up, down):  5.487E-03 6.815E-03
 
     Adding external electric field

     Computed dipole along edir(3) : 
        Dipole               -0.4391 Ry au,         -1.1161 Debye
        Dipole field         -0.0003 Ry au, 
 
        Potential amp.        0.0288 Ry
        Total length         54.7057 bohr
 
 
     Adding external electric field

     Computed dipole along edir(3) : 
        Dipole               -0.4391 Ry au,         -1.1161 Debye
        Dipole field         -0.0003 Ry au, 
 
        Potential amp.        0.0288 Ry
        Total length         54.7057 bohr
 

     total cpu time spent up to now is     1077.1 secs

     total energy              =   -8078.60309236 Ry
     estimated scf accuracy    <       0.02253152 Ry

     total magnetization       =    95.81 Bohr mag/cell
     absolute magnetization    =    97.08 Bohr mag/cell

     iteration # 50     ecut=    50.00 Ry     beta= 0.10
     Davidson diagonalization with overlap
     ethr =  2.02E-06,  avg # of iterations = 12.5

     negative rho (up, down):  5.339E-03 6.618E-03
 
     Adding external electric field

     Computed dipole along edir(3) : 
        Dipole               -0.4659 Ry au,         -1.1842 Debye
        Dipole field         -0.0003 Ry au, 
 
        Potential amp.        0.0306 Ry
        Total length         54.7057 bohr
 
 
     Adding external electric field

     Computed dipole along edir(3) : 
        Dipole               -0.4659 Ry au,         -1.1842 Debye
        Dipole field         -0.0003 Ry au, 
 
        Potential amp.        0.0306 Ry
        Total length         54.7057 bohr
 

     total cpu time spent up to now is     1116.5 secs

     total energy              =   -8078.60281357 Ry
     estimated scf accuracy    <       0.02198233 Ry

     total magnetization       =    95.77 Bohr mag/cell
     absolute magnetization    =    97.08 Bohr mag/cell

     iteration # 51     ecut=    50.00 Ry     beta= 0.10
     Davidson diagonalization with overlap
     ethr =  1.98E-06,  avg # of iterations =  2.0

     negative rho (up, down):  3.595E-03 4.658E-03
 
     Adding external electric field

     Computed dipole along edir(3) : 
        Dipole               -0.5122 Ry au,         -1.3018 Debye
        Dipole field         -0.0003 Ry au, 
 
        Potential amp.        0.0336 Ry
        Total length         54.7057 bohr
 
 
     Adding external electric field

     Computed dipole along edir(3) : 
        Dipole               -0.5122 Ry au,         -1.3018 Debye
        Dipole field         -0.0003 Ry au, 
 
        Potential amp.        0.0336 Ry
        Total length         54.7057 bohr
 

     total cpu time spent up to now is     1137.2 secs

     total energy              =   -8078.60231935 Ry
     estimated scf accuracy    <       0.02109413 Ry

     total magnetization       =    95.78 Bohr mag/cell
     absolute magnetization    =    97.06 Bohr mag/cell

     iteration # 52     ecut=    50.00 Ry     beta= 0.10
     Davidson diagonalization with overlap
     ethr =  1.90E-06,  avg # of iterations =  1.5

     negative rho (up, down):  1.530E-03 2.252E-03
 
     Adding external electric field

     Computed dipole along edir(3) : 
        Dipole               -0.4934 Ry au,         -1.2540 Debye
        Dipole field         -0.0003 Ry au, 
 
        Potential amp.        0.0324 Ry
        Total length         54.7057 bohr
 
 
     Adding external electric field

     Computed dipole along edir(3) : 
        Dipole               -0.4934 Ry au,         -1.2540 Debye
        Dipole field         -0.0003 Ry au, 
 
        Potential amp.        0.0324 Ry
        Total length         54.7057 bohr
 

     total cpu time spent up to now is     1156.3 secs

     total energy              =   -8078.60276448 Ry
     estimated scf accuracy    <       0.01920563 Ry

     total magnetization       =    95.81 Bohr mag/cell
     absolute magnetization    =    97.05 Bohr mag/cell

     iteration # 53     ecut=    50.00 Ry     beta= 0.10
     Davidson diagonalization with overlap
     ethr =  1.73E-06,  avg # of iterations =  2.0

     negative rho (up, down):  1.572E-03 1.915E-03
 
     Adding external electric field

     Computed dipole along edir(3) : 
        Dipole               -0.4765 Ry au,         -1.2111 Debye
        Dipole field         -0.0003 Ry au, 
 
        Potential amp.        0.0313 Ry
        Total length         54.7057 bohr
 
 
     Adding external electric field

     Computed dipole along edir(3) : 
        Dipole               -0.4765 Ry au,         -1.2111 Debye
        Dipole field         -0.0003 Ry au, 
 
        Potential amp.        0.0313 Ry
        Total length         54.7057 bohr
 

     total cpu time spent up to now is     1176.7 secs

     total energy              =   -8078.60400146 Ry
     estimated scf accuracy    <       0.01386022 Ry

     total magnetization       =    95.83 Bohr mag/cell
     absolute magnetization    =    97.07 Bohr mag/cell

     iteration # 54     ecut=    50.00 Ry     beta= 0.10
     Davidson diagonalization with overlap
     ethr =  1.25E-06,  avg # of iterations =  2.0

     negative rho (up, down):  2.002E-03 2.100E-03
 
     Adding external electric field

     Computed dipole along edir(3) : 
        Dipole               -0.4693 Ry au,         -1.1929 Debye
        Dipole field         -0.0003 Ry au, 
 
        Potential amp.        0.0308 Ry
        Total length         54.7057 bohr
 
 
     Adding external electric field

     Computed dipole along edir(3) : 
        Dipole               -0.4693 Ry au,         -1.1929 Debye
        Dipole field         -0.0003 Ry au, 
 
        Potential amp.        0.0308 Ry
        Total length         54.7057 bohr
 

     total cpu time spent up to now is     1198.2 secs

     total energy              =   -8078.60412532 Ry
     estimated scf accuracy    <       0.01009189 Ry

     total magnetization       =    95.83 Bohr mag/cell
     absolute magnetization    =    97.09 Bohr mag/cell

     iteration # 55     ecut=    50.00 Ry     beta= 0.10
     Davidson diagonalization with overlap
     ethr =  9.11E-07,  avg # of iterations =  2.0

     negative rho (up, down):  2.837E-03 2.840E-03
 
     Adding external electric field

     Computed dipole along edir(3) : 
        Dipole               -0.4285 Ry au,         -1.0891 Debye
        Dipole field         -0.0003 Ry au, 
 
        Potential amp.        0.0281 Ry
        Total length         54.7057 bohr
 
 
     Adding external electric field

     Computed dipole along edir(3) : 
        Dipole               -0.4285 Ry au,         -1.0891 Debye
        Dipole field         -0.0003 Ry au, 
 
        Potential amp.        0.0281 Ry
        Total length         54.7057 bohr
 

     total cpu time spent up to now is     1221.2 secs

     total energy              =   -8078.60417956 Ry
     estimated scf accuracy    <       0.00625665 Ry

     total magnetization       =    95.88 Bohr mag/cell
     absolute magnetization    =    97.24 Bohr mag/cell

     iteration # 56     ecut=    50.00 Ry     beta= 0.10
     Davidson diagonalization with overlap
     ethr =  5.65E-07,  avg # of iterations =  2.0

     negative rho (up, down):  3.288E-03 3.308E-03
 
     Adding external electric field

     Computed dipole along edir(3) : 
        Dipole               -0.4163 Ry au,         -1.0582 Debye
        Dipole field         -0.0002 Ry au, 
 
        Potential amp.        0.0273 Ry
        Total length         54.7057 bohr
 
 
     Adding external electric field

     Computed dipole along edir(3) : 
        Dipole               -0.4163 Ry au,         -1.0582 Debye
        Dipole field         -0.0002 Ry au, 
 
        Potential amp.        0.0273 Ry
        Total length         54.7057 bohr
 

     total cpu time spent up to now is     1241.1 secs

     total energy              =   -8078.60432946 Ry
     estimated scf accuracy    <       0.00423018 Ry

     total magnetization       =    95.93 Bohr mag/cell
     absolute magnetization    =    97.31 Bohr mag/cell

     iteration # 57     ecut=    50.00 Ry     beta= 0.10
     Davidson diagonalization with overlap
     ethr =  3.82E-07,  avg # of iterations =  1.5

     negative rho (up, down):  2.443E-04 1.528E-04
 
     Adding external electric field

     Computed dipole along edir(3) : 
        Dipole               -0.4214 Ry au,         -1.0710 Debye
        Dipole field         -0.0003 Ry au, 
 
        Potential amp.        0.0276 Ry
        Total length         54.7057 bohr
 
 
     Adding external electric field

     Computed dipole along edir(3) : 
        Dipole               -0.4214 Ry au,         -1.0710 Debye
        Dipole field         -0.0003 Ry au, 
 
        Potential amp.        0.0276 Ry
        Total length         54.7057 bohr
 

     total cpu time spent up to now is     1261.3 secs

     total energy              =   -8078.60424656 Ry
     estimated scf accuracy    <       0.00331065 Ry

     total magnetization       =    95.92 Bohr mag/cell
     absolute magnetization    =    97.32 Bohr mag/cell

     iteration # 58     ecut=    50.00 Ry     beta= 0.10
     Davidson diagonalization with overlap
     ethr =  2.99E-07,  avg # of iterations =  3.0

     negative rho (up, down):  1.048E-03 9.446E-04
 
     Adding external electric field

     Computed dipole along edir(3) : 
        Dipole               -0.3984 Ry au,         -1.0126 Debye
        Dipole field         -0.0002 Ry au, 
 
        Potential amp.        0.0261 Ry
[...]
    -6.0336  -6.0209  -6.0180  -5.9841  -5.9476  -5.9343  -5.9170  -5.8940
    -5.8829  -5.8734  -5.8634  -5.8224  -5.8105  -5.7890  -5.7514  -5.7254
    -5.7227  -5.7167  -5.6832  -5.6603  -5.6321  -5.6262  -5.6101  -5.5923
    -5.5853  -5.5668  -5.5417  -5.5300  -5.5271  -5.5174  -5.4962  -5.4305
    -5.4046  -5.3672  -5.3443  -5.2984  -5.2972  -5.2871  -5.2716  -5.2081
    -5.1829  -5.1697  -5.1659  -5.1173  -5.0862  -5.0386  -5.0129  -4.9626
    -4.9135  -4.9104  -4.8658  -4.8511  -4.8335  -4.8233  -4.7938  -4.7810
    -4.7014  -4.6775  -4.6643  -4.6376  -4.6116  -4.5942  -4.4812  -4.4569
    -4.4414  -4.4287  -4.4169  -4.3661  -4.3377  -4.3109  -4.2608  -4.2466
    -4.2270  -4.2195  -4.1510  -4.1125  -4.0897  -4.0753  -4.0251  -4.0112
    -3.9376  -3.9014  -3.8901  -3.8782  -3.8733  -3.8157  -3.7903  -3.7814
    -3.7759  -3.7592  -3.7304  -3.7072  -3.6631  -3.6499  -3.6435  -3.6304
    -3.5987  -3.5825  -3.5678  -3.5597  -3.5444  -3.5281  -3.5258  -3.4918
    -3.4671  -3.4514  -3.4453  -3.4221  -3.4157  -3.4149  -3.3704  -3.3571
    -3.3402  -3.3343  -3.3132  -3.2994  -3.2617  -3.2569  -3.2162  -3.2012
    -3.1899  -3.1483  -3.1369  -3.1139  -3.1008  -3.0867  -3.0726  -3.0445
    -3.0259  -3.0011  -2.9694  -2.9434  -2.9379  -2.9084  -2.8955  -2.8663
    -2.8574  -2.8262  -2.7909  -2.7663  -2.7486  -2.7363  -2.7311  -2.7181
    -2.7091  -2.6963  -2.6951  -2.6781  -2.6547  -2.6503  -2.6346  -2.6288
    -2.6176  -2.5873  -2.5736  -2.5701  -2.5482  -2.5445  -2.5384  -2.5144
    -2.4838  -2.4753  -2.4501  -2.4356  -2.4239  -2.3999  -2.3795  -2.3641
    -2.3394  -2.3337  -2.3218  -2.3104  -2.2743  -2.2560  -2.2360  -2.2343
    -2.2198  -2.2025  -2.1752  -2.1473  -2.1345  -2.1073  -2.0988  -2.0677
    -2.0622  -2.0515  -2.0254  -2.0129  -1.9987  -1.9712  -1.9534  -1.9314
    -1.9201  -1.9136  -1.9098  -1.8817  -1.8756  -1.8543  -1.8470  -1.8366
    -1.7720  -1.7619  -1.7360  -1.7130  -1.6996  -1.6747  -1.6700  -1.6513
    -1.6455  -1.6255  -1.6184  -1.6040  -1.5796  -1.5602  -1.5432  -1.5110
    -1.4874  -1.4702  -1.4326  -1.4210  -1.4028  -1.3925  -1.3714  -1.3548
    -1.3497  -1.3394  -1.3249  -1.2677  -1.2434  -1.2245  -1.2108  -1.1514
    -1.1376  -1.1117  -1.0453  -1.0436  -1.0330  -1.0271  -0.8817  -0.8389
    -0.7832  -0.7304  -0.6539  -0.6325  -0.4958  -0.4713  -0.4529  -0.3144
     0.1374   0.1506   0.1932   0.2105   0.2202   0.2458   0.2676   0.2753
     0.2903   0.2975   0.3020   0.3285   0.3325   0.3434   0.3443   0.3501
     0.3641   0.3686   0.3762   0.3836   0.3938   0.4015   0.4166   0.4254
     0.4306   0.4348   0.4411   0.4469   0.4492   0.4680   0.4768   0.4808
     0.4860   0.4932   0.4955   0.5109   0.5183   0.5282   0.5364   0.5410
     0.5622   0.5681   0.5807   0.5928   0.5976   0.5984   0.6109   0.6215
     0.6289   0.6317   0.6388   0.6535   0.6708   0.6833   0.6865   0.6911
     0.7004   0.7010   0.7090   0.7276   0.7388   0.7433   0.7669   0.7677
     0.7727   0.7819   0.7851   0.8100   0.8152   0.8293   0.8338   0.8359
     0.8687   0.8791   0.9274   0.9418   0.9831   0.9885   1.0236   1.0916
     1.1109   1.7202   1.7265   1.7434   1.7656   1.7786   1.7854   1.7934
     1.8205   1.8439   1.8546   1.8884   1.9146   1.9318   1.9541   1.9810
     2.0022   2.0246   2.0418   2.0528   2.0603   2.0759   2.0877   2.1170
     2.1415   2.1583   2.1631   2.1697   2.1786   2.2179   2.2278   2.2436
     2.2569   2.2647   2.2884   2.3056   2.3073   2.3247   2.3486   2.3603
     2.3868   2.4029   2.4238   2.4463   2.4694   2.4735   2.4875   2.5645
     2.5762   2.6157   2.6991   2.7228   2.7645   2.7649   2.8233   3.3272
     3.5044   3.6557   3.7192   3.7277   3.7488   3.8122   3.8462   3.8776
     3.9045   3.9132   3.9420   3.9649   3.9838   3.9898   4.0210   4.0350
     4.0484   4.0666   4.0992   4.1081   4.1248   4.1556   4.1720   4.1917
     4.1996   4.2130   4.2299   4.2729   4.3657   4.4160   4.5611   4.7435
     4.7690   4.8292   4.8426   4.8850   4.9407   4.9509   4.9711   5.0319
     5.0577   5.0753   5.1180   5.1408   5.1816   5.1845   5.3271   6.1312
     6.3184   6.4008   6.5386   6.6084   6.6610   6.6709   6.7289   6.8146
     6.8928   6.9118   6.9577   6.9815   7.1695   7.2445   7.2885   7.3125
     7.3459   7.3951   7.4481   7.4972   7.5371   7.5454   7.6459   7.6724
     7.7789   7.8349   7.8427   7.8809   7.9110   7.9503   7.9594   7.9820
     8.0256   8.0440   8.0762   8.1232   8.1576   8.1783   8.1969   8.2352
     8.2636   8.2854   8.3080   8.3195   8.3523   8.3570   8.3869   8.4191
     8.4282   8.4485   8.4857   8.5168   8.5310   8.5398   8.5690   8.5936
     8.6064

     the Fermi energy is     1.6508 ev

!    total energy              =   -8078.60460538 Ry
     estimated scf accuracy    <       0.00000074 Ry
     smearing contrib. (-TS)   =      -0.02256969 Ry
     internal energy E=F+TS    =   -8078.58203570 Ry

     The total energy is F=E-TS. E is the sum of the following terms:
     one-electron contribution =  -94727.26242874 Ry
     hartree contribution      =   47946.65656340 Ry
     xc contribution           =   -2177.32716850 Ry
     ewald contribution        =   40881.12117645 Ry
     Dispersion Correction     =      -1.77023860 Ry
     electric field correction =       0.00006029 Ry

     total magnetization       =    95.86 Bohr mag/cell
     absolute magnetization    =    97.22 Bohr mag/cell

     convergence has been achieved in  73 iterations

     negative rho (up, down):  1.165E-03 6.335E-04

     Forces acting on atoms (cartesian axes, Ry/au):

     atom    1 type  1   force =     0.02411210   -0.01771729    0.02010819
     atom    2 type  1   force =    -0.00192485    0.00006453   -0.00579920
     atom    3 type  2   force =    -0.03021474   -0.01554019   -0.00835872
     atom    4 type  1   force =     0.00193700   -0.00322356   -0.00476351
     atom    5 type  1   force =    -0.00376133    0.00223729   -0.00191918
     atom    6 type  1   force =     0.00252130    0.00743390   -0.00424299
     atom    7 type  1   force =     0.03187420   -0.01956840    0.01788664
     atom    8 type  2   force =    -0.00182218    0.00012534   -0.00941120
     atom    9 type  2   force =    -0.02878597   -0.01515470   -0.00835992
     atom   10 type  1   force =     0.00198541   -0.00292935   -0.00453309
     atom   11 type  1   force =    -0.00340007    0.00263662   -0.00105220
     atom   12 type  1   force =     0.00362708    0.00683549   -0.00369108
     atom   13 type  3   force =     0.00212381    0.00073006   -0.00761434
     atom   14 type  3   force =    -0.02975263    0.04990801   -0.06591782
     atom   15 type  3   force =     0.03465974    0.03759760   -0.05976964
     atom   16 type  3   force =    -0.00442981    0.00308381   -0.00095797
     atom   17 type  4   force =    -0.00194226    0.00143300    0.00295030
     atom   18 type  4   force =    -0.00154258   -0.00524680    0.02724505
     atom   19 type  4   force =     0.00390861    0.00272975    0.02939254
     atom   20 type  4   force =    -0.00001030   -0.00262575   -0.00470047
     atom   21 type  4   force =    -0.00297124   -0.00224976    0.00330317
     atom   22 type  4   force =     0.00476327   -0.00335805    0.03443371
     atom   23 type  4   force =    -0.00600948   -0.00114727    0.03261823
     atom   24 type  4   force =     0.00058643   -0.00091348   -0.00003386
     atom   25 type  4   force =    -0.00139727    0.00068940    0.00216180
     atom   26 type  4   force =    -0.01460322   -0.02259456   -0.00175046
     atom   27 type  4   force =     0.00196954   -0.00070061    0.00119655
     atom   28 type  4   force =    -0.01751663    0.00340534    0.00124763
     atom   29 type  4   force =     0.02048026   -0.00457717    0.00834465
     atom   30 type  4   force =     0.01248951   -0.03392965    0.00120172
     atom   31 type  4   force =     0.00058612    0.00080339    0.00230833
     atom   32 type  4   force =    -0.00228625    0.00004783    0.00265794
     atom   33 type  3   force =    -0.00057328   -0.00163799   -0.00508557
     atom   34 type  3   force =    -0.03022004    0.05982079   -0.08311982
     atom   35 type  3   force =     0.03460234    0.03340263   -0.05920818
     atom   36 type  3   force =    -0.00386777    0.00471096   -0.00074778
     atom   37 type  4   force =    -0.00101636    0.00141758    0.00320041
     atom   38 type  4   force =    -0.00300621   -0.00564563    0.03283537
     atom   39 type  4   force =     0.00436703    0.00384924    0.02915054
     atom   40 type  4   force =     0.00012621   -0.00312050   -0.00479076
     atom   41 type  4   force =    -0.00000752    0.00010342    0.00349529
     atom   42 type  4   force =     0.00546478    0.00021097    0.02015854
     atom   43 type  4   force =    -0.00181071    0.00032215    0.03469524
     atom   44 type  4   force =     0.00083642   -0.00078028   -0.00002715
     atom   45 type  4   force =    -0.00026741   -0.00287692    0.00126057
     atom   46 type  4   force =    -0.01519058   -0.02024117   -0.00041886
     atom   47 type  4   force =     0.00208138   -0.00059548    0.00127447
     atom   48 type  4   force =    -0.01785658    0.00403142    0.00167540
     atom   49 type  4   force =     0.01627218   -0.00275475    0.00505394
     atom   50 type  4   force =     0.01187332   -0.03662794    0.00443334
     atom   51 type  4   force =     0.00111546    0.00081792    0.00171239
     atom   52 type  4   force =     0.00086308   -0.00225510    0.00363454
     atom   53 type  1   force =     0.00139986    0.00039825   -0.00101078
     atom   54 type  1   force =     0.00072979    0.00042484    0.00070862
     atom   55 type  2   force =    -0.00012482   -0.00030044   -0.00094559
     atom   56 type  1   force =    -0.00087458   -0.00031732    0.00055770
     atom   57 type  1   force =     0.00023360    0.00014734    0.00017473
     atom   58 type  1   force =    -0.00000343   -0.00012921    0.00007319
     atom   59 type  1   force =     0.00048074    0.00070770   -0.00113400
     atom   60 type  2   force =    -0.00117258   -0.00173723    0.00620526
     atom   61 type  2   force =    -0.00037052   -0.00012652   -0.00096904
     atom   62 type  1   force =     0.00030503    0.00079045    0.00053221
     atom   63 type  1   force =    -0.00031263    0.00030544    0.00010448
     atom   64 type  1   force =     0.00021680   -0.00027440   -0.00026471
     atom   65 type  3   force =    -0.00058743   -0.00112252    0.00301226
     atom   66 type  3   force =     0.00006095   -0.00013034   -0.00169803
     atom   67 type  3   force =     0.00035122    0.00054916   -0.00134922
     atom   68 type  3   force =    -0.00071872    0.00017056    0.00326693
     atom   69 type  4   force =    -0.00057005    0.00034629   -0.00110303
     atom   70 type  4   force =    -0.00003760    0.00002899    0.00041382
     atom   71 type  4   force =     0.00015398   -0.00021030    0.00037852
     atom   72 type  4   force =     0.00060597   -0.00048262   -0.00115535
     atom   73 type  4   force =    -0.00014025    0.00018427    0.00126510
     atom   74 type  4   force =    -0.00016206   -0.00069745    0.00194784
     atom   75 type  4   force =    -0.00010203   -0.00009227    0.00067078
     atom   76 type  4   force =    -0.00006188   -0.00129216    0.00086513
     atom   77 type  4   force =    -0.00077704    0.00047079   -0.00084105
     atom   78 type  4   force =    -0.00032248    0.00008464    0.00040426
     atom   79 type  4   force =     0.00042713    0.00053812   -0.00137262
     atom   80 type  4   force =     0.00010282    0.00059513    0.00028603
     atom   81 type  4   force =    -0.00047432   -0.00026270    0.00032227
     atom   82 type  4   force =     0.00022222   -0.00002215    0.00012113
     atom   83 type  4   force =    -0.00009875    0.00054528   -0.00043916
     atom   84 type  4   force =    -0.00034695    0.00017609   -0.00065693
     atom   85 type  3   force =    -0.00018852   -0.00087589    0.00169702
     atom   86 type  3   force =     0.00058251   -0.00047985   -0.00044008
     atom   87 type  3   force =    -0.00025528   -0.00002524   -0.00108337
     atom   88 type  3   force =    -0.00107024   -0.00052719    0.00104918
     atom   89 type  4   force =    -0.00015438   -0.00006095   -0.00055255
     atom   90 type  4   force =     0.00005908   -0.00049812    0.00146718
     atom   91 type  4   force =     0.00026083    0.00005541    0.00036547
     atom   92 type  4   force =     0.00048921   -0.00064744   -0.00080798
     atom   93 type  4   force =     0.00183172    0.00108511    0.00177450
     atom   94 type  4   force =    -0.00024358   -0.00000112    0.00141979
     atom   95 type  4   force =     0.00018316    0.00008388    0.00069346
     atom   96 type  4   force =    -0.00010059   -0.00078600   -0.00017553
     atom   97 type  4   force =     0.00019474   -0.00034624   -0.00058391
     atom   98 type  4   force =    -0.00056423   -0.00009532    0.00037285
     atom   99 type  4   force =     0.00037318    0.00051817   -0.00107687
     atom  100 type  4   force =     0.00059504    0.00038488    0.00054069
     atom  101 type  4   force =    -0.00046848   -0.00015613    0.00049206
     atom  102 type  4   force =     0.00091630   -0.00036388    0.00045528
     atom  103 type  4   force =     0.00093846    0.00043227    0.00030177
     atom  104 type  4   force =    -0.00022421   -0.00067268    0.00004635
     atom  105 type  1   force =     0.00024449    0.00026155    0.00024700
     atom  106 type  1   force =    -0.00010905    0.00021759    0.00019802
     atom  107 type  2   force =    -0.00007864    0.00035672    0.00015178
     atom  108 type  1   force =    -0.00014550   -0.00034369   -0.00011921
     atom  109 type  1   force =     0.00000485   -0.00030844    0.00027580
     atom  110 type  1   force =     0.00052859    0.00038404   -0.00033539
     atom  111 type  1   force =     0.00000030    0.00013942    0.00048545
     atom  112 type  2   force =     0.00081864   -0.00008809   -0.00029348
     atom  113 type  2   force =    -0.00020218    0.00022508   -0.00000177
     atom  114 type  1   force =     0.00040687   -0.00008610    0.00030649
     atom  115 type  1   force =     0.00002843   -0.00020821    0.00013298
     atom  116 type  1   force =     0.00006085   -0.00001293    0.00006175
     atom  117 type  3   force =    -0.00004434    0.00011100    0.00003840
     atom  118 type  3   force =     0.00030308   -0.00002076    0.00009443
     atom  119 type  3   force =     0.00018121    0.00029688   -0.00003207
     atom  120 type  3   force =     0.00010773   -0.00022566   -0.00029155
     atom  121 type  4   force =    -0.00007205   -0.00029221    0.00011448
     atom  122 type  4   force =     0.00013685   -0.00040502    0.00036395
     atom  123 type  4   force =    -0.00022790    0.00022934    0.00009333
     atom  124 type  4   force =    -0.00007904   -0.00055280   -0.00048568
     atom  125 type  4   force =    -0.00056910    0.00048047    0.00017647
     atom  126 type  4   force =    -0.00001258    0.00049477    0.00011330
     atom  127 type  4   force =     0.00027993    0.00000061    0.00022540
     atom  128 type  4   force =    -0.00007005    0.00031736    0.00038447
     atom  129 type  4   force =    -0.00009999   -0.00023552   -0.00005265
     atom  130 type  4   force =    -0.00032385   -0.00011379    0.00012112
     atom  131 type  4   force =    -0.00026047   -0.00012102   -0.00002317
     atom  132 type  4   force =    -0.00024647    0.00025685   -0.00004227
     atom  133 type  4   force =     0.00016377    0.00006158   -0.00004744
     atom  134 type  4   force =     0.00043884   -0.00014141    0.00026518
     atom  135 type  4   force =     0.00029293    0.00023603   -0.00007750
     atom  136 type  4   force =     0.00009536    0.00071505    0.00030103
     atom  137 type  3   force =    -0.00048053    0.00033103    0.00003496
     atom  138 type  3   force =     0.00044840   -0.00002110    0.00011914
     atom  139 type  3   force =    -0.00036711   -0.00013496   -0.00015199
     atom  140 type  3   force =    -0.00010307    0.00028803    0.00028445
     atom  141 type  4   force =     0.00010165   -0.00001147   -0.00006496
     atom  142 type  4   force =     0.00009990    0.00011290    0.00005837
     atom  143 type  4   force =    -0.00005850   -0.00028588   -0.00019736
     atom  144 type  4   force =    -0.00049224    0.00061428    0.00012501
     atom  145 type  4   force =     0.00023682   -0.00047894    0.00019091
     atom  146 type  4   force =    -0.00002296    0.00036042   -0.00016772
     atom  147 type  4   force =    -0.00009881    0.00026640   -0.00014112
     atom  148 type  4   force =     0.00012528   -0.00018456   -0.00002280
     atom  149 type  4   force =    -0.00017438    0.00039860   -0.00000642
     atom  150 type  4   force =    -0.00005707   -0.00015727    0.00001319
     atom  151 type  4   force =    -0.00015180    0.00067082   -0.00017890
     atom  152 type  4   force =    -0.00022619    0.00010295   -0.00013479
     atom  153 type  4   force =    -0.00002776    0.00002857   -0.00007476
     atom  154 type  4   force =    -0.00005614    0.00030673   -0.00015710
     atom  155 type  4   force =     0.00001004   -0.00009867    0.00043095
     atom  156 type  4   force =    -0.00034934    0.00005388   -0.00005248
     atom  157 type  4   force =     0.00082823   -0.00093894   -0.00097981
     atom  158 type  5   force =    -0.00096193    0.00042307    0.00103577

     Total force =     0.225099     Total SCF correction =     0.004073
 
     init_run     :     11.57s CPU     12.25s WALL (       1 calls)
     electrons    :   1531.08s CPU   1580.84s WALL (       1 calls)
     forces       :      6.64s CPU      7.08s WALL (       1 calls)
     force_london :      0.09s CPU      0.09s WALL (       1 calls)

     Called by init_run:
     wfcinit      :      6.70s CPU      6.86s WALL (       1 calls)
     potinit      :      0.89s CPU      1.10s WALL (       1 calls)
     hinit0       :      2.23s CPU      2.34s WALL (       1 calls)

     Called by electrons:
     c_bands      :   1186.24s CPU   1213.12s WALL (      73 calls)
     sum_band     :    209.62s CPU    221.78s WALL (      73 calls)
     v_of_rho     :     24.98s CPU     26.08s WALL (      74 calls)
     newd         :     78.71s CPU     88.40s WALL (      74 calls)
     mix_rho      :     30.06s CPU     30.22s WALL (      73 calls)
     energy_londo :      0.08s CPU      0.08s WALL (       1 calls)

     Called by c_bands:
     init_us_2    :      2.38s CPU      2.46s WALL (     296 calls)
     init_us_2:cp :      2.37s CPU      2.46s WALL (     296 calls)
     regterg      :   1166.11s CPU   1192.70s WALL (     150 calls)

     Called by *egterg:
     rdiaghg      :    298.99s CPU    311.58s WALL (     594 calls)
     h_psi        :    447.90s CPU    454.46s WALL (     596 calls)
     s_psi        :     54.78s CPU     54.84s WALL (     596 calls)
     g_psi        :      0.39s CPU      0.39s WALL (     444 calls)

     Called by h_psi:
     h_psi:calbec :    113.78s CPU    118.75s WALL (     596 calls)
     vloc_psi     :    277.51s CPU    278.46s WALL (     596 calls)
     add_vuspsi   :     55.79s CPU     56.41s WALL (     596 calls)

     General routines
     calbec       :    166.55s CPU    173.83s WALL (     750 calls)
     fft          :     68.11s CPU     69.72s WALL (    1345 calls)
     ffts         :     15.93s CPU     15.99s WALL (    9077 calls)
     fftw         :    313.83s CPU    314.82s WALL (  255522 calls)
     interpolate  :      2.32s CPU      2.39s WALL (     148 calls)
 
     Parallel routines
 
     PWSCF        :  25m51.48s CPU  26m42.66s WALL

 
   This run was terminated on:   0:54:19  18Nov2025            

=------------------------------------------------------------------------------=
   JOB DONE.
=------------------------------------------------------------------------------=
