
     Program PWSCF v.7.2 starts on 19Nov2025 at 23:22:31 

     This program is part of the open-source Quantum ESPRESSO suite
     for quantum simulation of materials; please cite
         "P. Giannozzi et al., J. Phys.:Condens. Matter 21 395502 (2009);
         "P. Giannozzi et al., J. Phys.:Condens. Matter 29 465901 (2017);
         "P. Giannozzi et al., J. Chem. Phys. 152 154105 (2020);
          URL http://www.quantum-espresso.org", 
     in publications or presentations arising from this work. More details at
     http://www.quantum-espresso.org/quote

     Parallel version (MPI), running on    64 processors

     MPI processes distributed on     4 nodes
     384118 MiB available memory on the printing compute node when the environment starts
 
     Reading input from PWINPUT_atm157_yp

     Current dimensions of program PWSCF are:
     Max number of different atomic species (ntypx) = 10
     Max number of k-points (npk) =  40000
     Max angular momentum in pseudopotentials (lmaxx) =  4
     Presently no symmetry can be used with electric field

     file Ni.pbe-n-rrkjus_psl.1.0.0.UPF: wavefunction(s)  3D renormalized
     file Mn.pbe-spn-rrkjus_psl.0.3.1.UPF: wavefunction(s)  3D renormalized
     file O.pbe-rrkjus.UPF: wavefunction(s)  2S renormalized
     file H.pbe-rrkjus.UPF: wavefunction(s)  1S renormalized

     gamma-point specific algorithms are used
 
     R & G space division:  proc/nbgrp/npool/nimage =      64
     Subspace diagonalization in iterative solution of the eigenvalue problem:
     one sub-group per band group will be used
     custom distributed-memory algorithm (size of sub-group:  7*  7 procs)

 
     Parallelization info
     --------------------
     sticks:   dense  smooth     PW     G-vecs:    dense   smooth      PW
     Min         214      85     20                61830    15614    1928
     Max         216      86     22                61864    15658    1982
     Sum       13727    5503   1375              3958051  1001255  125211
 
     Using Slab Decomposition
 


     bravais-lattice index     =            0
     lattice parameter (alat)  =      17.8532  a.u.
     unit-cell volume          =   20962.6682 (a.u.)^3
     number of atoms/cell      =          158
     number of atomic types    =            5
     number of electrons       =      1108.00
     number of Kohn-Sham states=          665
     kinetic-energy cutoff     =      50.0000  Ry
     charge density cutoff     =     500.0000  Ry
     scf convergence threshold =      1.0E-06
     mixing beta               =       0.5000
     number of iterations used =            8  local-TF  mixing
     Exchange-correlation=  SLA  PW   PBE  PBE
                           (   1   4   3   4   0   0   0)

     celldm(1)=  17.853155  celldm(2)=   0.000000  celldm(3)=   0.000000
     celldm(4)=   0.000000  celldm(5)=   0.000000  celldm(6)=   0.000000

     crystal axes: (cart. coord. in units of alat)
               a(1) = (   1.000000   0.000000   0.000000 )  
               a(2) = (   0.003237   1.081997   0.000000 )  
               a(3) = (   0.000000   0.000000   3.404673 )  

     reciprocal axes: (cart. coord. in units 2 pi/alat)
               b(1) = (  1.000000 -0.002992  0.000000 )  
               b(2) = (  0.000000  0.924217  0.000000 )  
               b(3) = (  0.000000  0.000000  0.293714 )  


     PseudoPot. # 1 for Ni read from file:
     ~/PSEUDO/Ni.pbe-n-rrkjus_psl.1.0.0.UPF
     MD5 check sum: Not computed, couldn't open file
     Pseudo is Ultrasoft + core correction, Zval = 10.0
     Generated using "atomic" code by A. Dal Corso  v.5.1.2
     Using radial grid of 1195 points,  6 beta functions with: 
                l(1) =   0
                l(2) =   0
                l(3) =   1
                l(4) =   1
                l(5) =   2
                l(6) =   2
     Q(r) pseudized with 0 coefficients 


     PseudoPot. # 2 for Mn read from file:
     ~/PSEUDO/Mn.pbe-spn-rrkjus_psl.0.3.1.UPF
     MD5 check sum: Not computed, couldn't open file
     Pseudo is Ultrasoft + core correction, Zval = 15.0
     Generated using &quot;atomic&quot; code by A. Dal Corso  v.6.2.2
     Using radial grid of 1187 points,  6 beta functions with: 
                l(1) =   0
                l(2) =   0
                l(3) =   1
                l(4) =   1
                l(5) =   2
                l(6) =   2
     Q(r) pseudized with 0 coefficients 


     PseudoPot. # 3 for P  read from file:
     ~/PSEUDO/P.pbe-n-rrkjus_psl.1.0.0.UPF
     MD5 check sum: Not computed, couldn't open file
     Pseudo is Ultrasoft + core correction, Zval =  5.0
     Generated using "atomic" code by A. Dal Corso  v.5.1
     Using radial grid of 1147 points,  6 beta functions with: 
                l(1) =   0
                l(2) =   0
                l(3) =   1
                l(4) =   1
                l(5) =   2
                l(6) =   2
     Q(r) pseudized with 0 coefficients 


     PseudoPot. # 4 for O  read from file:
     ~/PSEUDO/O.pbe-rrkjus.UPF
     MD5 check sum: Not computed, couldn't open file
     Pseudo is Ultrasoft, Zval =  6.0
     Generated by new atomic code, or converted to UPF format
     Using radial grid of 1269 points,  4 beta functions with: 
                l(1) =   0
                l(2) =   0
                l(3) =   1
                l(4) =   1
     Q(r) pseudized with 0 coefficients 


     PseudoPot. # 5 for H  read from file:
     ~/PSEUDO/H.pbe-rrkjus.UPF
     MD5 check sum: Not computed, couldn't open file
     Pseudo is Ultrasoft, Zval =  1.0
     Generated by new atomic code, or converted to UPF format
     Using radial grid of 1061 points,  2 beta functions with: 
                l(1) =   0
                l(2) =   0
     Q(r) pseudized with 0 coefficients 


     atomic species   valence    mass     pseudopotential
     Ni               10.00    58.69300     Ni( 1.00)
     Mn               15.00    54.93800     Mn( 1.00)
     P                 5.00    30.97300     P ( 1.00)
     O                 6.00    15.99900     O ( 1.00)
     H                 1.00     1.00790     H ( 1.00)

     Starting magnetic structure 
     atomic species   magnetization
     Ni              1.000
     Mn              1.000
     P               1.000
     O               1.000
     H               0.000

     No symmetry found



   Cartesian axes

     site n.     atom                  positions (alat units)
         1        Ni     tau(   1) = (   0.2448189   0.8359134   0.1216996  )
         2        Ni     tau(   2) = (   0.4920952   0.7731948   0.4438949  )
         3        Mn     tau(   3) = (   0.0113021   0.2918949   0.1160512  )
         4        Ni     tau(   4) = (   0.2586115   0.2268566   0.4417628  )
         5        Ni     tau(   5) = (   1.0019827   1.0705803   0.2835623  )
         6        Ni     tau(   6) = (   0.2518099   0.5339061   0.2823483  )
         7        Ni     tau(   7) = (   0.7400999   0.8349186   0.1225624  )
         8        Mn     tau(   8) = (   0.9886961   0.7700845   0.4492175  )
         9        Mn     tau(   9) = (   0.5113421   0.2944667   0.1158892  )
        10        Ni     tau(  10) = (   0.7560857   0.2263843   0.4422798  )
        11        Ni     tau(  11) = (   0.5009386   1.0712238   0.2822610  )
        12        Ni     tau(  12) = (   0.7496978   0.5336600   0.2834396  )
        13        P      tau(  13) = (   0.2147792   0.9686896   0.4382665  )
        14        P      tau(  14) = (   0.4607377   0.6441916   0.1265334  )
        15        P      tau(  15) = (   0.2883218   0.0913464   0.1265752  )
        16        P      tau(  16) = (   0.0408981   0.4221836   0.4354960  )
        17        O      tau(  17) = (   0.1380864   0.9007819   0.3023220  )
        18        O      tau(  18) = (   0.3817439   0.7113683   0.2624610  )
        19        O      tau(  19) = (   0.3638364   0.1608547   0.2624417  )
        20        O      tau(  20) = (   0.1207568   0.3545755   0.3021219  )
        21        O      tau(  21) = (   0.1552194   0.8797563   0.5625160  )
        22        O      tau(  22) = (   0.4022820   0.7317969   0.0010585  )
        23        O      tau(  23) = (   0.3454844   0.1823965   0.0026336  )
        24        O      tau(  24) = (   0.1017019   0.3344979   0.5594858  )
        25        O      tau(  25) = (   0.0970074   0.5770714   0.4346455  )
        26        O      tau(  26) = (   0.3534166   1.0203677   0.1270707  )
        27        O      tau(  27) = (   0.3778024   0.4172402   0.4261028  )
        28        O      tau(  28) = (   0.1256171   0.0954063   0.1372153  )
        29        O      tau(  29) = (   0.1232168   0.6482422   0.1385172  )
        30        O      tau(  30) = (   0.4028533   0.4897833   0.1289718  )
        31        O      tau(  31) = (   0.1511050   0.0405554   0.4369979  )
        32        O      tau(  32) = (   0.3776556   0.9624293   0.4288159  )
        33        P      tau(  33) = (   0.7084770   0.9682119   0.4394551  )
        34        P      tau(  34) = (   0.9603154   0.6409658   0.1292469  )
        35        P      tau(  35) = (   0.7875734   0.0899770   0.1274098  )
        36        P      tau(  36) = (   0.5405152   0.4272620   0.4364455  )
        37        O      tau(  37) = (   0.6323583   0.8977630   0.3036670  )
        38        O      tau(  38) = (   0.8809646   0.7091921   0.2627111  )
        39        O      tau(  39) = (   0.8631054   0.1587239   0.2636487  )
        40        O      tau(  40) = (   0.6202581   0.3578380   0.3034239  )
        41        O      tau(  41) = (   0.6499160   0.8772596   0.5630912  )
        42        O      tau(  42) = (   0.8990171   0.7283464   0.0054426  )
        43        O      tau(  43) = (   0.8448361   0.1806154   0.0030658  )
        44        O      tau(  44) = (   0.6023096   0.3392612   0.5600469  )
        45        O      tau(  45) = (   0.5960222   0.5826131   0.4346340  )
        46        O      tau(  46) = (   0.8515023   1.0184215   0.1281632  )
        47        O      tau(  47) = (   0.8779640   0.4148900   0.4260983  )
        48        O      tau(  48) = (   0.6251159   0.0957170   0.1376895  )
        49        O      tau(  49) = (   0.6237654   0.6481585   0.1378370  )
        50        O      tau(  50) = (   0.9038046   0.4863338   0.1307354  )
        51        O      tau(  51) = (   0.6458737   0.0402574   0.4377979  )
        52        O      tau(  52) = (   0.8712434   0.9635255   0.4285638  )
        53        Ni     tau(  53) = (   0.2420320   0.8169913   0.7491577  )
        54        Ni     tau(  54) = (   0.4893084   0.7542727   1.0713530  )
        55        Mn     tau(  55) = (   0.0085152   0.2729728   0.7435093  )
        56        Ni     tau(  56) = (   0.2558246   0.2079345   1.0692209  )
        57        Ni     tau(  57) = (   0.9991959   1.0516583   0.9110204  )
        58        Ni     tau(  58) = (   0.2490231   0.5149840   0.9098064  )
        59        Ni     tau(  59) = (   0.7373131   0.8159965   0.7500205  )
        60        Mn     tau(  60) = (   0.9859093   0.7511625   1.0766756  )
        61        Mn     tau(  61) = (   0.5085552   0.2755447   0.7433473  )
        62        Ni     tau(  62) = (   0.7532989   0.2074622   1.0697379  )
        63        Ni     tau(  63) = (   0.4981517   1.0523018   0.9097191  )
        64        Ni     tau(  64) = (   0.7469109   0.5147379   0.9108977  )
        65        P      tau(  65) = (   0.2119924   0.9497675   1.0657246  )
        66        P      tau(  66) = (   0.4579509   0.6252695   0.7539915  )
        67        P      tau(  67) = (   0.2855349   0.0724244   0.7540333  )
        68        P      tau(  68) = (   0.0381112   0.4032615   1.0629541  )
        69        O      tau(  69) = (   0.1352995   0.8818598   0.9297801  )
        70        O      tau(  70) = (   0.3789570   0.6924463   0.8899191  )
        71        O      tau(  71) = (   0.3610496   0.1419327   0.8898998  )
        72        O      tau(  72) = (   0.1179700   0.3356534   0.9295800  )
        73        O      tau(  73) = (   0.1524325   0.8608343   1.1899741  )
        74        O      tau(  74) = (   0.3994952   0.7128748   0.6285166  )
        75        O      tau(  75) = (   0.3426976   0.1634744   0.6300917  )
        76        O      tau(  76) = (   0.0989151   0.3155758   1.1869439  )
        77        O      tau(  77) = (   0.0942206   0.5581494   1.0621036  )
        78        O      tau(  78) = (   0.3506297   1.0014456   0.7545288  )
        79        O      tau(  79) = (   0.3750155   0.3983181   1.0535609  )
        80        O      tau(  80) = (   0.1228303   0.0764842   0.7646734  )
        81        O      tau(  81) = (   0.1204299   0.6293201   0.7659753  )
        82        O      tau(  82) = (   0.4000664   0.4708612   0.7564299  )
        83        O      tau(  83) = (   0.1483182   0.0216333   1.0644560  )
        84        O      tau(  84) = (   0.3748687   0.9435072   1.0562740  )
        85        P      tau(  85) = (   0.7056901   0.9492898   1.0669132  )
        86        P      tau(  86) = (   0.9575286   0.6220438   0.7567050  )
        87        P      tau(  87) = (   0.7847866   0.0710549   0.7548679  )
        88        P      tau(  88) = (   0.5377283   0.4083400   1.0639036  )
        89        O      tau(  89) = (   0.6295714   0.8788409   0.9311251  )
        90        O      tau(  90) = (   0.8781778   0.6902700   0.8901692  )
        91        O      tau(  91) = (   0.8603186   0.1398018   0.8911068  )
        92        O      tau(  92) = (   0.6174712   0.3389159   0.9308820  )
        93        O      tau(  93) = (   0.6471291   0.8583376   1.1905493  )
        94        O      tau(  94) = (   0.8962302   0.7094244   0.6329007  )
        95        O      tau(  95) = (   0.8420493   0.1616933   0.6305239  )
        96        O      tau(  96) = (   0.5995227   0.3203391   1.1875050  )
        97        O      tau(  97) = (   0.5932354   0.5636910   1.0620921  )
        98        O      tau(  98) = (   0.8487155   0.9994995   0.7556213  )
        99        O      tau(  99) = (   0.8751772   0.3959680   1.0535564  )
       100        O      tau( 100) = (   0.6223291   0.0767949   0.7651476  )
       101        O      tau( 101) = (   0.6209785   0.6292365   0.7652951  )
       102        O      tau( 102) = (   0.9010178   0.4674118   0.7581935  )
       103        O      tau( 103) = (   0.6430869   0.0213354   1.0652560  )
       104        O      tau( 104) = (   0.8684566   0.9446034   1.0560219  )
       105        Ni     tau( 105) = (   0.2384978   0.7977595   1.3788694  )
       106        Ni     tau( 106) = (   0.4977364   0.7374783   1.6806186  )
       107        Mn     tau( 107) = (   0.0074064   0.2578144   1.3744489  )
       108        Ni     tau( 108) = (   0.2437957   0.1954136   1.6827143  )
       109        Ni     tau( 109) = (   1.0006497   1.0326434   1.5404833  )
       110        Ni     tau( 110) = (   0.2439992   0.4967508   1.5401191  )
       111        Ni     tau( 111) = (   0.7374428   0.7984296   1.3777262  )
       112        Mn     tau( 112) = (   0.9966803   0.7366577   1.7115429  )
       113        Mn     tau( 113) = (   0.5076556   0.2589984   1.3732312  )
       114        Ni     tau( 114) = (   0.7423887   0.1965493   1.6832389  )
       115        Ni     tau( 115) = (   0.4997824   1.0361881   1.5381360  )
       116        Ni     tau( 116) = (   0.7435623   0.4992904   1.5465492  )
       117        P      tau( 117) = (   0.2144549   0.9278899   1.6995636  )
       118        P      tau( 118) = (   0.4551955   0.6050722   1.3802014  )
       119        P      tau( 119) = (   0.2849604   0.0539795   1.3804579  )
       120        P      tau( 120) = (   0.0337229   0.3834112   1.7005366  )
       121        O      tau( 121) = (   0.1305203   0.8570033   1.5637456  )
       122        O      tau( 122) = (   0.3757482   0.6729749   1.5155776  )
       123        O      tau( 123) = (   0.3613724   0.1249247   1.5151439  )
       124        O      tau( 124) = (   0.1129169   0.3224918   1.5571838  )
       125        O      tau( 125) = (   0.1580226   0.8374540   1.8209462  )
       126        O      tau( 126) = (   0.3964371   0.6927973   1.2548158  )
       127        O      tau( 127) = (   0.3425460   0.1434071   1.2554580  )
       128        O      tau( 128) = (   0.0951476   0.2873483   1.8142913  )
       129        O      tau( 129) = (   0.0915744   0.5399361   1.6925782  )
       130        O      tau( 130) = (   0.3476648   0.9823179   1.3836286  )
       131        O      tau( 131) = (   0.3686904   0.3789818   1.6819772  )
       132        O      tau( 132) = (   0.1222508   0.0604368   1.3930584  )
       133        O      tau( 133) = (   0.1179118   0.6106013   1.3948723  )
       134        O      tau( 134) = (   0.3966368   0.4509867   1.3826334  )
       135        O      tau( 135) = (   0.1546825   0.0015702   1.6934648  )
       136        O      tau( 136) = (   0.3773232   0.9216783   1.6812421  )
       137        P      tau( 137) = (   0.7088550   0.9300633   1.6956615  )
       138        P      tau( 138) = (   0.9546391   0.6039920   1.3882016  )
       139        P      tau( 139) = (   0.7861313   0.0539690   1.3808971  )
       140        P      tau( 140) = (   0.5320716   0.3863344   1.7004805  )
       141        O      tau( 141) = (   0.6333026   0.8679629   1.5520824  )
       142        O      tau( 142) = (   0.8777710   0.6729500   1.5224461  )
       143        O      tau( 143) = (   0.8617708   0.1227652   1.5169485  )
       144        O      tau( 144) = (   0.6127642   0.3270143   1.5579163  )
       145        O      tau( 145) = (   0.6483538   0.8329242   1.8103769  )
       146        O      tau( 146) = (   0.8943529   0.6911253   1.2630188  )
       147        O      tau( 147) = (   0.8429851   0.1446062   1.2562262  )
       148        O      tau( 148) = (   0.5929067   0.2897237   1.8141651  )
       149        O      tau( 149) = (   0.5848154   0.5442225   1.6989682  )
       150        O      tau( 150) = (   0.8496775   0.9825043   1.3815819  )
       151        O      tau( 151) = (   0.8705103   0.3772225   1.6832178  )
       152        O      tau( 152) = (   0.6234977   0.0619490   1.3925952  )
       153        O      tau( 153) = (   0.6178427   0.6111075   1.3950142  )
       154        O      tau( 154) = (   0.8977226   0.4494998   1.3884974  )
       155        O      tau( 155) = (   0.6505054   0.0039779   1.6957510  )
       156        O      tau( 156) = (   0.8731762   0.9239488   1.6850968  )
       157        O      tau( 157) = (   0.8871652   0.6680921   1.8454411  )
       158        H      tau( 158) = (   0.7940650   0.7158124   1.8550683  )

     -------------------------------------------------
     Parameters for Dispersion (Grimme-D2) Correction:
     -------------------------------------------------
       atom      VdW radius       C_6     

        Ni         2.952        374.666
        Mn         2.952        374.666
        P          3.222        271.980
        O          2.536         24.284
        H          1.892          4.857

     number of k points=     1  Gaussian smearing, width (Ry)=  0.0100
                       cart. coord. in units 2pi/alat
        k(    1) = (   0.0000000   0.0000000   0.0000000), wk =   1.0000000

     Dense  grid:  1979026 G-vectors     FFT dimensions: ( 128, 144, 450)

     Smooth grid:   500628 G-vectors     FFT dimensions: (  81,  90, 288)

     Estimated max dynamical RAM per process >     333.40 MB

     Estimated total dynamical RAM >      20.84 GB

     Check: negative core charge=   -0.000002
     Generating pointlists ...
     new r_m :   0.0878 (alat units)  1.5669 (a.u.) for type    1
     new r_m :   0.0768 (alat units)  1.3703 (a.u.) for type    2
     new r_m :   0.0664 (alat units)  1.1861 (a.u.) for type    3
     new r_m :   0.0433 (alat units)  0.7737 (a.u.) for type    4
     new r_m :   0.0433 (alat units)  0.7737 (a.u.) for type    5

     Initial potential from superposition of free atoms

     starting charge    1107.8886, renormalised to    1108.0000

     negative rho (up, down):  1.549E-03 4.665E-04
 
     Adding external electric field

     Computed dipole along edir(3) : 
        Dipole                1.6140 Ry au,          4.1023 Debye
        Dipole field          0.0010 Ry au, 
 
        Potential amp.       -0.1059 Ry
        Total length         54.7057 bohr
 
 
     Adding external electric field

     Computed dipole along edir(3) : 
        Dipole                1.6140 Ry au,          4.1023 Debye
        Dipole field          0.0010 Ry au, 
 
        Potential amp.       -0.1059 Ry
        Total length         54.7057 bohr
 
     Starting wfcs are  818 randomized atomic wfcs

     total cpu time spent up to now is       11.7 secs

     Self-consistent Calculation

     iteration #  1     ecut=    50.00 Ry     beta= 0.50
     Davidson diagonalization with overlap
     ethr =  1.00E-02,  avg # of iterations =  5.5

     negative rho (up, down):  2.876E+00 5.921E-06
 
     Adding external electric field

     Computed dipole along edir(3) : 
        Dipole              -24.1290 Ry au,        -61.3297 Debye
        Dipole field         -0.0145 Ry au, 
 
        Potential amp.        1.5826 Ry
        Total length         54.7057 bohr
 
 
     Adding external electric field

     Computed dipole along edir(3) : 
        Dipole              -24.1290 Ry au,        -61.3297 Debye
        Dipole field         -0.0145 Ry au, 
 
        Potential amp.        1.5826 Ry
        Total length         54.7057 bohr
 

     total cpu time spent up to now is       41.4 secs

     total energy              =   -7897.12871156 Ry
     estimated scf accuracy    <     744.89584766 Ry

     total magnetization       =   222.00 Bohr mag/cell
     absolute magnetization    =   318.96 Bohr mag/cell

     iteration #  2     ecut=    50.00 Ry     beta= 0.50
     Davidson diagonalization with overlap
     ethr =  1.00E-02,  avg # of iterations =  9.5

     negative rho (up, down):  2.629E+00 7.687E-05
 
     Adding external electric field

     Computed dipole along edir(3) : 
        Dipole                0.1423 Ry au,          0.3616 Debye
        Dipole field          0.0001 Ry au, 
 
        Potential amp.       -0.0093 Ry
        Total length         54.7057 bohr
 
 
     Adding external electric field

     Computed dipole along edir(3) : 
        Dipole                0.1423 Ry au,          0.3616 Debye
        Dipole field          0.0001 Ry au, 
 
        Potential amp.       -0.0093 Ry
        Total length         54.7057 bohr
 

     total cpu time spent up to now is       75.2 secs

     total energy              =   -7975.49450092 Ry
     estimated scf accuracy    <    8012.51478326 Ry

     total magnetization       =   147.89 Bohr mag/cell
     absolute magnetization    =   184.27 Bohr mag/cell

     iteration #  3     ecut=    50.00 Ry     beta= 0.50
     Davidson diagonalization with overlap
     ethr =  1.00E-02,  avg # of iterations =  6.5

     negative rho (up, down):  1.774E+00 2.634E-04
 
     Adding external electric field

     Computed dipole along edir(3) : 
        Dipole               -2.3147 Ry au,         -5.8834 Debye
        Dipole field         -0.0014 Ry au, 
 
        Potential amp.        0.1518 Ry
        Total length         54.7057 bohr
 
 
     Adding external electric field

     Computed dipole along edir(3) : 
        Dipole               -2.3147 Ry au,         -5.8834 Debye
        Dipole field         -0.0014 Ry au, 
 
        Potential amp.        0.1518 Ry
        Total length         54.7057 bohr
 

     total cpu time spent up to now is       97.7 secs

     total energy              =   -8045.74320069 Ry
     estimated scf accuracy    <     565.27717567 Ry

     total magnetization       =   133.94 Bohr mag/cell
     absolute magnetization    =   175.05 Bohr mag/cell

     iteration #  4     ecut=    50.00 Ry     beta= 0.50
     Davidson diagonalization with overlap
     ethr =  1.00E-02,  avg # of iterations =  2.0

     negative rho (up, down):  1.066E+00 5.717E-05
 
     Adding external electric field

     Computed dipole along edir(3) : 
        Dipole               -2.6243 Ry au,         -6.6704 Debye
        Dipole field         -0.0016 Ry au, 
 
        Potential amp.        0.1721 Ry
        Total length         54.7057 bohr
 
 
     Adding external electric field

     Computed dipole along edir(3) : 
        Dipole               -2.6243 Ry au,         -6.6704 Debye
        Dipole field         -0.0016 Ry au, 
 
        Potential amp.        0.1721 Ry
        Total length         54.7057 bohr
 

     total cpu time spent up to now is      113.5 secs

     total energy              =   -8063.16160340 Ry
     estimated scf accuracy    <      75.66224602 Ry

     total magnetization       =   101.06 Bohr mag/cell
     absolute magnetization    =   146.78 Bohr mag/cell

     iteration #  5     ecut=    50.00 Ry     beta= 0.50
     Davidson diagonalization with overlap
     ethr =  6.83E-03,  avg # of iterations =  2.0

     negative rho (up, down):  5.802E-01 0.000E+00
 
     Adding external electric field

     Computed dipole along edir(3) : 
        Dipole               -2.8626 Ry au,         -7.2759 Debye
        Dipole field         -0.0017 Ry au, 
 
        Potential amp.        0.1878 Ry
        Total length         54.7057 bohr
 
 
     Adding external electric field

     Computed dipole along edir(3) : 
        Dipole               -2.8626 Ry au,         -7.2759 Debye
        Dipole field         -0.0017 Ry au, 
 
        Potential amp.        0.1878 Ry
        Total length         54.7057 bohr
 

     total cpu time spent up to now is      129.2 secs

     total energy              =   -8070.05449258 Ry
     estimated scf accuracy    <      71.54815310 Ry

     total magnetization       =   100.00 Bohr mag/cell
     absolute magnetization    =   133.13 Bohr mag/cell

     iteration #  6     ecut=    50.00 Ry     beta= 0.50
     Davidson diagonalization with overlap
     ethr =  6.46E-03,  avg # of iterations =  1.0

     negative rho (up, down):  1.815E-01 4.584E-06
 
     Adding external electric field

     Computed dipole along edir(3) : 
        Dipole               -3.1390 Ry au,         -7.9786 Debye
        Dipole field         -0.0019 Ry au, 
 
        Potential amp.        0.2059 Ry
        Total length         54.7057 bohr
 
 
     Adding external electric field

     Computed dipole along edir(3) : 
        Dipole               -3.1390 Ry au,         -7.9786 Debye
        Dipole field         -0.0019 Ry au, 
 
        Potential amp.        0.2059 Ry
        Total length         54.7057 bohr
 

     total cpu time spent up to now is      143.0 secs

     total energy              =   -8073.88339464 Ry
     estimated scf accuracy    <      58.95828297 Ry

     total magnetization       =    98.00 Bohr mag/cell
     absolute magnetization    =   122.86 Bohr mag/cell

     iteration #  7     ecut=    50.00 Ry     beta= 0.50
     Davidson diagonalization with overlap
     ethr =  5.32E-03,  avg # of iterations =  1.0

     negative rho (up, down):  2.188E-03 1.322E-05
 
     Adding external electric field

     Computed dipole along edir(3) : 
        Dipole               -3.5254 Ry au,         -8.9607 Debye
        Dipole field         -0.0021 Ry au, 
 
        Potential amp.        0.2312 Ry
        Total length         54.7057 bohr
 
 
     Adding external electric field

     Computed dipole along edir(3) : 
        Dipole               -3.5254 Ry au,         -8.9607 Debye
        Dipole field         -0.0021 Ry au, 
 
        Potential amp.        0.2312 Ry
        Total length         54.7057 bohr
 

     total cpu time spent up to now is      156.9 secs

     total energy              =   -8076.72176487 Ry
     estimated scf accuracy    <      38.39998512 Ry

     total magnetization       =    93.75 Bohr mag/cell
     absolute magnetization    =   110.79 Bohr mag/cell

     iteration #  8     ecut=    50.00 Ry     beta= 0.50
     Davidson diagonalization with overlap
     ethr =  3.47E-03,  avg # of iterations =  1.5

     negative rho (up, down):  2.994E-04 2.619E-05
 
     Adding external electric field

     Computed dipole along edir(3) : 
        Dipole               -3.6237 Ry au,         -9.2106 Debye
        Dipole field         -0.0022 Ry au, 
 
        Potential amp.        0.2377 Ry
        Total length         54.7057 bohr
 
 
     Adding external electric field

     Computed dipole along edir(3) : 
        Dipole               -3.6237 Ry au,         -9.2106 Debye
        Dipole field         -0.0022 Ry au, 
 
        Potential amp.        0.2377 Ry
        Total length         54.7057 bohr
 

     total cpu time spent up to now is      171.1 secs

     total energy              =   -8077.64443655 Ry
     estimated scf accuracy    <      33.05272670 Ry

     total magnetization       =    93.34 Bohr mag/cell
     absolute magnetization    =   103.74 Bohr mag/cell

     iteration #  9     ecut=    50.00 Ry     beta= 0.50
     Davidson diagonalization with overlap
     ethr =  2.98E-03,  avg # of iterations =  1.5

     negative rho (up, down):  1.017E-04 2.498E-04
 
     Adding external electric field

     Computed dipole along edir(3) : 
        Dipole               -3.7115 Ry au,         -9.4337 Debye
        Dipole field         -0.0022 Ry au, 
 
        Potential amp.        0.2434 Ry
        Total length         54.7057 bohr
 
 
     Adding external electric field

     Computed dipole along edir(3) : 
        Dipole               -3.7115 Ry au,         -9.4337 Debye
        Dipole field         -0.0022 Ry au, 
 
        Potential amp.        0.2434 Ry
        Total length         54.7057 bohr
 

     total cpu time spent up to now is      186.0 secs

     total energy              =   -8078.39979240 Ry
     estimated scf accuracy    <       3.21132705 Ry

     total magnetization       =    94.51 Bohr mag/cell
     absolute magnetization    =   103.08 Bohr mag/cell

     iteration # 10     ecut=    50.00 Ry     beta= 0.50
     Davidson diagonalization with overlap
     ethr =  2.90E-04,  avg # of iterations =  6.5

     negative rho (up, down):  1.006E-04 7.826E-04
 
     Adding external electric field

     Computed dipole along edir(3) : 
        Dipole               -3.7047 Ry au,         -9.4164 Debye
        Dipole field         -0.0022 Ry au, 
 
        Potential amp.        0.2430 Ry
        Total length         54.7057 bohr
 
 
     Adding external electric field

     Computed dipole along edir(3) : 
        Dipole               -3.7047 Ry au,         -9.4164 Debye
        Dipole field         -0.0022 Ry au, 
 
        Potential amp.        0.2430 Ry
        Total length         54.7057 bohr
 

     total cpu time spent up to now is      208.3 secs

     total energy              =   -8078.57937148 Ry
     estimated scf accuracy    <       2.58416444 Ry

     total magnetization       =    95.82 Bohr mag/cell
     absolute magnetization    =   101.47 Bohr mag/cell

     iteration # 11     ecut=    50.00 Ry     beta= 0.50
     Davidson diagonalization with overlap
     ethr =  2.33E-04,  avg # of iterations =  1.5

     negative rho (up, down):  3.168E-07 6.677E-06
 
     Adding external electric field

     Computed dipole along edir(3) : 
        Dipole               -3.5657 Ry au,         -9.0631 Debye
        Dipole field         -0.0021 Ry au, 
 
        Potential amp.        0.2339 Ry
        Total length         54.7057 bohr
 
 
     Adding external electric field

     Computed dipole along edir(3) : 
        Dipole               -3.5657 Ry au,         -9.0631 Debye
        Dipole field         -0.0021 Ry au, 
 
        Potential amp.        0.2339 Ry
        Total length         54.7057 bohr
 

     total cpu time spent up to now is      222.3 secs

     total energy              =   -8078.64069445 Ry
     estimated scf accuracy    <       3.69425867 Ry

     total magnetization       =    93.42 Bohr mag/cell
     absolute magnetization    =    97.67 Bohr mag/cell

     iteration # 12     ecut=    50.00 Ry     beta= 0.50
     Davidson diagonalization with overlap
     ethr =  2.33E-04,  avg # of iterations =  2.0

     negative rho (up, down):  1.557E-06 1.882E-05
 
     Adding external electric field

     Computed dipole along edir(3) : 
        Dipole               -3.5765 Ry au,         -9.0906 Debye
        Dipole field         -0.0021 Ry au, 
 
        Potential amp.        0.2346 Ry
        Total length         54.7057 bohr
 
 
     Adding external electric field

     Computed dipole along edir(3) : 
        Dipole               -3.5765 Ry au,         -9.0906 Debye
        Dipole field         -0.0021 Ry au, 
 
        Potential amp.        0.2346 Ry
        Total length         54.7057 bohr
 

     total cpu time spent up to now is      237.2 secs

     total energy              =   -8078.66556306 Ry
     estimated scf accuracy    <       6.73608386 Ry

     total magnetization       =    92.14 Bohr mag/cell
     absolute magnetization    =    95.34 Bohr mag/cell

     iteration # 13     ecut=    50.00 Ry     beta= 0.50
     Davidson diagonalization with overlap
     ethr =  2.33E-04,  avg # of iterations =  1.5

     negative rho (up, down):  6.489E-06 8.971E-07
 
     Adding external electric field

     Computed dipole along edir(3) : 
        Dipole               -3.5453 Ry au,         -9.0113 Debye
        Dipole field         -0.0021 Ry au, 
 
        Potential amp.        0.2325 Ry
        Total length         54.7057 bohr
 
 
     Adding external electric field

     Computed dipole along edir(3) : 
        Dipole               -3.5453 Ry au,         -9.0113 Debye
        Dipole field         -0.0021 Ry au, 
 
        Potential amp.        0.2325 Ry
        Total length         54.7057 bohr
 

     total cpu time spent up to now is      251.3 secs

     total energy              =   -8078.61958858 Ry
     estimated scf accuracy    <      11.47526432 Ry

     total magnetization       =    92.15 Bohr mag/cell
     absolute magnetization    =    95.46 Bohr mag/cell

     iteration # 14     ecut=    50.00 Ry     beta= 0.50
     Davidson diagonalization with overlap
     ethr =  2.33E-04,  avg # of iterations =  1.5

     negative rho (up, down):  1.767E-06 5.415E-07
 
     Adding external electric field

     Computed dipole along edir(3) : 
        Dipole               -3.5571 Ry au,         -9.0413 Debye
        Dipole field         -0.0021 Ry au, 
 
        Potential amp.        0.2333 Ry
        Total length         54.7057 bohr
 
 
     Adding external electric field

     Computed dipole along edir(3) : 
        Dipole               -3.5571 Ry au,         -9.0413 Debye
        Dipole field         -0.0021 Ry au, 
 
        Potential amp.        0.2333 Ry
        Total length         54.7057 bohr
 

     total cpu time spent up to now is      265.1 secs

     total energy              =   -8078.53289282 Ry
     estimated scf accuracy    <      22.00863746 Ry

     total magnetization       =    93.40 Bohr mag/cell
     absolute magnetization    =    97.22 Bohr mag/cell

     iteration # 15     ecut=    50.00 Ry     beta= 0.50
     Davidson diagonalization with overlap
     ethr =  2.33E-04,  avg # of iterations =  1.5

     negative rho (up, down):  7.819E-07 6.360E-06
 
     Adding external electric field

     Computed dipole along edir(3) : 
        Dipole               -3.6802 Ry au,         -9.3540 Debye
        Dipole field         -0.0022 Ry au, 
 
        Potential amp.        0.2414 Ry
        Total length         54.7057 bohr
 
 
     Adding external electric field

     Computed dipole along edir(3) : 
        Dipole               -3.6802 Ry au,         -9.3540 Debye
        Dipole field         -0.0022 Ry au, 
 
        Potential amp.        0.2414 Ry
        Total length         54.7057 bohr
 

     total cpu time spent up to now is      278.8 secs

     total energy              =   -8078.62357487 Ry
     estimated scf accuracy    <       7.16539789 Ry

     total magnetization       =    90.48 Bohr mag/cell
     absolute magnetization    =    94.32 Bohr mag/cell

     iteration # 16     ecut=    50.00 Ry     beta= 0.50
     Davidson diagonalization with overlap
     ethr =  2.33E-04,  avg # of iterations =  1.5

     negative rho (up, down):  4.293E-06 2.361E-06
 
     Adding external electric field

     Computed dipole along edir(3) : 
        Dipole               -3.6588 Ry au,         -9.2997 Debye
        Dipole field         -0.0022 Ry au, 
 
        Potential amp.        0.2400 Ry
        Total length         54.7057 bohr
 
 
     Adding external electric field

     Computed dipole along edir(3) : 
        Dipole               -3.6588 Ry au,         -9.2997 Debye
        Dipole field         -0.0022 Ry au, 
 
        Potential amp.        0.2400 Ry
        Total length         54.7057 bohr
 

     total cpu time spent up to now is      293.1 secs

     total energy              =   -8078.60911743 Ry
     estimated scf accuracy    <       6.95282488 Ry

     total magnetization       =    91.41 Bohr mag/cell
     absolute magnetization    =    94.54 Bohr mag/cell

     iteration # 17     ecut=    50.00 Ry     beta= 0.50
     Davidson diagonalization with overlap
     ethr =  2.33E-04,  avg # of iterations =  1.5

     negative rho (up, down):  1.423E-05 1.093E-05
 
     Adding external electric field

     Computed dipole along edir(3) : 
        Dipole               -3.6677 Ry au,         -9.3225 Debye
        Dipole field         -0.0022 Ry au, 
 
        Potential amp.        0.2406 Ry
        Total length         54.7057 bohr
 
 
     Adding external electric field

     Computed dipole along edir(3) : 
        Dipole               -3.6677 Ry au,         -9.3225 Debye
        Dipole field         -0.0022 Ry au, 
 
        Potential amp.        0.2406 Ry
        Total length         54.7057 bohr
 

     total cpu time spent up to now is      306.6 secs

     total energy              =   -8078.61185476 Ry
     estimated scf accuracy    <       9.27285014 Ry

     total magnetization       =    93.64 Bohr mag/cell
     absolute magnetization    =    97.27 Bohr mag/cell

     iteration # 18     ecut=    50.00 Ry     beta= 0.50
     Davidson diagonalization with overlap
     ethr =  2.33E-04,  avg # of iterations =  1.0

     negative rho (up, down):  1.726E-05 2.050E-05
 
     Adding external electric field

     Computed dipole along edir(3) : 
        Dipole               -3.7580 Ry au,         -9.5520 Debye
        Dipole field         -0.0023 Ry au, 
 
        Potential amp.        0.2465 Ry
        Total length         54.7057 bohr
 
 
     Adding external electric field

     Computed dipole along edir(3) : 
        Dipole               -3.7580 Ry au,         -9.5520 Debye
        Dipole field         -0.0023 Ry au, 
 
        Potential amp.        0.2465 Ry
        Total length         54.7057 bohr
 

     total cpu time spent up to now is      319.3 secs

     total energy              =   -8078.64696161 Ry
     estimated scf accuracy    <       6.95961288 Ry

     total magnetization       =    92.67 Bohr mag/cell
     absolute magnetization    =    96.77 Bohr mag/cell

     iteration # 19     ecut=    50.00 Ry     beta= 0.50
     Davidson diagonalization with overlap
     ethr =  2.33E-04,  avg # of iterations =  1.0

     negative rho (up, down):  5.361E-05 2.470E-05
 
     Adding external electric field

     Computed dipole along edir(3) : 
        Dipole               -3.8715 Ry au,         -9.8403 Debye
        Dipole field         -0.0023 Ry au, 
 
        Potential amp.        0.2539 Ry
        Total length         54.7057 bohr
 
 
     Adding external electric field

     Computed dipole along edir(3) : 
        Dipole               -3.8715 Ry au,         -9.8403 Debye
        Dipole field         -0.0023 Ry au, 
 
        Potential amp.        0.2539 Ry
        Total length         54.7057 bohr
 

     total cpu time spent up to now is      333.0 secs

     total energy              =   -8078.75708854 Ry
     estimated scf accuracy    <      18.11580919 Ry

     total magnetization       =    95.44 Bohr mag/cell
     absolute magnetization    =    99.23 Bohr mag/cell

     iteration # 20     ecut=    50.00 Ry     beta= 0.50
     Davidson diagonalization with overlap
     ethr =  2.33E-04,  avg # of iterations =  1.5

     negative rho (up, down):  8.679E-05 6.638E-06
 
     Adding external electric field

     Computed dipole along edir(3) : 
        Dipole               -3.9462 Ry au,        -10.0303 Debye
        Dipole field         -0.0024 Ry au, 
 
        Potential amp.        0.2588 Ry
        Total length         54.7057 bohr
 
 
     Adding external electric field

     Computed dipole along edir(3) : 
        Dipole               -3.9462 Ry au,        -10.0303 Debye
        Dipole field         -0.0024 Ry au, 
 
        Potential amp.        0.2588 Ry
        Total length         54.7057 bohr
 

     total cpu time spent up to now is      348.2 secs

     total energy              =   -8078.66018905 Ry
     estimated scf accuracy    <      28.90905134 Ry

     total magnetization       =    96.01 Bohr mag/cell
     absolute magnetization    =    99.86 Bohr mag/cell

     iteration # 21     ecut=    50.00 Ry     beta= 0.50
     Davidson diagonalization with overlap
     ethr =  2.33E-04,  avg # of iterations =  1.5

     negative rho (up, down):  1.322E-05 2.611E-06
 
     Adding external electric field

     Computed dipole along edir(3) : 
        Dipole               -3.9189 Ry au,         -9.9610 Debye
        Dipole field         -0.0023 Ry au, 
 
        Potential amp.        0.2570 Ry
        Total length         54.7057 bohr
 
 
     Adding external electric field

     Computed dipole along edir(3) : 
        Dipole               -3.9189 Ry au,         -9.9610 Debye
        Dipole field         -0.0023 Ry au, 
 
        Potential amp.        0.2570 Ry
        Total length         54.7057 bohr
 

     total cpu time spent up to now is      363.3 secs

     total energy              =   -8078.70171295 Ry
     estimated scf accuracy    <      16.38610682 Ry

     total magnetization       =    96.92 Bohr mag/cell
     absolute magnetization    =   100.76 Bohr mag/cell

     iteration # 22     ecut=    50.00 Ry     beta= 0.50
     Davidson diagonalization with overlap
     ethr =  2.33E-04,  avg # of iterations =  2.0
 
     Adding external electric field

     Computed dipole along edir(3) : 
        Dipole               -3.7963 Ry au,         -9.6492 Debye
        Dipole field         -0.0023 Ry au, 
 
        Potential amp.        0.2490 Ry
        Total length         54.7057 bohr
 
 
     Adding external electric field

     Computed dipole along edir(3) : 
        Dipole               -3.7963 Ry au,         -9.6492 Debye
        Dipole field         -0.0023 Ry au, 
 
        Potential amp.        0.2490 Ry
        Total length         54.7057 bohr
 

     total cpu time spent up to now is      379.4 secs

     total energy              =   -8078.80300150 Ry
     estimated scf accuracy    <      30.10700160 Ry

     total magnetization       =    95.81 Bohr mag/cell
     absolute magnetization    =    99.09 Bohr mag/cell

     iteration # 23     ecut=    50.00 Ry     beta= 0.50
     Davidson diagonalization with overlap
     ethr =  2.33E-04,  avg # of iterations =  2.0
 
     Adding external electric field

     Computed dipole along edir(3) : 
        Dipole               -3.4726 Ry au,         -8.8265 Debye
        Dipole field         -0.0021 Ry au, 
 
        Potential amp.        0.2278 Ry
        Total length         54.7057 bohr
 
 
     Adding external electric field

     Computed dipole along edir(3) : 
        Dipole               -3.4726 Ry au,         -8.8265 Debye
        Dipole field         -0.0021 Ry au, 
 
        Potential amp.        0.2278 Ry
        Total length         54.7057 bohr
 

     total cpu time spent up to now is      395.6 secs

     total energy              =   -8078.57292528 Ry
     estimated scf accuracy    <      18.07258082 Ry

     total magnetization       =    95.72 Bohr mag/cell
     absolute magnetization    =    98.03 Bohr mag/cell

     iteration # 24     ecut=    50.00 Ry     beta= 0.50
     Davidson diagonalization with overlap
     ethr =  2.33E-04,  avg # of iterations =  2.0
 
     Adding external electric field

     Computed dipole along edir(3) : 
        Dipole               -3.3818 Ry au,         -8.5957 Debye
        Dipole field         -0.0020 Ry au, 
 
        Potential amp.        0.2218 Ry
        Total length         54.7057 bohr
 
 
     Adding external electric field

     Computed dipole along edir(3) : 
        Dipole               -3.3818 Ry au,         -8.5957 Debye
        Dipole field         -0.0020 Ry au, 
 
        Potential amp.        0.2218 Ry
        Total length         54.7057 bohr
 

     total cpu time spent up to now is      411.5 secs

     total energy              =   -8078.44606241 Ry
     estimated scf accuracy    <      74.86296671 Ry

     total magnetization       =    88.17 Bohr mag/cell
     absolute magnetization    =    90.44 Bohr mag/cell

     iteration # 25     ecut=    50.00 Ry     beta= 0.50
     Davidson diagonalization with overlap
     ethr =  2.33E-04,  avg # of iterations =  2.0
 
     Adding external electric field

     Computed dipole along edir(3) : 
        Dipole               -3.2581 Ry au,         -8.2813 Debye
        Dipole field         -0.0020 Ry au, 
 
        Potential amp.        0.2137 Ry
        Total length         54.7057 bohr
 
 
     Adding external electric field

     Computed dipole along edir(3) : 
        Dipole               -3.2581 Ry au,         -8.2813 Debye
        Dipole field         -0.0020 Ry au, 
 
        Potential amp.        0.2137 Ry
        Total length         54.7057 bohr
 

     total cpu time spent up to now is      427.2 secs

     total energy              =   -8078.46257926 Ry
     estimated scf accuracy    <      31.35630335 Ry

     total magnetization       =    87.98 Bohr mag/cell
     absolute magnetization    =    94.68 Bohr mag/cell

     iteration # 26     ecut=    50.00 Ry     beta= 0.50
     Davidson diagonalization with overlap
     ethr =  2.33E-04,  avg # of iterations =  2.0
 
     Adding external electric field

     Computed dipole along edir(3) : 
        Dipole               -3.1189 Ry au,         -7.9275 Debye
        Dipole field         -0.0019 Ry au, 
 
        Potential amp.        0.2046 Ry
        Total length         54.7057 bohr
 
 
     Adding external electric field

     Computed dipole along edir(3) : 
        Dipole               -3.1189 Ry au,         -7.9275 Debye
        Dipole field         -0.0019 Ry au, 
 
        Potential amp.        0.2046 Ry
        Total length         54.7057 bohr
 

     total cpu time spent up to now is      443.1 secs

     total energy              =   -8078.52796264 Ry
     estimated scf accuracy    <      12.02389368 Ry

     total magnetization       =    90.68 Bohr mag/cell
     absolute magnetization    =    96.12 Bohr mag/cell

     iteration # 27     ecut=    50.00 Ry     beta= 0.50
     Davidson diagonalization with overlap
     ethr =  2.33E-04,  avg # of iterations =  2.0
 
     Adding external electric field

     Computed dipole along edir(3) : 
        Dipole               -2.8480 Ry au,         -7.2388 Debye
        Dipole field         -0.0017 Ry au, 
 
        Potential amp.        0.1868 Ry
        Total length         54.7057 bohr
 
 
     Adding external electric field

     Computed dipole along edir(3) : 
        Dipole               -2.8480 Ry au,         -7.2388 Debye
        Dipole field         -0.0017 Ry au, 
 
        Potential amp.        0.1868 Ry
        Total length         54.7057 bohr
 

     total cpu time spent up to now is      458.7 secs

     total energy              =   -8078.40112142 Ry
     estimated scf accuracy    <      19.17033574 Ry

     total magnetization       =    88.09 Bohr mag/cell
     absolute magnetization    =    97.00 Bohr mag/cell

     iteration # 28     ecut=    50.00 Ry     beta= 0.50
     Davidson diagonalization with overlap
     ethr =  2.33E-04,  avg # of iterations =  2.0
 
     Adding external electric field

     Computed dipole along edir(3) : 
        Dipole               -2.7870 Ry au,         -7.0839 Debye
        Dipole field         -0.0017 Ry au, 
 
        Potential amp.        0.1828 Ry
        Total length         54.7057 bohr
 
 
     Adding external electric field

     Computed dipole along edir(3) : 
        Dipole               -2.7870 Ry au,         -7.0839 Debye
        Dipole field         -0.0017 Ry au, 
 
        Potential amp.        0.1828 Ry
        Total length         54.7057 bohr
 

     total cpu time spent up to now is      474.7 secs

     total energy              =   -8078.29076118 Ry
     estimated scf accuracy    <      15.63903935 Ry

     total magnetization       =    86.25 Bohr mag/cell
     absolute magnetization    =    96.79 Bohr mag/cell

     iteration # 29     ecut=    50.00 Ry     beta= 0.50
     Davidson diagonalization with overlap
     ethr =  2.33E-04,  avg # of iterations =  2.0
 
     Adding external electric field

     Computed dipole along edir(3) : 
        Dipole               -2.6091 Ry au,         -6.6317 Debye
        Dipole field         -0.0016 Ry au, 
 
        Potential amp.        0.1711 Ry
        Total length         54.7057 bohr
 
 
     Adding external electric field

     Computed dipole along edir(3) : 
        Dipole               -2.6091 Ry au,         -6.6317 Debye
        Dipole field         -0.0016 Ry au, 
 
        Potential amp.        0.1711 Ry
        Total length         54.7057 bohr
 

     total cpu time spent up to now is      490.3 secs

     total energy              =   -8078.49052925 Ry
     estimated scf accuracy    <      11.66543389 Ry

     total magnetization       =    86.21 Bohr mag/cell
     absolute magnetization    =    96.80 Bohr mag/cell

     iteration # 30     ecut=    50.00 Ry     beta= 0.50
     Davidson diagonalization with overlap
     ethr =  2.33E-04,  avg # of iterations =  1.5
 
     Adding external electric field

     Computed dipole along edir(3) : 
        Dipole               -2.4181 Ry au,         -6.1461 Debye
        Dipole field         -0.0014 Ry au, 
 
        Potential amp.        0.1586 Ry
        Total length         54.7057 bohr
 
 
     Adding external electric field

     Computed dipole along edir(3) : 
        Dipole               -2.4181 Ry au,         -6.1461 Debye
        Dipole field         -0.0014 Ry au, 
 
        Potential amp.        0.1586 Ry
        Total length         54.7057 bohr
 

     total cpu time spent up to now is      505.1 secs

     total energy              =   -8078.22686782 Ry
     estimated scf accuracy    <       8.97972859 Ry

     total magnetization       =    87.02 Bohr mag/cell
     absolute magnetization    =    97.79 Bohr mag/cell

     iteration # 31     ecut=    50.00 Ry     beta= 0.50
     Davidson diagonalization with overlap
     ethr =  2.33E-04,  avg # of iterations =  2.0
 
     Adding external electric field

     Computed dipole along edir(3) : 
        Dipole               -2.4890 Ry au,         -6.3264 Debye
        Dipole field         -0.0015 Ry au, 
 
        Potential amp.        0.1632 Ry
        Total length         54.7057 bohr
 
 
     Adding external electric field

     Computed dipole along edir(3) : 
        Dipole               -2.4890 Ry au,         -6.3264 Debye
        Dipole field         -0.0015 Ry au, 
 
        Potential amp.        0.1632 Ry
        Total length         54.7057 bohr
 

     total cpu time spent up to now is      521.2 secs

     total energy              =   -8078.29921980 Ry
     estimated scf accuracy    <      10.06404992 Ry

     total magnetization       =    89.18 Bohr mag/cell
     absolute magnetization    =    92.10 Bohr mag/cell

     iteration # 32     ecut=    50.00 Ry     beta= 0.50
     Davidson diagonalization with overlap
     ethr =  2.33E-04,  avg # of iterations =  2.0
 
     Adding external electric field

     Computed dipole along edir(3) : 
        Dipole               -2.3842 Ry au,         -6.0602 Debye
        Dipole field         -0.0014 Ry au, 
 
        Potential amp.        0.1564 Ry
        Total length         54.7057 bohr
 
 
     Adding external electric field

     Computed dipole along edir(3) : 
        Dipole               -2.3842 Ry au,         -6.0602 Debye
        Dipole field         -0.0014 Ry au, 
 
        Potential amp.        0.1564 Ry
        Total length         54.7057 bohr
 

     total cpu time spent up to now is      536.9 secs

     total energy              =   -8078.52741345 Ry
     estimated scf accuracy    <       1.34575078 Ry

     total magnetization       =    92.65 Bohr mag/cell
     absolute magnetization    =    96.10 Bohr mag/cell

     iteration # 33     ecut=    50.00 Ry     beta= 0.50
     Davidson diagonalization with overlap
     ethr =  1.21E-04,  avg # of iterations =  2.0
 
     Adding external electric field

     Computed dipole along edir(3) : 
        Dipole               -2.3197 Ry au,         -5.8961 Debye
        Dipole field         -0.0014 Ry au, 
 
        Potential amp.        0.1521 Ry
        Total length         54.7057 bohr
 
 
     Adding external electric field

     Computed dipole along edir(3) : 
        Dipole               -2.3197 Ry au,         -5.8961 Debye
        Dipole field         -0.0014 Ry au, 
 
        Potential amp.        0.1521 Ry
        Total length         54.7057 bohr
 

     total cpu time spent up to now is      552.3 secs

     total energy              =   -8078.62753452 Ry
     estimated scf accuracy    <       1.18995524 Ry

     total magnetization       =    93.52 Bohr mag/cell
     absolute magnetization    =    97.00 Bohr mag/cell

     iteration # 34     ecut=    50.00 Ry     beta= 0.50
     Davidson diagonalization with overlap
     ethr =  1.07E-04,  avg # of iterations =  1.5
 
     Adding external electric field

     Computed dipole along edir(3) : 
        Dipole               -2.3314 Ry au,         -5.9259 Debye
        Dipole field         -0.0014 Ry au, 
 
        Potential amp.        0.1529 Ry
        Total length         54.7057 bohr
 
 
     Adding external electric field

     Computed dipole along edir(3) : 
        Dipole               -2.3314 Ry au,         -5.9259 Debye
        Dipole field         -0.0014 Ry au, 
 
        Potential amp.        0.1529 Ry
        Total length         54.7057 bohr
 

     total cpu time spent up to now is      567.1 secs

     total energy              =   -8078.64203826 Ry
     estimated scf accuracy    <       1.60400740 Ry

     total magnetization       =    92.74 Bohr mag/cell
     absolute magnetization    =    95.74 Bohr mag/cell

     iteration # 35     ecut=    50.00 Ry     beta= 0.50
     Davidson diagonalization with overlap
     ethr =  1.07E-04,  avg # of iterations =  2.0
 
     Adding external electric field

     Computed dipole along edir(3) : 
        Dipole               -2.3153 Ry au,         -5.8849 Debye
        Dipole field         -0.0014 Ry au, 
 
        Potential amp.        0.1519 Ry
        Total length         54.7057 bohr
 
 
     Adding external electric field

     Computed dipole along edir(3) : 
        Dipole               -2.3153 Ry au,         -5.8849 Debye
        Dipole field         -0.0014 Ry au, 
 
        Potential amp.        0.1519 Ry
        Total length         54.7057 bohr
 

     total cpu time spent up to now is      582.3 secs

     total energy              =   -8078.63767415 Ry
     estimated scf accuracy    <       1.16093219 Ry

     total magnetization       =    93.71 Bohr mag/cell
     absolute magnetization    =    96.64 Bohr mag/cell

     iteration # 36     ecut=    50.00 Ry     beta= 0.50
     Davidson diagonalization with overlap
     ethr =  1.05E-04,  avg # of iterations =  1.5
 
     Adding external electric field

     Computed dipole along edir(3) : 
        Dipole               -2.2296 Ry au,         -5.6670 Debye
        Dipole field         -0.0013 Ry au, 
 
        Potential amp.        0.1462 Ry
        Total length         54.7057 bohr
 
 
     Adding external electric field

     Computed dipole along edir(3) : 
        Dipole               -2.2296 Ry au,         -5.6670 Debye
        Dipole field         -0.0013 Ry au, 
 
        Potential amp.        0.1462 Ry
        Total length         54.7057 bohr
 

     total cpu time spent up to now is      596.3 secs

     total energy              =   -8078.63115801 Ry
     estimated scf accuracy    <       0.72930718 Ry

     total magnetization       =    93.49 Bohr mag/cell
     absolute magnetization    =    96.72 Bohr mag/cell

     iteration # 37     ecut=    50.00 Ry     beta= 0.50
     Davidson diagonalization with overlap
     ethr =  6.58E-05,  avg # of iterations =  3.0
 
     Adding external electric field

     Computed dipole along edir(3) : 
        Dipole               -2.1863 Ry au,         -5.5570 Debye
        Dipole field         -0.0013 Ry au, 
 
        Potential amp.        0.1434 Ry
        Total length         54.7057 bohr
 
 
     Adding external electric field

     Computed dipole along edir(3) : 
        Dipole               -2.1863 Ry au,         -5.5570 Debye
        Dipole field         -0.0013 Ry au, 
 
        Potential amp.        0.1434 Ry
        Total length         54.7057 bohr
 

     total cpu time spent up to now is      612.9 secs

     total energy              =   -8078.63757652 Ry
     estimated scf accuracy    <       0.26338537 Ry

     total magnetization       =    92.79 Bohr mag/cell
     absolute magnetization    =    97.10 Bohr mag/cell

     iteration # 38     ecut=    50.00 Ry     beta= 0.50
     Davidson diagonalization with overlap
     c_bands:  1 eigenvalues not converged
     ethr =  2.38E-05,  avg # of iterations = 21.5
 
     Adding external electric field

     Computed dipole along edir(3) : 
        Dipole               -2.0794 Ry au,         -5.2853 Debye
        Dipole field         -0.0012 Ry au, 
 
        Potential amp.        0.1364 Ry
        Total length         54.7057 bohr
 
 
     Adding external electric field

     Computed dipole along edir(3) : 
        Dipole               -2.0794 Ry au,         -5.2853 Debye
        Dipole field         -0.0012 Ry au, 
 
        Potential amp.        0.1364 Ry
        Total length         54.7057 bohr
 

     total cpu time spent up to now is      652.1 secs

     total energy              =   -8078.63804255 Ry
     estimated scf accuracy    <       0.29793818 Ry

     total magnetization       =    92.90 Bohr mag/cell
     absolute magnetization    =    96.91 Bohr mag/cell

     iteration # 39     ecut=    50.00 Ry     beta= 0.50
     Davidson diagonalization with overlap
     ethr =  2.38E-05,  avg # of iterations =  2.5
 
     Adding external electric field

     Computed dipole along edir(3) : 
        Dipole               -1.9626 Ry au,         -4.9884 Debye
        Dipole field         -0.0012 Ry au, 
 
        Potential amp.        0.1287 Ry
        Total length         54.7057 bohr
 
 
     Adding external electric field

     Computed dipole along edir(3) : 
        Dipole               -1.9626 Ry au,         -4.9884 Debye
        Dipole field         -0.0012 Ry au, 
 
        Potential amp.        0.1287 Ry
        Total length         54.7057 bohr
 

     total cpu time spent up to now is      668.0 secs

     total energy              =   -8078.64122920 Ry
     estimated scf accuracy    <       0.29810249 Ry

     total magnetization       =    92.46 Bohr mag/cell
     absolute magnetization    =    96.91 Bohr mag/cell

     iteration # 40     ecut=    50.00 Ry     beta= 0.50
     Davidson diagonalization with overlap
     ethr =  2.38E-05,  avg # of iterations =  1.5
 
     Adding external electric field

     Computed dipole along edir(3) : 
        Dipole               -1.9832 Ry au,         -5.0409 Debye
        Dipole field         -0.0012 Ry au, 
 
        Potential amp.        0.1301 Ry
        Total length         54.7057 bohr
 
 
     Adding external electric field

     Computed dipole along edir(3) : 
        Dipole               -1.9832 Ry au,         -5.0409 Debye
        Dipole field         -0.0012 Ry au, 
 
        Potential amp.        0.1301 Ry
        Total length         54.7057 bohr
 

     total cpu time spent up to now is      683.2 secs

     total energy              =   -8078.64282311 Ry
     estimated scf accuracy    <       0.35734530 Ry

     total magnetization       =    92.13 Bohr mag/cell
     absolute magnetization    =    96.78 Bohr mag/cell

     iteration # 41     ecut=    50.00 Ry     beta= 0.50
     Davidson diagonalization with overlap
     ethr =  2.38E-05,  avg # of iterations =  1.5
 
     Adding external electric field

     Computed dipole along edir(3) : 
        Dipole               -1.9518 Ry au,         -4.9611 Debye
        Dipole field         -0.0012 Ry au, 
 
        Potential amp.        0.1280 Ry
        Total length         54.7057 bohr
 
 
     Adding external electric field

     Computed dipole along edir(3) : 
        Dipole               -1.9518 Ry au,         -4.9611 Debye
        Dipole field         -0.0012 Ry au, 
 
        Potential amp.        0.1280 Ry
        Total length         54.7057 bohr
 

     total cpu time spent up to now is      697.8 secs

     total energy              =   -8078.63647753 Ry
     estimated scf accuracy    <       0.40025079 Ry

     total magnetization       =    91.98 Bohr mag/cell
     absolute magnetization    =    96.62 Bohr mag/cell

     iteration # 42     ecut=    50.00 Ry     beta= 0.50
     Davidson diagonalization with overlap
     ethr =  2.38E-05,  avg # of iterations =  2.0
 
     Adding external electric field

     Computed dipole along edir(3) : 
        Dipole               -2.0314 Ry au,         -5.1632 Debye
        Dipole field         -0.0012 Ry au, 
 
        Potential amp.        0.1332 Ry
        Total length         54.7057 bohr
 
 
     Adding external electric field

     Computed dipole along edir(3) : 
        Dipole               -2.0314 Ry au,         -5.1632 Debye
        Dipole field         -0.0012 Ry au, 
 
        Potential amp.        0.1332 Ry
        Total length         54.7057 bohr
 

     total cpu time spent up to now is      713.2 secs

     total energy              =   -8078.63106913 Ry
     estimated scf accuracy    <       0.51754081 Ry

     total magnetization       =    91.02 Bohr mag/cell
     absolute magnetization    =    95.57 Bohr mag/cell

     iteration # 43     ecut=    50.00 Ry     beta= 0.50
     Davidson diagonalization with overlap
     ethr =  2.38E-05,  avg # of iterations =  1.5
 
     Adding external electric field

     Computed dipole along edir(3) : 
        Dipole               -2.0236 Ry au,         -5.1434 Debye
        Dipole field         -0.0012 Ry au, 
 
        Potential amp.        0.1327 Ry
        Total length         54.7057 bohr
 
 
     Adding external electric field

     Computed dipole along edir(3) : 
        Dipole               -2.0236 Ry au,         -5.1434 Debye
        Dipole field         -0.0012 Ry au, 
 
        Potential amp.        0.1327 Ry
        Total length         54.7057 bohr
 

     total cpu time spent up to now is      727.8 secs

     total energy              =   -8078.64132878 Ry
     estimated scf accuracy    <       0.34514566 Ry

     total magnetization       =    92.00 Bohr mag/cell
     absolute magnetization    =    96.62 Bohr mag/cell

     iteration # 44     ecut=    50.00 Ry     beta= 0.50
     Davidson diagonalization with overlap
     ethr =  2.38E-05,  avg # of iterations =  1.5
 
     Adding external electric field

     Computed dipole along edir(3) : 
        Dipole               -2.0210 Ry au,         -5.1368 Debye
        Dipole field         -0.0012 Ry au, 
 
        Potential amp.        0.1326 Ry
        Total length         54.7057 bohr
 
 
     Adding external electric field

     Computed dipole along edir(3) : 
        Dipole               -2.0210 Ry au,         -5.1368 Debye
        Dipole field         -0.0012 Ry au, 
 
        Potential amp.        0.1326 Ry
        Total length         54.7057 bohr
 

     total cpu time spent up to now is      742.4 secs

     total energy              =   -8078.64152569 Ry
     estimated scf accuracy    <       0.34303417 Ry

     total magnetization       =    92.14 Bohr mag/cell
     absolute magnetization    =    96.67 Bohr mag/cell

     iteration # 45     ecut=    50.00 Ry     beta= 0.50
     Davidson diagonalization with overlap
     ethr =  2.38E-05,  avg # of iterations =  1.0
 
     Adding external electric field

     Computed dipole along edir(3) : 
        Dipole               -2.1199 Ry au,         -5.3881 Debye
        Dipole field         -0.0013 Ry au, 
 
        Potential amp.        0.1390 Ry
        Total length         54.7057 bohr
 
 
     Adding external electric field

     Computed dipole along edir(3) : 
        Dipole               -2.1199 Ry au,         -5.3881 Debye
        Dipole field         -0.0013 Ry au, 
 
        Potential amp.        0.1390 Ry
        Total length         54.7057 bohr
 

     total cpu time spent up to now is      756.5 secs

     total energy              =   -8078.64024606 Ry
     estimated scf accuracy    <       0.34859043 Ry

     total magnetization       =    92.14 Bohr mag/cell
     absolute magnetization    =    96.65 Bohr mag/cell

     iteration # 46     ecut=    50.00 Ry     beta= 0.50
     Davidson diagonalization with overlap
     ethr =  2.38E-05,  avg # of iterations =  1.5
 
     Adding external electric field

     Computed dipole along edir(3) : 
        Dipole               -2.1222 Ry au,         -5.3941 Debye
        Dipole field         -0.0013 Ry au, 
 
        Potential amp.        0.1392 Ry
        Total length         54.7057 bohr
 
 
     Adding external electric field

     Computed dipole along edir(3) : 
        Dipole               -2.1222 Ry au,         -5.3941 Debye
        Dipole field         -0.0013 Ry au, 
 
        Potential amp.        0.1392 Ry
        Total length         54.7057 bohr
 

     total cpu time spent up to now is      771.7 secs

     total energy              =   -8078.64176798 Ry
     estimated scf accuracy    <       0.31178361 Ry

     total magnetization       =    92.29 Bohr mag/cell
     absolute magnetization    =    96.99 Bohr mag/cell

     iteration # 47     ecut=    50.00 Ry     beta= 0.50
     Davidson diagonalization with overlap
     ethr =  2.38E-05,  avg # of iterations =  1.0
 
     Adding external electric field

     Computed dipole along edir(3) : 
        Dipole               -2.0562 Ry au,         -5.2264 Debye
        Dipole field         -0.0012 Ry au, 
 
        Potential amp.        0.1349 Ry
        Total length         54.7057 bohr
 
 
     Adding external electric field

     Computed dipole along edir(3) : 
        Dipole               -2.0562 Ry au,         -5.2264 Debye
        Dipole field         -0.0012 Ry au, 
 
        Potential amp.        0.1349 Ry
        Total length         54.7057 bohr
 

     total cpu time spent up to now is      785.4 secs

     total energy              =   -8078.63862029 Ry
     estimated scf accuracy    <       0.30494369 Ry

     total magnetization       =    91.96 Bohr mag/cell
     absolute magnetization    =    96.68 Bohr mag/cell

     iteration # 48     ecut=    50.00 Ry     beta= 0.50
     Davidson diagonalization with overlap
     ethr =  2.38E-05,  avg # of iterations =  1.5
 
     Adding external electric field

     Computed dipole along edir(3) : 
        Dipole               -2.1070 Ry au,         -5.3555 Debye
        Dipole field         -0.0013 Ry au, 
 
        Potential amp.        0.1382 Ry
        Total length         54.7057 bohr
 
 
     Adding external electric field

     Computed dipole along edir(3) : 
        Dipole               -2.1070 Ry au,         -5.3555 Debye
        Dipole field         -0.0013 Ry au, 
 
        Potential amp.        0.1382 Ry
        Total length         54.7057 bohr
 

     total cpu time spent up to now is      800.4 secs

     total energy              =   -8078.63970808 Ry
     estimated scf accuracy    <       0.33047048 Ry

     total magnetization       =    92.00 Bohr mag/cell
     absolute magnetization    =    96.64 Bohr mag/cell

     iteration # 49     ecut=    50.00 Ry     beta= 0.50
     Davidson diagonalization with overlap
     ethr =  2.38E-05,  avg # of iterations =  1.0
 
     Adding external electric field

     Computed dipole along edir(3) : 
        Dipole               -2.1399 Ry au,         -5.4391 Debye
        Dipole field         -0.0013 Ry au, 
 
        Potential amp.        0.1404 Ry
        Total length         54.7057 bohr
 
 
     Adding external electric field

     Computed dipole along edir(3) : 
        Dipole               -2.1399 Ry au,         -5.4391 Debye
        Dipole field         -0.0013 Ry au, 
 
        Potential amp.        0.1404 Ry
        Total length         54.7057 bohr
 

     total cpu time spent up to now is      813.8 secs

     total energy              =   -8078.63775694 Ry
     estimated scf accuracy    <       0.22998420 Ry

     total magnetization       =    92.14 Bohr mag/cell
     absolute magnetization    =    96.81 Bohr mag/cell

     iteration # 50     ecut=    50.00 Ry     beta= 0.50
     Davidson diagonalization with overlap
     ethr =  2.08E-05,  avg # of iterations =  1.0
 
     Adding external electric field

     Computed dipole along edir(3) : 
        Dipole               -2.0499 Ry au,         -5.2103 Debye
        Dipole field         -0.0012 Ry au, 
 
        Potential amp.        0.1344 Ry
        Total length         54.7057 bohr
 
 
     Adding external electric field

     Computed dipole along edir(3) : 
        Dipole               -2.0499 Ry au,         -5.2103 Debye
        Dipole field         -0.0012 Ry au, 
 
        Potential amp.        0.1344 Ry
        Total length         54.7057 bohr
 

     total cpu time spent up to now is      827.2 secs

     total energy              =   -8078.63714986 Ry
     estimated scf accuracy    <       0.12765253 Ry

     total magnetization       =    92.03 Bohr mag/cell
     absolute magnetization    =    96.70 Bohr mag/cell

     iteration # 51     ecut=    50.00 Ry     beta= 0.50
     Davidson diagonalization with overlap
     ethr =  1.15E-05,  avg # of iterations =  1.5
 
     Adding external electric field

     Computed dipole along edir(3) : 
        Dipole               -1.8576 Ry au,         -4.7215 Debye
        Dipole field         -0.0011 Ry au, 
 
        Potential amp.        0.1218 Ry
        Total length         54.7057 bohr
 
 
     Adding external electric field

     Computed dipole along edir(3) : 
        Dipole               -1.8576 Ry au,         -4.7215 Debye
        Dipole field         -0.0011 Ry au, 
 
        Potential amp.        0.1218 Ry
        Total length         54.7057 bohr
 

     total cpu time spent up to now is      842.6 secs

     total energy              =   -8078.63155903 Ry
     estimated scf accuracy    <       0.20552976 Ry

     total magnetization       =    92.10 Bohr mag/cell
     absolute magnetization    =    96.64 Bohr mag/cell

     iteration # 52     ecut=    50.00 Ry     beta= 0.50
     Davidson diagonalization with overlap
     ethr =  1.15E-05,  avg # of iterations =  1.5
 
     Adding external electric field

     Computed dipole along edir(3) : 
        Dipole               -1.8384 Ry au,         -4.6727 Debye
        Dipole field         -0.0011 Ry au, 
 
        Potential amp.        0.1206 Ry
        Total length         54.7057 bohr
 
 
     Adding external electric field

     Computed dipole along edir(3) : 
        Dipole               -1.8384 Ry au,         -4.6727 Debye
        Dipole field         -0.0011 Ry au, 
 
        Potential amp.        0.1206 Ry
        Total length         54.7057 bohr
 

     total cpu time spent up to now is      864.3 secs

     total energy              =   -8078.62900556 Ry
     estimated scf accuracy    <       0.26950106 Ry

     total magnetization       =    92.69 Bohr mag/cell
     absolute magnetization    =    96.76 Bohr mag/cell

     iteration # 53     ecut=    50.00 Ry     beta= 0.50
     Davidson diagonalization with overlap
     ethr =  1.15E-05,  avg # of iterations =  1.0
 
     Adding external electric field

     Computed dipole along edir(3) : 
        Dipole               -1.5899 Ry au,         -4.0410 Debye
        Dipole field         -0.0010 Ry au, 
 
        Potential amp.        0.1043 Ry
        Total length         54.7057 bohr
 
 
     Adding external electric field

     Computed dipole along edir(3) : 
        Dipole               -1.5899 Ry au,         -4.0410 Debye
        Dipole field         -0.0010 Ry au, 
 
        Potential amp.        0.1043 Ry
        Total length         54.7057 bohr
 

     total cpu time spent up to now is      878.6 secs

     total energy              =   -8078.62067810 Ry
     estimated scf accuracy    <       0.13057398 Ry

     total magnetization       =    92.38 Bohr mag/cell
     absolute magnetization    =    96.80 Bohr mag/cell

     iteration # 54     ecut=    50.00 Ry     beta= 0.50
     Davidson diagonalization with overlap
     ethr =  1.15E-05,  avg # of iterations =  2.5
 
     Adding external electric field

     Computed dipole along edir(3) : 
        Dipole               -1.1897 Ry au,         -3.0240 Debye
        Dipole field         -0.0007 Ry au, 
 
        Potential amp.        0.0780 Ry
        Total length         54.7057 bohr
 
 
     Adding external electric field

     Computed dipole along edir(3) : 
        Dipole               -1.1897 Ry au,         -3.0240 Debye
        Dipole field         -0.0007 Ry au, 
 
        Potential amp.        0.0780 Ry
        Total length         54.7057 bohr
 

     total cpu time spent up to now is      895.2 secs

     total energy              =   -8078.61004745 Ry
     estimated scf accuracy    <       0.08154390 Ry

     total magnetization       =    91.86 Bohr mag/cell
     absolute magnetization    =    96.24 Bohr mag/cell

     iteration # 55     ecut=    50.00 Ry     beta= 0.50
     Davidson diagonalization with overlap
     c_bands:  1 eigenvalues not converged
     c_bands:  2 eigenvalues not converged
     ethr =  7.36E-06,  avg # of iterations = 20.0

     negative rho (up, down):  1.709E-05 1.805E-05
 
     Adding external electric field

     Computed dipole along edir(3) : 
        Dipole               -0.8710 Ry au,         -2.2139 Debye
        Dipole field         -0.0005 Ry au, 
 
        Potential amp.        0.0571 Ry
        Total length         54.7057 bohr
 
 
     Adding external electric field

     Computed dipole along edir(3) : 
        Dipole               -0.8710 Ry au,         -2.2139 Debye
        Dipole field         -0.0005 Ry au, 
 
        Potential amp.        0.0571 Ry
        Total length         54.7057 bohr
 

     total cpu time spent up to now is      925.6 secs

     total energy              =   -8078.60792255 Ry
     estimated scf accuracy    <       0.09380671 Ry

     total magnetization       =    92.14 Bohr mag/cell
     absolute magnetization    =    96.59 Bohr mag/cell

     iteration # 56     ecut=    50.00 Ry     beta= 0.50
     Davidson diagonalization with overlap
     ethr =  7.36E-06,  avg # of iterations =  4.0

     negative rho (up, down):  2.668E-03 2.696E-03
 
     Adding external electric field

     Computed dipole along edir(3) : 
        Dipole               -0.4101 Ry au,         -1.0423 Debye
        Dipole field         -0.0002 Ry au, 
 
        Potential amp.        0.0269 Ry
        Total length         54.7057 bohr
 
 
     Adding external electric field

     Computed dipole along edir(3) : 
        Dipole               -0.4101 Ry au,         -1.0423 Debye
        Dipole field         -0.0002 Ry au, 
 
        Potential amp.        0.0269 Ry
        Total length         54.7057 bohr
 

     total cpu time spent up to now is      940.6 secs

     total energy              =   -8078.60544687 Ry
     estimated scf accuracy    <       0.10649776 Ry

     total magnetization       =    92.29 Bohr mag/cell
     absolute magnetization    =    96.92 Bohr mag/cell

     iteration # 57     ecut=    50.00 Ry     beta= 0.50
     Davidson diagonalization with overlap
     c_bands:  3 eigenvalues not converged
     c_bands:  2 eigenvalues not converged
     ethr =  7.36E-06,  avg # of iterations = 20.0

     negative rho (up, down):  5.550E-04 5.650E-04
 
     Adding external electric field

     Computed dipole along edir(3) : 
        Dipole               -0.5164 Ry au,         -1.3125 Debye
        Dipole field         -0.0003 Ry au, 
 
        Potential amp.        0.0339 Ry
        Total length         54.7057 bohr
 
 
     Adding external electric field

     Computed dipole along edir(3) : 
        Dipole               -0.5164 Ry au,         -1.3125 Debye
        Dipole field         -0.0003 Ry au, 
 
        Potential amp.        0.0339 Ry
        Total length         54.7057 bohr
 

     total cpu time spent up to now is      968.0 secs

     total energy              =   -8078.60477337 Ry
     estimated scf accuracy    <       0.05867204 Ry

     total magnetization       =    92.01 Bohr mag/cell
     absolute magnetization    =    96.69 Bohr mag/cell

     iteration # 58     ecut=    50.00 Ry     beta= 0.50
     Davidson diagonalization with overlap
     ethr =  5.30E-06,  avg # of iterations =  3.0

     negative rho (up, down):  2.424E-03 2.417E-03
 
     Adding external electric field

     Computed dipole along edir(3) : 
        Dipole               -0.3261 Ry au,         -0.8289 Debye
        Dipole field         -0.0002 Ry au, 
 
        Potential amp.        0.0214 Ry
        Total length         54.7057 bohr
 
 
     Adding external electric field

     Computed dipole along edir(3) : 
        Dipole               -0.3261 Ry au,         -0.8289 Debye
        Dipole field         -0.0002 Ry au, 
 
        Potential amp.        0.0214 Ry
        Total length         54.7057 bohr
 

     total cpu time spent up to now is      983.5 secs

     total energy              =   -8078.60530518 Ry
     estimated scf accuracy    <       0.03738506 Ry

     total magnetization       =    92.03 Bohr mag/cell
     absolute magnetization    =    96.60 Bohr mag/cell

     iteration # 59     ecut=    50.00 Ry     beta= 0.50
     Davidson diagonalization with overlap
     ethr =  3.37E-06,  avg # of iterations =  3.0

     negative rho (up, down):  1.606E-03 1.564E-03
 
     Adding external electric field

     Computed dipole along edir(3) : 
        Dipole               -0.3178 Ry au,         -0.8078 Debye
        Dipole field         -0.0002 Ry au, 
 
        Potential amp.        0.0208 Ry
        Total length         54.7057 bohr
 
 
     Adding external electric field

     Computed dipole along edir(3) : 
        Dipole               -0.3178 Ry au,         -0.8078 Debye
        Dipole field         -0.0002 Ry au, 
 
        Potential amp.        0.0208 Ry
        Total length         54.7057 bohr
 

     total cpu time spent up to now is      999.3 secs

     total energy              =   -8078.60584979 Ry
     estimated scf accuracy    <       0.01263783 Ry

     total magnetization       =    92.15 Bohr mag/cell
[...]
    -6.0449  -6.0281  -6.0161  -5.9893  -5.9547  -5.9378  -5.9148  -5.8952
    -5.8856  -5.8737  -5.8635  -5.8205  -5.8077  -5.7928  -5.7582  -5.7445
    -5.7200  -5.7135  -5.6922  -5.6582  -5.6285  -5.6218  -5.6098  -5.5927
    -5.5856  -5.5749  -5.5412  -5.5387  -5.5262  -5.5173  -5.4944  -5.4560
    -5.4026  -5.3747  -5.3451  -5.3028  -5.2952  -5.2819  -5.2669  -5.2187
    -5.2085  -5.1868  -5.1660  -5.1117  -5.0806  -5.0715  -5.0318  -4.9579
    -4.9382  -4.9121  -4.8963  -4.8619  -4.8395  -4.8210  -4.8083  -4.7832
    -4.6960  -4.6956  -4.6832  -4.6405  -4.6220  -4.5980  -4.4939  -4.4718
    -4.4428  -4.4334  -4.4227  -4.4077  -4.3378  -4.3102  -4.2556  -4.2430
    -4.2317  -4.2249  -4.1497  -4.1400  -4.1044  -4.0793  -4.0325  -4.0081
    -3.9337  -3.9187  -3.9012  -3.8866  -3.8727  -3.8283  -3.7881  -3.7820
    -3.7778  -3.7641  -3.7375  -3.7171  -3.6608  -3.6560  -3.6444  -3.6306
    -3.6141  -3.5839  -3.5696  -3.5616  -3.5437  -3.5385  -3.5308  -3.5075
    -3.4900  -3.4647  -3.4518  -3.4209  -3.4182  -3.4108  -3.3784  -3.3608
    -3.3583  -3.3359  -3.3129  -3.3070  -3.2816  -3.2534  -3.2351  -3.2227
    -3.1938  -3.1742  -3.1429  -3.1106  -3.1049  -3.0953  -3.0718  -3.0442
    -3.0408  -3.0142  -2.9856  -2.9616  -2.9447  -2.9245  -2.9049  -2.8678
    -2.8627  -2.8346  -2.8110  -2.7716  -2.7489  -2.7388  -2.7316  -2.7279
    -2.7158  -2.6988  -2.6943  -2.6794  -2.6766  -2.6600  -2.6358  -2.6337
    -2.6271  -2.5978  -2.5874  -2.5772  -2.5496  -2.5481  -2.5407  -2.5203
    -2.4855  -2.4751  -2.4539  -2.4391  -2.4212  -2.4149  -2.3903  -2.3739
    -2.3494  -2.3380  -2.3290  -2.3224  -2.2843  -2.2762  -2.2513  -2.2358
    -2.2207  -2.2105  -2.1777  -2.1549  -2.1365  -2.1094  -2.1068  -2.0779
    -2.0650  -2.0569  -2.0267  -2.0155  -2.0067  -1.9852  -1.9743  -1.9501
    -1.9214  -1.9182  -1.9117  -1.8933  -1.8732  -1.8634  -1.8479  -1.8434
    -1.8304  -1.7830  -1.7645  -1.7476  -1.7085  -1.7023  -1.6727  -1.6689
    -1.6511  -1.6431  -1.6200  -1.6125  -1.5786  -1.5652  -1.5501  -1.5284
    -1.4899  -1.4711  -1.4656  -1.4336  -1.4201  -1.3980  -1.3831  -1.3707
    -1.3538  -1.3453  -1.3342  -1.2750  -1.2688  -1.2274  -1.2064  -1.1627
    -1.1506  -1.1238  -1.0770  -1.0495  -1.0384  -1.0268  -0.8753  -0.8600
    -0.8320  -0.7625  -0.6818  -0.6474  -0.5092  -0.4895  -0.4466  -0.3083
    -0.2840  -0.2579  -0.0778   0.0080   0.1436   0.1564   0.1986   0.2170
     0.2262   0.2509   0.2692   0.2733   0.2792   0.2935   0.3037   0.3129
     0.3356   0.3394   0.3496   0.3559   0.3695   0.3725   0.3781   0.3858
     0.3957   0.4045   0.4124   0.4309   0.4335   0.4386   0.4463   0.4517
     0.4541   0.4733   0.4807   0.4826   0.4893   0.4944   0.4996   0.5157
     0.5240   0.5329   0.5356   0.5468   0.5678   0.5720   0.5831   0.5961
     0.6026   0.6052   0.6095   0.6281   0.6298   0.6362   0.6433   0.6597
     0.6753   0.6836   0.6900   0.6970   0.7081   0.7107   0.7236   0.7360
     0.7447   0.7487   0.7682   0.7715   0.7767   0.7883   0.7941   0.8137
     0.8158   0.8358   0.8415   0.8744   0.9062   0.9479   0.9833   0.9945
     1.0435   1.0977   1.1170   1.7294   1.7492   1.7678   1.7777   1.7863
     1.7985   1.8251   1.8433   1.8601   1.8910   1.9190   1.9381   1.9608
     1.9850   1.9954   2.0372   2.0453   2.0495   2.0619   2.0694   2.0922
     2.1221   2.1442   2.1648   2.1675   2.1710   2.1774   2.2045   2.2180
     2.2462   2.2656   2.2697   2.2725   2.2935   2.3081   2.3299   2.3527
     2.3634   2.3866   2.3998   2.4296   2.4493   2.4623   2.4783   2.4902
     2.5702   2.5821   2.6217   2.6993   2.7426   2.7704   2.8292   3.3244
     3.5011   3.6618   3.7253   3.7283   3.7549   3.8183   3.8523   3.8872
     3.9106   3.9192   3.9516   3.9709   3.9900   4.0184   4.0368   4.0413
     4.0544   4.0719   4.1079   4.1149   4.1315   4.1781   4.1964   4.2080
     4.2146   4.2222   4.2382   4.2861   4.3638   4.4140   4.5588   4.7484
     4.7771   4.8188   4.8472   4.8960   4.9499   4.9655   4.9818   5.0380
     5.0736   5.0997   5.1298   5.1544   5.1853   5.1982   5.3171   6.1182
     6.3244   6.4021   6.4769   6.5490   6.6559   6.6680   6.6839   6.8157
     6.8933   6.9104   6.9499   6.9760   7.1669   7.2436   7.2822   7.3157
     7.3495   7.3770   7.4453   7.4816   7.5345   7.5488   7.6388   7.6744
     7.7730   7.8286   7.8405   7.8787   7.9134   7.9409   7.9543   7.9796
     8.0281   8.0430   8.0787   8.1231   8.1608   8.1701   8.1961   8.2299
     8.2632   8.2815   8.3079   8.3195   8.3533   8.3552   8.3740   8.4146
     8.4297   8.4500   8.4865   8.5061   8.5244   8.5322   8.5649   8.5848
     8.5968

     the Fermi energy is     1.6567 ev

!    total energy              =   -8078.60615243 Ry
     estimated scf accuracy    <       0.00000078 Ry
     smearing contrib. (-TS)   =      -0.02210870 Ry
     internal energy E=F+TS    =   -8078.58404373 Ry

     The total energy is F=E-TS. E is the sum of the following terms:
     one-electron contribution =  -94727.28039920 Ry
     hartree contribution      =   47946.85513534 Ry
     xc contribution           =   -2177.32742898 Ry
     ewald contribution        =   40880.93882957 Ry
     Dispersion Correction     =      -1.77022924 Ry
     electric field correction =       0.00004877 Ry

     total magnetization       =    92.24 Bohr mag/cell
     absolute magnetization    =    96.76 Bohr mag/cell

     convergence has been achieved in  73 iterations

     negative rho (up, down):  1.158E-03 6.452E-04

     Forces acting on atoms (cartesian axes, Ry/au):

     atom    1 type  1   force =     0.02418066   -0.01766959    0.01976501
     atom    2 type  1   force =    -0.00200218    0.00038783   -0.00568165
     atom    3 type  2   force =    -0.03033386   -0.01571121   -0.00884412
     atom    4 type  1   force =     0.00188949   -0.00358659   -0.00470087
     atom    5 type  1   force =    -0.00369818    0.00220557   -0.00199476
     atom    6 type  1   force =     0.00246249    0.00752618   -0.00457159
     atom    7 type  1   force =     0.03196581   -0.01951310    0.01752695
     atom    8 type  2   force =    -0.00182232    0.00039665   -0.00916983
     atom    9 type  2   force =    -0.02890825   -0.01537159   -0.00884940
     atom   10 type  1   force =     0.00201774   -0.00328015   -0.00449079
     atom   11 type  1   force =    -0.00348059    0.00261639   -0.00116394
     atom   12 type  1   force =     0.00368733    0.00683245   -0.00402479
     atom   13 type  3   force =     0.00211907    0.00072496   -0.00764267
     atom   14 type  3   force =    -0.02975761    0.04989424   -0.06596815
     atom   15 type  3   force =     0.03466385    0.03761995   -0.05982102
     atom   16 type  3   force =    -0.00441407    0.00309780   -0.00100229
     atom   17 type  4   force =    -0.00199132    0.00133705    0.00275194
     atom   18 type  4   force =    -0.00165384   -0.00510818    0.02733741
     atom   19 type  4   force =     0.00398354    0.00282274    0.02948547
     atom   20 type  4   force =     0.00008290   -0.00275439   -0.00491624
     atom   21 type  4   force =    -0.00304486   -0.00231091    0.00344836
     atom   22 type  4   force =     0.00471329   -0.00329563    0.03425822
     atom   23 type  4   force =    -0.00598494   -0.00109811    0.03248536
     atom   24 type  4   force =     0.00070619   -0.00104717    0.00016342
     atom   25 type  4   force =    -0.00126964    0.00091923    0.00219308
     atom   26 type  4   force =    -0.01454451   -0.02273252   -0.00183049
     atom   27 type  4   force =     0.00166357   -0.00071082    0.00120486
     atom   28 type  4   force =    -0.01766705    0.00340183    0.00117903
     atom   29 type  4   force =     0.02070125   -0.00456768    0.00825206
     atom   30 type  4   force =     0.01239461   -0.03411882    0.00109894
     atom   31 type  4   force =     0.00050785    0.00098229    0.00233989
     atom   32 type  4   force =    -0.00207956    0.00006364    0.00267196
     atom   33 type  3   force =    -0.00055192   -0.00163504   -0.00510986
     atom   34 type  3   force =    -0.03023661    0.05981111   -0.08315070
     atom   35 type  3   force =     0.03460061    0.03342264   -0.05925586
     atom   36 type  3   force =    -0.00385153    0.00470510   -0.00078976
     atom   37 type  4   force =    -0.00110576    0.00130866    0.00300350
     atom   38 type  4   force =    -0.00310287   -0.00552714    0.03295020
     atom   39 type  4   force =     0.00445534    0.00395217    0.02924811
     atom   40 type  4   force =     0.00022423   -0.00326818   -0.00502105
     atom   41 type  4   force =    -0.00009838    0.00002881    0.00364081
     atom   42 type  4   force =     0.00543733    0.00027949    0.01994417
     atom   43 type  4   force =    -0.00177993    0.00038251    0.03455744
     atom   44 type  4   force =     0.00097059   -0.00090845    0.00017757
     atom   45 type  4   force =    -0.00014785   -0.00257787    0.00130665
     atom   46 type  4   force =    -0.01508700   -0.02040935   -0.00050533
     atom   47 type  4   force =     0.00178730   -0.00059985    0.00127849
     atom   48 type  4   force =    -0.01803489    0.00403695    0.00160664
     atom   49 type  4   force =     0.01651768   -0.00277615    0.00496492
     atom   50 type  4   force =     0.01179291   -0.03682873    0.00433347
     atom   51 type  4   force =     0.00101942    0.00100194    0.00174197
     atom   52 type  4   force =     0.00105305   -0.00221080    0.00364630
     atom   53 type  1   force =     0.00140984    0.00072384   -0.00076790
     atom   54 type  1   force =     0.00052270    0.00067660    0.00076286
     atom   55 type  2   force =    -0.00005396   -0.00062988   -0.00054300
     atom   56 type  1   force =    -0.00094475   -0.00063223    0.00075836
     atom   57 type  1   force =     0.00031211    0.00018899    0.00041002
     atom   58 type  1   force =    -0.00003584   -0.00020297    0.00037207
     atom   59 type  1   force =     0.00052104    0.00103012   -0.00087760
     atom   60 type  2   force =    -0.00098790   -0.00128831    0.00613087
     atom   61 type  2   force =    -0.00049729   -0.00050779   -0.00055062
     atom   62 type  1   force =     0.00028674    0.00059260    0.00069802
     atom   63 type  1   force =    -0.00036998    0.00032880    0.00033777
     atom   64 type  1   force =     0.00029370   -0.00028875   -0.00000572
     atom   65 type  3   force =    -0.00073007   -0.00107555    0.00300674
     atom   66 type  3   force =     0.00006576   -0.00012502   -0.00173070
     atom   67 type  3   force =     0.00032349    0.00052469   -0.00133862
     atom   68 type  3   force =    -0.00063261    0.00009271    0.00310920
     atom   69 type  4   force =    -0.00057109    0.00030925   -0.00121726
     atom   70 type  4   force =    -0.00008939    0.00012371    0.00051685
     atom   71 type  4   force =     0.00017998   -0.00018875    0.00040247
     atom   72 type  4   force =     0.00061753   -0.00053623   -0.00117764
     atom   73 type  4   force =    -0.00026195    0.00051467    0.00100066
     atom   74 type  4   force =    -0.00027205   -0.00057037    0.00178597
     atom   75 type  4   force =     0.00001786    0.00001629    0.00054185
     atom   76 type  4   force =    -0.00010865   -0.00120522    0.00090236
     atom   77 type  4   force =    -0.00077739    0.00049041   -0.00074374
     atom   78 type  4   force =    -0.00028242    0.00002561    0.00038900
     atom   79 type  4   force =     0.00033056    0.00057935   -0.00136422
     atom   80 type  4   force =     0.00005127    0.00059215    0.00028123
     atom   81 type  4   force =    -0.00027959   -0.00026297    0.00032036
     atom   82 type  4   force =     0.00010274   -0.00019689    0.00010640
     atom   83 type  4   force =    -0.00009194    0.00059298   -0.00045747
     atom   84 type  4   force =    -0.00028027    0.00013757   -0.00062680
     atom   85 type  3   force =    -0.00007038   -0.00061130    0.00117290
     atom   86 type  3   force =     0.00055388   -0.00048081   -0.00050077
     atom   87 type  3   force =    -0.00027820   -0.00005351   -0.00112106
     atom   88 type  3   force =    -0.00108153   -0.00070175    0.00113682
     atom   89 type  4   force =    -0.00002942   -0.00000549   -0.00048372
     atom   90 type  4   force =     0.00002192   -0.00043518    0.00158081
     atom   91 type  4   force =     0.00031214    0.00008582    0.00043269
     atom   92 type  4   force =     0.00052840   -0.00073474   -0.00093700
     atom   93 type  4   force =     0.00174383    0.00081938    0.00232498
     atom   94 type  4   force =    -0.00034850    0.00010453    0.00127696
     atom   95 type  4   force =     0.00028368    0.00016172    0.00055813
     atom   96 type  4   force =     0.00007419   -0.00068326   -0.00025360
     atom   97 type  4   force =     0.00016313   -0.00010691   -0.00045129
     atom   98 type  4   force =    -0.00051411   -0.00017040    0.00036239
     atom   99 type  4   force =     0.00033185    0.00054798   -0.00099660
     atom  100 type  4   force =     0.00049847    0.00034742    0.00054372
     atom  101 type  4   force =    -0.00028265   -0.00015889    0.00047373
     atom  102 type  4   force =     0.00086259   -0.00053859    0.00044047
     atom  103 type  4   force =     0.00093644    0.00033736    0.00035941
     atom  104 type  4   force =    -0.00030137   -0.00067829    0.00013430
     atom  105 type  1   force =    -0.00063276   -0.00104072   -0.00097882
     atom  106 type  1   force =     0.00357179    0.00128093    0.00125915
     atom  107 type  2   force =     0.00005329   -0.00036979   -0.00010368
     atom  108 type  1   force =     0.00004874   -0.00055739    0.00018756
     atom  109 type  1   force =    -0.00029849   -0.00011749    0.00046782
     atom  110 type  1   force =    -0.00049800   -0.00133659   -0.00124750
     atom  111 type  1   force =     0.00209330    0.00261081    0.00002319
     atom  112 type  2   force =     0.00184870    0.00246839   -0.00133797
     atom  113 type  2   force =    -0.00052053   -0.00044453   -0.00097572
     atom  114 type  1   force =     0.00043793   -0.00034631    0.00059469
     atom  115 type  1   force =    -0.00042911    0.00251119   -0.00052173
     atom  116 type  1   force =     0.00053209   -0.00019047   -0.00039784
     atom  117 type  3   force =    -0.00154056    0.00039781    0.00002518
     atom  118 type  3   force =     0.00065307   -0.00203943   -0.00241889
     atom  119 type  3   force =     0.00014385    0.00061808   -0.00087087
     atom  120 type  3   force =     0.00085218   -0.00032402   -0.00067635
     atom  121 type  4   force =     0.00060345   -0.00074460    0.00028706
     atom  122 type  4   force =    -0.00047508    0.00369130    0.00404605
     atom  123 type  4   force =    -0.00003223   -0.00006031    0.00055152
     atom  124 type  4   force =    -0.00006737    0.00007763   -0.00005588
     atom  125 type  4   force =    -0.00043523    0.00053473   -0.00001818
     atom  126 type  4   force =     0.00014562    0.00034600    0.00076393
     atom  127 type  4   force =    -0.00027432   -0.00046205    0.00028915
     atom  128 type  4   force =    -0.00037009    0.00055039    0.00024672
     atom  129 type  4   force =    -0.00031981   -0.00042365    0.00013635
     atom  130 type  4   force =     0.00027898   -0.00007118    0.00047622
     atom  131 type  4   force =    -0.00023550    0.00051182   -0.00020424
     atom  132 type  4   force =    -0.00011355    0.00010998    0.00022320
     atom  133 type  4   force =    -0.00006846    0.00004707    0.00007147
     atom  134 type  4   force =     0.00028806    0.00117140    0.00044188
     atom  135 type  4   force =     0.00065575   -0.00095513   -0.00059213
     atom  136 type  4   force =     0.00176886    0.00036118    0.00044936
     atom  137 type  3   force =     0.00121249    0.00243788    0.00050096
     atom  138 type  3   force =     0.00069752    0.00020302   -0.00011693
     atom  139 type  3   force =    -0.00121106    0.00061527   -0.00018906
     atom  140 type  3   force =    -0.00021851   -0.00151224    0.00031748
     atom  141 type  4   force =    -0.00234489   -0.00548122    0.00016397
     atom  142 type  4   force =    -0.00036464   -0.00012113   -0.00010251
     atom  143 type  4   force =     0.00003299   -0.00044876   -0.00031429
     atom  144 type  4   force =    -0.00024205    0.00217562    0.00105526
     atom  145 type  4   force =    -0.00155544   -0.00094717   -0.00167114
     atom  146 type  4   force =    -0.00067767    0.00022588    0.00031108
     atom  147 type  4   force =    -0.00007254    0.00001558    0.00001890
     atom  148 type  4   force =    -0.00015510    0.00020062   -0.00004657
     atom  149 type  4   force =    -0.00015988    0.00130245   -0.00024698
     atom  150 type  4   force =    -0.00039175   -0.00161744    0.00014950
     atom  151 type  4   force =    -0.00032627    0.00108553   -0.00013909
     atom  152 type  4   force =     0.00054783   -0.00087655    0.00025346
     atom  153 type  4   force =     0.00023089    0.00020762    0.00052627
     atom  154 type  4   force =    -0.00098066    0.00082204    0.00047401
     atom  155 type  4   force =    -0.00041226   -0.00064974    0.00041730
     atom  156 type  4   force =    -0.00063205    0.00039666    0.00014223
     atom  157 type  4   force =     0.00426213   -0.00633532    0.00151356
     atom  158 type  5   force =    -0.00502472    0.00348169    0.00029980

     Total force =     0.225896     Total SCF correction =     0.004084
 
     init_run     :      8.66s CPU      9.43s WALL (       1 calls)
     electrons    :   1150.51s CPU   1200.71s WALL (       1 calls)
     forces       :      4.00s CPU      4.41s WALL (       1 calls)
     force_london :      0.10s CPU      0.10s WALL (       1 calls)

     Called by init_run:
     wfcinit      :      5.18s CPU      5.31s WALL (       1 calls)
     potinit      :      0.75s CPU      1.02s WALL (       1 calls)
     hinit0       :      1.45s CPU      1.59s WALL (       1 calls)

     Called by electrons:
     c_bands      :    914.28s CPU    941.05s WALL (      73 calls)
     sum_band     :    153.20s CPU    165.65s WALL (      73 calls)
     v_of_rho     :     20.03s CPU     21.33s WALL (      74 calls)
     newd         :     43.56s CPU     53.40s WALL (      74 calls)
     mix_rho      :     18.36s CPU     18.48s WALL (      73 calls)
     energy_londo :      0.10s CPU      0.10s WALL (       1 calls)

     Called by c_bands:
     init_us_2    :      2.70s CPU      2.75s WALL (     296 calls)
     init_us_2:cp :      2.70s CPU      2.75s WALL (     296 calls)
     regterg      :    897.96s CPU    924.49s WALL (     147 calls)

     Called by *egterg:
     rdiaghg      :    252.85s CPU    266.00s WALL (     583 calls)
     h_psi        :    358.02s CPU    364.04s WALL (     585 calls)
     s_psi        :     55.62s CPU     55.64s WALL (     585 calls)
     g_psi        :      0.43s CPU      0.43s WALL (     436 calls)

     Called by h_psi:
     h_psi:calbec :     82.42s CPU     87.18s WALL (     585 calls)
     vloc_psi     :    217.05s CPU    217.72s WALL (     585 calls)
     add_vuspsi   :     57.48s CPU     58.06s WALL (     585 calls)

     General routines
     calbec       :    122.44s CPU    129.40s WALL (     739 calls)
     fft          :     23.48s CPU     25.38s WALL (    1345 calls)
     ffts         :     10.75s CPU     10.78s WALL (    7267 calls)
     fftw         :    239.73s CPU    240.44s WALL (  253124 calls)
     interpolate  :      1.54s CPU      1.64s WALL (     148 calls)
 
     Parallel routines
 
     PWSCF        :  19m26.36s CPU  20m18.14s WALL

 
   This run was terminated on:  23:42:49  19Nov2025            

=------------------------------------------------------------------------------=
   JOB DONE.
=------------------------------------------------------------------------------=
