
     Program PWSCF v.7.2 starts on 17Nov2025 at 23:41:39 

     This program is part of the open-source Quantum ESPRESSO suite
     for quantum simulation of materials; please cite
         "P. Giannozzi et al., J. Phys.:Condens. Matter 21 395502 (2009);
         "P. Giannozzi et al., J. Phys.:Condens. Matter 29 465901 (2017);
         "P. Giannozzi et al., J. Chem. Phys. 152 154105 (2020);
          URL http://www.quantum-espresso.org", 
     in publications or presentations arising from this work. More details at
     http://www.quantum-espresso.org/quote

     Parallel version (MPI), running on    64 processors

     MPI processes distributed on     4 nodes
     447347 MiB available memory on the printing compute node when the environment starts
 
     Reading input from PWINPUT_atm158_ym

     Current dimensions of program PWSCF are:
     Max number of different atomic species (ntypx) = 10
     Max number of k-points (npk) =  40000
     Max angular momentum in pseudopotentials (lmaxx) =  4
     Presently no symmetry can be used with electric field

     file Ni.pbe-n-rrkjus_psl.1.0.0.UPF: wavefunction(s)  3D renormalized
     file Mn.pbe-spn-rrkjus_psl.0.3.1.UPF: wavefunction(s)  3D renormalized
     file O.pbe-rrkjus.UPF: wavefunction(s)  2S renormalized
     file H.pbe-rrkjus.UPF: wavefunction(s)  1S renormalized

     gamma-point specific algorithms are used
 
     R & G space division:  proc/nbgrp/npool/nimage =      64
     Subspace diagonalization in iterative solution of the eigenvalue problem:
     one sub-group per band group will be used
     custom distributed-memory algorithm (size of sub-group:  7*  7 procs)

 
     Parallelization info
     --------------------
     sticks:   dense  smooth     PW     G-vecs:    dense   smooth      PW
     Min         214      85     20                61830    15614    1928
     Max         216      86     22                61864    15658    1982
     Sum       13727    5503   1375              3958051  1001255  125211
 
     Using Slab Decomposition
 


     bravais-lattice index     =            0
     lattice parameter (alat)  =      17.8532  a.u.
     unit-cell volume          =   20962.6682 (a.u.)^3
     number of atoms/cell      =          158
     number of atomic types    =            5
     number of electrons       =      1108.00
     number of Kohn-Sham states=          665
     kinetic-energy cutoff     =      50.0000  Ry
     charge density cutoff     =     500.0000  Ry
     scf convergence threshold =      1.0E-06
     mixing beta               =       0.1000
     number of iterations used =            8  local-TF  mixing
     Exchange-correlation=  SLA  PW   PBE  PBE
                           (   1   4   3   4   0   0   0)

     celldm(1)=  17.853155  celldm(2)=   0.000000  celldm(3)=   0.000000
     celldm(4)=   0.000000  celldm(5)=   0.000000  celldm(6)=   0.000000

     crystal axes: (cart. coord. in units of alat)
               a(1) = (   1.000000   0.000000   0.000000 )  
               a(2) = (   0.003237   1.081997   0.000000 )  
               a(3) = (   0.000000   0.000000   3.404673 )  

     reciprocal axes: (cart. coord. in units 2 pi/alat)
               b(1) = (  1.000000 -0.002992  0.000000 )  
               b(2) = (  0.000000  0.924217  0.000000 )  
               b(3) = (  0.000000  0.000000  0.293714 )  


     PseudoPot. # 1 for Ni read from file:
     ~/PSEUDO/Ni.pbe-n-rrkjus_psl.1.0.0.UPF
     MD5 check sum: Not computed, couldn't open file
     Pseudo is Ultrasoft + core correction, Zval = 10.0
     Generated using "atomic" code by A. Dal Corso  v.5.1.2
     Using radial grid of 1195 points,  6 beta functions with: 
                l(1) =   0
                l(2) =   0
                l(3) =   1
                l(4) =   1
                l(5) =   2
                l(6) =   2
     Q(r) pseudized with 0 coefficients 


     PseudoPot. # 2 for Mn read from file:
     ~/PSEUDO/Mn.pbe-spn-rrkjus_psl.0.3.1.UPF
     MD5 check sum: Not computed, couldn't open file
     Pseudo is Ultrasoft + core correction, Zval = 15.0
     Generated using &quot;atomic&quot; code by A. Dal Corso  v.6.2.2
     Using radial grid of 1187 points,  6 beta functions with: 
                l(1) =   0
                l(2) =   0
                l(3) =   1
                l(4) =   1
                l(5) =   2
                l(6) =   2
     Q(r) pseudized with 0 coefficients 


     PseudoPot. # 3 for P  read from file:
     ~/PSEUDO/P.pbe-n-rrkjus_psl.1.0.0.UPF
     MD5 check sum: Not computed, couldn't open file
     Pseudo is Ultrasoft + core correction, Zval =  5.0
     Generated using "atomic" code by A. Dal Corso  v.5.1
     Using radial grid of 1147 points,  6 beta functions with: 
                l(1) =   0
                l(2) =   0
                l(3) =   1
                l(4) =   1
                l(5) =   2
                l(6) =   2
     Q(r) pseudized with 0 coefficients 


     PseudoPot. # 4 for O  read from file:
     ~/PSEUDO/O.pbe-rrkjus.UPF
     MD5 check sum: Not computed, couldn't open file
     Pseudo is Ultrasoft, Zval =  6.0
     Generated by new atomic code, or converted to UPF format
     Using radial grid of 1269 points,  4 beta functions with: 
                l(1) =   0
                l(2) =   0
                l(3) =   1
                l(4) =   1
     Q(r) pseudized with 0 coefficients 


     PseudoPot. # 5 for H  read from file:
     ~/PSEUDO/H.pbe-rrkjus.UPF
     MD5 check sum: Not computed, couldn't open file
     Pseudo is Ultrasoft, Zval =  1.0
     Generated by new atomic code, or converted to UPF format
     Using radial grid of 1061 points,  2 beta functions with: 
                l(1) =   0
                l(2) =   0
     Q(r) pseudized with 0 coefficients 


     atomic species   valence    mass     pseudopotential
     Ni               10.00    58.69300     Ni( 1.00)
     Mn               15.00    54.93800     Mn( 1.00)
     P                 5.00    30.97300     P ( 1.00)
     O                 6.00    15.99900     O ( 1.00)
     H                 1.00     1.00790     H ( 1.00)

     Starting magnetic structure 
     atomic species   magnetization
     Ni              1.000
     Mn              1.000
     P               1.000
     O               1.000
     H               0.000

     No symmetry found



   Cartesian axes

     site n.     atom                  positions (alat units)
         1        Ni     tau(   1) = (   0.2448189   0.8359134   0.1216996  )
         2        Ni     tau(   2) = (   0.4920952   0.7731948   0.4438949  )
         3        Mn     tau(   3) = (   0.0113021   0.2918949   0.1160512  )
         4        Ni     tau(   4) = (   0.2586115   0.2268566   0.4417628  )
         5        Ni     tau(   5) = (   1.0019827   1.0705803   0.2835623  )
         6        Ni     tau(   6) = (   0.2518099   0.5339061   0.2823483  )
         7        Ni     tau(   7) = (   0.7400999   0.8349186   0.1225624  )
         8        Mn     tau(   8) = (   0.9886961   0.7700845   0.4492175  )
         9        Mn     tau(   9) = (   0.5113421   0.2944667   0.1158892  )
        10        Ni     tau(  10) = (   0.7560857   0.2263843   0.4422798  )
        11        Ni     tau(  11) = (   0.5009386   1.0712238   0.2822610  )
        12        Ni     tau(  12) = (   0.7496978   0.5336600   0.2834396  )
        13        P      tau(  13) = (   0.2147792   0.9686896   0.4382665  )
        14        P      tau(  14) = (   0.4607377   0.6441916   0.1265334  )
        15        P      tau(  15) = (   0.2883218   0.0913464   0.1265752  )
        16        P      tau(  16) = (   0.0408981   0.4221836   0.4354960  )
        17        O      tau(  17) = (   0.1380864   0.9007819   0.3023220  )
        18        O      tau(  18) = (   0.3817439   0.7113683   0.2624610  )
        19        O      tau(  19) = (   0.3638364   0.1608547   0.2624417  )
        20        O      tau(  20) = (   0.1207568   0.3545755   0.3021219  )
        21        O      tau(  21) = (   0.1552194   0.8797563   0.5625160  )
        22        O      tau(  22) = (   0.4022820   0.7317969   0.0010585  )
        23        O      tau(  23) = (   0.3454844   0.1823965   0.0026336  )
        24        O      tau(  24) = (   0.1017019   0.3344979   0.5594858  )
        25        O      tau(  25) = (   0.0970074   0.5770714   0.4346455  )
        26        O      tau(  26) = (   0.3534166   1.0203677   0.1270707  )
        27        O      tau(  27) = (   0.3778024   0.4172402   0.4261028  )
        28        O      tau(  28) = (   0.1256171   0.0954063   0.1372153  )
        29        O      tau(  29) = (   0.1232168   0.6482422   0.1385172  )
        30        O      tau(  30) = (   0.4028533   0.4897833   0.1289718  )
        31        O      tau(  31) = (   0.1511050   0.0405554   0.4369979  )
        32        O      tau(  32) = (   0.3776556   0.9624293   0.4288159  )
        33        P      tau(  33) = (   0.7084770   0.9682119   0.4394551  )
        34        P      tau(  34) = (   0.9603154   0.6409658   0.1292469  )
        35        P      tau(  35) = (   0.7875734   0.0899770   0.1274098  )
        36        P      tau(  36) = (   0.5405152   0.4272620   0.4364455  )
        37        O      tau(  37) = (   0.6323583   0.8977630   0.3036670  )
        38        O      tau(  38) = (   0.8809646   0.7091921   0.2627111  )
        39        O      tau(  39) = (   0.8631054   0.1587239   0.2636487  )
        40        O      tau(  40) = (   0.6202581   0.3578380   0.3034239  )
        41        O      tau(  41) = (   0.6499160   0.8772596   0.5630912  )
        42        O      tau(  42) = (   0.8990171   0.7283464   0.0054426  )
        43        O      tau(  43) = (   0.8448361   0.1806154   0.0030658  )
        44        O      tau(  44) = (   0.6023096   0.3392612   0.5600469  )
        45        O      tau(  45) = (   0.5960222   0.5826131   0.4346340  )
        46        O      tau(  46) = (   0.8515023   1.0184215   0.1281632  )
        47        O      tau(  47) = (   0.8779640   0.4148900   0.4260983  )
        48        O      tau(  48) = (   0.6251159   0.0957170   0.1376895  )
        49        O      tau(  49) = (   0.6237654   0.6481585   0.1378370  )
        50        O      tau(  50) = (   0.9038046   0.4863338   0.1307354  )
        51        O      tau(  51) = (   0.6458737   0.0402574   0.4377979  )
        52        O      tau(  52) = (   0.8712434   0.9635255   0.4285638  )
        53        Ni     tau(  53) = (   0.2420320   0.8169913   0.7491577  )
        54        Ni     tau(  54) = (   0.4893084   0.7542727   1.0713530  )
        55        Mn     tau(  55) = (   0.0085152   0.2729728   0.7435093  )
        56        Ni     tau(  56) = (   0.2558246   0.2079345   1.0692209  )
        57        Ni     tau(  57) = (   0.9991959   1.0516583   0.9110204  )
        58        Ni     tau(  58) = (   0.2490231   0.5149840   0.9098064  )
        59        Ni     tau(  59) = (   0.7373131   0.8159965   0.7500205  )
        60        Mn     tau(  60) = (   0.9859093   0.7511625   1.0766756  )
        61        Mn     tau(  61) = (   0.5085552   0.2755447   0.7433473  )
        62        Ni     tau(  62) = (   0.7532989   0.2074622   1.0697379  )
        63        Ni     tau(  63) = (   0.4981517   1.0523018   0.9097191  )
        64        Ni     tau(  64) = (   0.7469109   0.5147379   0.9108977  )
        65        P      tau(  65) = (   0.2119924   0.9497675   1.0657246  )
        66        P      tau(  66) = (   0.4579509   0.6252695   0.7539915  )
        67        P      tau(  67) = (   0.2855349   0.0724244   0.7540333  )
        68        P      tau(  68) = (   0.0381112   0.4032615   1.0629541  )
        69        O      tau(  69) = (   0.1352995   0.8818598   0.9297801  )
        70        O      tau(  70) = (   0.3789570   0.6924463   0.8899191  )
        71        O      tau(  71) = (   0.3610496   0.1419327   0.8898998  )
        72        O      tau(  72) = (   0.1179700   0.3356534   0.9295800  )
        73        O      tau(  73) = (   0.1524325   0.8608343   1.1899741  )
        74        O      tau(  74) = (   0.3994952   0.7128748   0.6285166  )
        75        O      tau(  75) = (   0.3426976   0.1634744   0.6300917  )
        76        O      tau(  76) = (   0.0989151   0.3155758   1.1869439  )
        77        O      tau(  77) = (   0.0942206   0.5581494   1.0621036  )
        78        O      tau(  78) = (   0.3506297   1.0014456   0.7545288  )
        79        O      tau(  79) = (   0.3750155   0.3983181   1.0535609  )
        80        O      tau(  80) = (   0.1228303   0.0764842   0.7646734  )
        81        O      tau(  81) = (   0.1204299   0.6293201   0.7659753  )
        82        O      tau(  82) = (   0.4000664   0.4708612   0.7564299  )
        83        O      tau(  83) = (   0.1483182   0.0216333   1.0644560  )
        84        O      tau(  84) = (   0.3748687   0.9435072   1.0562740  )
        85        P      tau(  85) = (   0.7056901   0.9492898   1.0669132  )
        86        P      tau(  86) = (   0.9575286   0.6220438   0.7567050  )
        87        P      tau(  87) = (   0.7847866   0.0710549   0.7548679  )
        88        P      tau(  88) = (   0.5377283   0.4083400   1.0639036  )
        89        O      tau(  89) = (   0.6295714   0.8788409   0.9311251  )
        90        O      tau(  90) = (   0.8781778   0.6902700   0.8901692  )
        91        O      tau(  91) = (   0.8603186   0.1398018   0.8911068  )
        92        O      tau(  92) = (   0.6174712   0.3389159   0.9308820  )
        93        O      tau(  93) = (   0.6471291   0.8583376   1.1905493  )
        94        O      tau(  94) = (   0.8962302   0.7094244   0.6329007  )
        95        O      tau(  95) = (   0.8420493   0.1616933   0.6305239  )
        96        O      tau(  96) = (   0.5995227   0.3203391   1.1875050  )
        97        O      tau(  97) = (   0.5932354   0.5636910   1.0620921  )
        98        O      tau(  98) = (   0.8487155   0.9994995   0.7556213  )
        99        O      tau(  99) = (   0.8751772   0.3959680   1.0535564  )
       100        O      tau( 100) = (   0.6223291   0.0767949   0.7651476  )
       101        O      tau( 101) = (   0.6209785   0.6292365   0.7652951  )
       102        O      tau( 102) = (   0.9010178   0.4674118   0.7581935  )
       103        O      tau( 103) = (   0.6430869   0.0213354   1.0652560  )
       104        O      tau( 104) = (   0.8684566   0.9446034   1.0560219  )
       105        Ni     tau( 105) = (   0.2384978   0.7977595   1.3788694  )
       106        Ni     tau( 106) = (   0.4977364   0.7374783   1.6806186  )
       107        Mn     tau( 107) = (   0.0074064   0.2578144   1.3744489  )
       108        Ni     tau( 108) = (   0.2437957   0.1954136   1.6827143  )
       109        Ni     tau( 109) = (   1.0006497   1.0326434   1.5404833  )
       110        Ni     tau( 110) = (   0.2439992   0.4967508   1.5401191  )
       111        Ni     tau( 111) = (   0.7374428   0.7984296   1.3777262  )
       112        Mn     tau( 112) = (   0.9966803   0.7366577   1.7115429  )
       113        Mn     tau( 113) = (   0.5076556   0.2589984   1.3732312  )
       114        Ni     tau( 114) = (   0.7423887   0.1965493   1.6832389  )
       115        Ni     tau( 115) = (   0.4997824   1.0361881   1.5381360  )
       116        Ni     tau( 116) = (   0.7435623   0.4992904   1.5465492  )
       117        P      tau( 117) = (   0.2144549   0.9278899   1.6995636  )
       118        P      tau( 118) = (   0.4551955   0.6050722   1.3802014  )
       119        P      tau( 119) = (   0.2849604   0.0539795   1.3804579  )
       120        P      tau( 120) = (   0.0337229   0.3834112   1.7005366  )
       121        O      tau( 121) = (   0.1305203   0.8570033   1.5637456  )
       122        O      tau( 122) = (   0.3757482   0.6729749   1.5155776  )
       123        O      tau( 123) = (   0.3613724   0.1249247   1.5151439  )
       124        O      tau( 124) = (   0.1129169   0.3224918   1.5571838  )
       125        O      tau( 125) = (   0.1580226   0.8374540   1.8209462  )
       126        O      tau( 126) = (   0.3964371   0.6927973   1.2548158  )
       127        O      tau( 127) = (   0.3425460   0.1434071   1.2554580  )
       128        O      tau( 128) = (   0.0951476   0.2873483   1.8142913  )
       129        O      tau( 129) = (   0.0915744   0.5399361   1.6925782  )
       130        O      tau( 130) = (   0.3476648   0.9823179   1.3836286  )
       131        O      tau( 131) = (   0.3686904   0.3789818   1.6819772  )
       132        O      tau( 132) = (   0.1222508   0.0604368   1.3930584  )
       133        O      tau( 133) = (   0.1179118   0.6106013   1.3948723  )
       134        O      tau( 134) = (   0.3966368   0.4509867   1.3826334  )
       135        O      tau( 135) = (   0.1546825   0.0015702   1.6934648  )
       136        O      tau( 136) = (   0.3773232   0.9216783   1.6812421  )
       137        P      tau( 137) = (   0.7088550   0.9300633   1.6956615  )
       138        P      tau( 138) = (   0.9546391   0.6039920   1.3882016  )
       139        P      tau( 139) = (   0.7861313   0.0539690   1.3808971  )
       140        P      tau( 140) = (   0.5320716   0.3863344   1.7004805  )
       141        O      tau( 141) = (   0.6333026   0.8679629   1.5520824  )
       142        O      tau( 142) = (   0.8777710   0.6729500   1.5224461  )
       143        O      tau( 143) = (   0.8617708   0.1227652   1.5169485  )
       144        O      tau( 144) = (   0.6127642   0.3270143   1.5579163  )
       145        O      tau( 145) = (   0.6483538   0.8329242   1.8103769  )
       146        O      tau( 146) = (   0.8943529   0.6911253   1.2630188  )
       147        O      tau( 147) = (   0.8429851   0.1446062   1.2562262  )
       148        O      tau( 148) = (   0.5929067   0.2897237   1.8141651  )
       149        O      tau( 149) = (   0.5848154   0.5442225   1.6989682  )
       150        O      tau( 150) = (   0.8496775   0.9825043   1.3815819  )
       151        O      tau( 151) = (   0.8705103   0.3772225   1.6832178  )
       152        O      tau( 152) = (   0.6234977   0.0619490   1.3925952  )
       153        O      tau( 153) = (   0.6178427   0.6111075   1.3950142  )
       154        O      tau( 154) = (   0.8977226   0.4494998   1.3884974  )
       155        O      tau( 155) = (   0.6505054   0.0039779   1.6957510  )
       156        O      tau( 156) = (   0.8731762   0.9239488   1.6850968  )
       157        O      tau( 157) = (   0.8871652   0.6670336   1.8454411  )
       158        H      tau( 158) = (   0.7940650   0.7147539   1.8550683  )

     -------------------------------------------------
     Parameters for Dispersion (Grimme-D2) Correction:
     -------------------------------------------------
       atom      VdW radius       C_6     

        Ni         2.952        374.666
        Mn         2.952        374.666
        P          3.222        271.980
        O          2.536         24.284
        H          1.892          4.857

     number of k points=     1  Gaussian smearing, width (Ry)=  0.0100
                       cart. coord. in units 2pi/alat
        k(    1) = (   0.0000000   0.0000000   0.0000000), wk =   1.0000000

     Dense  grid:  1979026 G-vectors     FFT dimensions: ( 128, 144, 450)

     Smooth grid:   500628 G-vectors     FFT dimensions: (  81,  90, 288)

     Estimated max dynamical RAM per process >     333.40 MB

     Estimated total dynamical RAM >      20.84 GB

     Check: negative core charge=   -0.000002
     Generating pointlists ...
     new r_m :   0.0878 (alat units)  1.5669 (a.u.) for type    1
     new r_m :   0.0769 (alat units)  1.3732 (a.u.) for type    2
     new r_m :   0.0664 (alat units)  1.1861 (a.u.) for type    3
     new r_m :   0.0433 (alat units)  0.7737 (a.u.) for type    4
     new r_m :   0.0433 (alat units)  0.7737 (a.u.) for type    5

     Initial potential from superposition of free atoms

     starting charge    1107.8886, renormalised to    1108.0000

     negative rho (up, down):  1.550E-03 4.678E-04
 
     Adding external electric field

     Computed dipole along edir(3) : 
        Dipole                1.6140 Ry au,          4.1023 Debye
        Dipole field          0.0010 Ry au, 
 
        Potential amp.       -0.1059 Ry
        Total length         54.7057 bohr
 
 
     Adding external electric field

     Computed dipole along edir(3) : 
        Dipole                1.6140 Ry au,          4.1023 Debye
        Dipole field          0.0010 Ry au, 
 
        Potential amp.       -0.1059 Ry
        Total length         54.7057 bohr
 
     Starting wfcs are  818 randomized atomic wfcs

     total cpu time spent up to now is       13.7 secs

     Self-consistent Calculation

     iteration #  1     ecut=    50.00 Ry     beta= 0.10
     Davidson diagonalization with overlap
     ethr =  1.00E-02,  avg # of iterations =  6.0

     negative rho (up, down):  4.376E-01 4.731E-07
 
     Adding external electric field

     Computed dipole along edir(3) : 
        Dipole               -3.3557 Ry au,         -8.5292 Debye
        Dipole field         -0.0020 Ry au, 
 
        Potential amp.        0.2201 Ry
        Total length         54.7057 bohr
 
 
     Adding external electric field

     Computed dipole along edir(3) : 
        Dipole               -3.3557 Ry au,         -8.5292 Debye
        Dipole field         -0.0020 Ry au, 
 
        Potential amp.        0.2201 Ry
        Total length         54.7057 bohr
 

     total cpu time spent up to now is       53.1 secs

     total energy              =   -7856.70543838 Ry
     estimated scf accuracy    <     744.79466366 Ry

     total magnetization       =   222.00 Bohr mag/cell
     absolute magnetization    =   319.00 Bohr mag/cell

     iteration #  2     ecut=    50.00 Ry     beta= 0.10
     Davidson diagonalization with overlap
     ethr =  1.00E-02,  avg # of iterations =  2.0

     negative rho (up, down):  4.085E-01 3.209E-07
 
     Adding external electric field

     Computed dipole along edir(3) : 
        Dipole               -2.3188 Ry au,         -5.8937 Debye
        Dipole field         -0.0014 Ry au, 
 
        Potential amp.        0.1521 Ry
        Total length         54.7057 bohr
 
 
     Adding external electric field

     Computed dipole along edir(3) : 
        Dipole               -2.3188 Ry au,         -5.8937 Debye
        Dipole field         -0.0014 Ry au, 
 
        Potential amp.        0.1521 Ry
        Total length         54.7057 bohr
 

     total cpu time spent up to now is       76.9 secs

     total energy              =   -7940.08985796 Ry
     estimated scf accuracy    <     192.75587645 Ry

     total magnetization       =   169.25 Bohr mag/cell
     absolute magnetization    =   215.57 Bohr mag/cell

     iteration #  3     ecut=    50.00 Ry     beta= 0.10
     Davidson diagonalization with overlap
     ethr =  1.00E-02,  avg # of iterations =  1.5

     negative rho (up, down):  3.683E-01 3.520E-07
 
     Adding external electric field

     Computed dipole along edir(3) : 
        Dipole               -2.1238 Ry au,         -5.3981 Debye
        Dipole field         -0.0013 Ry au, 
 
        Potential amp.        0.1393 Ry
        Total length         54.7057 bohr
 
 
     Adding external electric field

     Computed dipole along edir(3) : 
        Dipole               -2.1238 Ry au,         -5.3981 Debye
        Dipole field         -0.0013 Ry au, 
 
        Potential amp.        0.1393 Ry
        Total length         54.7057 bohr
 

     total cpu time spent up to now is       96.3 secs

     total energy              =   -7966.89970595 Ry
     estimated scf accuracy    <     102.28272251 Ry

     total magnetization       =   144.82 Bohr mag/cell
     absolute magnetization    =   192.98 Bohr mag/cell

     iteration #  4     ecut=    50.00 Ry     beta= 0.10
     Davidson diagonalization with overlap
     ethr =  9.23E-03,  avg # of iterations =  1.0

     negative rho (up, down):  2.863E-01 1.490E-07
 
     Adding external electric field

     Computed dipole along edir(3) : 
        Dipole               -1.8738 Ry au,         -4.7626 Debye
        Dipole field         -0.0011 Ry au, 
 
        Potential amp.        0.1229 Ry
        Total length         54.7057 bohr
 
 
     Adding external electric field

     Computed dipole along edir(3) : 
        Dipole               -1.8738 Ry au,         -4.7626 Debye
        Dipole field         -0.0011 Ry au, 
 
        Potential amp.        0.1229 Ry
        Total length         54.7057 bohr
 

     total cpu time spent up to now is      114.9 secs

     total energy              =   -8002.82708061 Ry
     estimated scf accuracy    <      87.11967877 Ry

     total magnetization       =   130.19 Bohr mag/cell
     absolute magnetization    =   179.69 Bohr mag/cell

     iteration #  5     ecut=    50.00 Ry     beta= 0.10
     Davidson diagonalization with overlap
     ethr =  7.86E-03,  avg # of iterations =  1.0

     negative rho (up, down):  5.288E-02 1.033E-07
 
     Adding external electric field

     Computed dipole along edir(3) : 
        Dipole               -1.4673 Ry au,         -3.7295 Debye
        Dipole field         -0.0009 Ry au, 
 
        Potential amp.        0.0962 Ry
        Total length         54.7057 bohr
 
 
     Adding external electric field

     Computed dipole along edir(3) : 
        Dipole               -1.4673 Ry au,         -3.7295 Debye
        Dipole field         -0.0009 Ry au, 
 
        Potential amp.        0.0962 Ry
        Total length         54.7057 bohr
 

     total cpu time spent up to now is      133.6 secs

     total energy              =   -8061.10990202 Ry
     estimated scf accuracy    <      68.13353543 Ry

     total magnetization       =   106.11 Bohr mag/cell
     absolute magnetization    =   159.06 Bohr mag/cell

     iteration #  6     ecut=    50.00 Ry     beta= 0.10
     Davidson diagonalization with overlap
     ethr =  6.15E-03,  avg # of iterations =  1.0

     negative rho (up, down):  8.514E-04 2.462E-03
 
     Adding external electric field

     Computed dipole along edir(3) : 
        Dipole               -1.1307 Ry au,         -2.8740 Debye
        Dipole field         -0.0007 Ry au, 
 
        Potential amp.        0.0742 Ry
        Total length         54.7057 bohr
 
 
     Adding external electric field

     Computed dipole along edir(3) : 
        Dipole               -1.1307 Ry au,         -2.8740 Debye
        Dipole field         -0.0007 Ry au, 
 
        Potential amp.        0.0742 Ry
        Total length         54.7057 bohr
 

     total cpu time spent up to now is      151.7 secs

     total energy              =   -8076.13245417 Ry
     estimated scf accuracy    <      17.28803213 Ry

     total magnetization       =   100.00 Bohr mag/cell
     absolute magnetization    =   133.03 Bohr mag/cell

     iteration #  7     ecut=    50.00 Ry     beta= 0.10
     Davidson diagonalization with overlap
     ethr =  1.56E-03,  avg # of iterations =  6.5

     negative rho (up, down):  8.316E-04 2.394E-03
 
     Adding external electric field

     Computed dipole along edir(3) : 
        Dipole               -1.1393 Ry au,         -2.8958 Debye
        Dipole field         -0.0007 Ry au, 
 
        Potential amp.        0.0747 Ry
        Total length         54.7057 bohr
 
 
     Adding external electric field

     Computed dipole along edir(3) : 
        Dipole               -1.1393 Ry au,         -2.8958 Debye
        Dipole field         -0.0007 Ry au, 
 
        Potential amp.        0.0747 Ry
        Total length         54.7057 bohr
 

     total cpu time spent up to now is      183.2 secs

     total energy              =   -8079.13664759 Ry
     estimated scf accuracy    <      36.01188089 Ry

     total magnetization       =    62.96 Bohr mag/cell
     absolute magnetization    =    80.98 Bohr mag/cell

     iteration #  8     ecut=    50.00 Ry     beta= 0.10
     Davidson diagonalization with overlap
     ethr =  1.56E-03,  avg # of iterations =  1.0

     negative rho (up, down):  8.246E-04 2.310E-03
 
     Adding external electric field

     Computed dipole along edir(3) : 
        Dipole               -1.1376 Ry au,         -2.8915 Debye
        Dipole field         -0.0007 Ry au, 
 
        Potential amp.        0.0746 Ry
        Total length         54.7057 bohr
 
 
     Adding external electric field

     Computed dipole along edir(3) : 
        Dipole               -1.1376 Ry au,         -2.8915 Debye
        Dipole field         -0.0007 Ry au, 
 
        Potential amp.        0.0746 Ry
        Total length         54.7057 bohr
 

     total cpu time spent up to now is      200.6 secs

     total energy              =   -8079.16435432 Ry
     estimated scf accuracy    <      34.66109715 Ry

     total magnetization       =    63.72 Bohr mag/cell
     absolute magnetization    =    81.24 Bohr mag/cell

     iteration #  9     ecut=    50.00 Ry     beta= 0.10
     Davidson diagonalization with overlap
     ethr =  1.56E-03,  avg # of iterations =  1.0

     negative rho (up, down):  7.849E-04 2.147E-03
 
     Adding external electric field

     Computed dipole along edir(3) : 
        Dipole               -1.1257 Ry au,         -2.8613 Debye
        Dipole field         -0.0007 Ry au, 
 
        Potential amp.        0.0738 Ry
        Total length         54.7057 bohr
 
 
     Adding external electric field

     Computed dipole along edir(3) : 
        Dipole               -1.1257 Ry au,         -2.8613 Debye
        Dipole field         -0.0007 Ry au, 
 
        Potential amp.        0.0738 Ry
        Total length         54.7057 bohr
 

     total cpu time spent up to now is      218.3 secs

     total energy              =   -8079.06331097 Ry
     estimated scf accuracy    <      33.27104613 Ry

     total magnetization       =    64.38 Bohr mag/cell
     absolute magnetization    =    81.50 Bohr mag/cell

     iteration # 10     ecut=    50.00 Ry     beta= 0.10
     Davidson diagonalization with overlap
     ethr =  1.56E-03,  avg # of iterations =  1.0

     negative rho (up, down):  8.559E-04 2.033E-03
 
     Adding external electric field

     Computed dipole along edir(3) : 
        Dipole               -1.1400 Ry au,         -2.8977 Debye
        Dipole field         -0.0007 Ry au, 
 
        Potential amp.        0.0748 Ry
        Total length         54.7057 bohr
 
 
     Adding external electric field

     Computed dipole along edir(3) : 
        Dipole               -1.1400 Ry au,         -2.8977 Debye
        Dipole field         -0.0007 Ry au, 
 
        Potential amp.        0.0748 Ry
        Total length         54.7057 bohr
 

     total cpu time spent up to now is      236.2 secs

     total energy              =   -8079.13429214 Ry
     estimated scf accuracy    <      30.02340459 Ry

     total magnetization       =    65.80 Bohr mag/cell
     absolute magnetization    =    82.05 Bohr mag/cell

     iteration # 11     ecut=    50.00 Ry     beta= 0.10
     Davidson diagonalization with overlap
     ethr =  1.56E-03,  avg # of iterations =  1.0

     negative rho (up, down):  7.927E-04 1.731E-03
 
     Adding external electric field

     Computed dipole along edir(3) : 
        Dipole               -1.1475 Ry au,         -2.9166 Debye
        Dipole field         -0.0007 Ry au, 
 
        Potential amp.        0.0753 Ry
        Total length         54.7057 bohr
 
 
     Adding external electric field

     Computed dipole along edir(3) : 
        Dipole               -1.1475 Ry au,         -2.9166 Debye
        Dipole field         -0.0007 Ry au, 
 
        Potential amp.        0.0753 Ry
        Total length         54.7057 bohr
 

     total cpu time spent up to now is      253.9 secs

     total energy              =   -8077.78314037 Ry
     estimated scf accuracy    <      31.58647814 Ry

     total magnetization       =    65.55 Bohr mag/cell
     absolute magnetization    =    82.06 Bohr mag/cell

     iteration # 12     ecut=    50.00 Ry     beta= 0.10
     Davidson diagonalization with overlap
     ethr =  1.56E-03,  avg # of iterations =  1.5

     negative rho (up, down):  5.384E-04 1.367E-03
 
     Adding external electric field

     Computed dipole along edir(3) : 
        Dipole               -1.1531 Ry au,         -2.9310 Debye
        Dipole field         -0.0007 Ry au, 
 
        Potential amp.        0.0756 Ry
        Total length         54.7057 bohr
 
 
     Adding external electric field

     Computed dipole along edir(3) : 
        Dipole               -1.1531 Ry au,         -2.9310 Debye
        Dipole field         -0.0007 Ry au, 
 
        Potential amp.        0.0756 Ry
        Total length         54.7057 bohr
 

     total cpu time spent up to now is      272.3 secs

     total energy              =   -8078.47162586 Ry
     estimated scf accuracy    <      12.53863671 Ry

     total magnetization       =    82.04 Bohr mag/cell
     absolute magnetization    =    92.79 Bohr mag/cell

     iteration # 13     ecut=    50.00 Ry     beta= 0.10
     Davidson diagonalization with overlap
     ethr =  1.13E-03,  avg # of iterations =  1.0

     negative rho (up, down):  5.110E-04 1.552E-03
 
     Adding external electric field

     Computed dipole along edir(3) : 
        Dipole               -1.1424 Ry au,         -2.9036 Debye
        Dipole field         -0.0007 Ry au, 
 
        Potential amp.        0.0749 Ry
        Total length         54.7057 bohr
 
 
     Adding external electric field

     Computed dipole along edir(3) : 
        Dipole               -1.1424 Ry au,         -2.9036 Debye
        Dipole field         -0.0007 Ry au, 
 
        Potential amp.        0.0749 Ry
        Total length         54.7057 bohr
 

     total cpu time spent up to now is      289.5 secs

     total energy              =   -8078.49603917 Ry
     estimated scf accuracy    <      13.83542963 Ry

     total magnetization       =    80.21 Bohr mag/cell
     absolute magnetization    =    91.57 Bohr mag/cell

     iteration # 14     ecut=    50.00 Ry     beta= 0.10
     Davidson diagonalization with overlap
     ethr =  1.13E-03,  avg # of iterations =  1.0

     negative rho (up, down):  4.407E-04 7.852E-04
 
     Adding external electric field

     Computed dipole along edir(3) : 
        Dipole               -1.1542 Ry au,         -2.9337 Debye
        Dipole field         -0.0007 Ry au, 
 
        Potential amp.        0.0757 Ry
        Total length         54.7057 bohr
 
 
     Adding external electric field

     Computed dipole along edir(3) : 
        Dipole               -1.1542 Ry au,         -2.9337 Debye
        Dipole field         -0.0007 Ry au, 
 
        Potential amp.        0.0757 Ry
        Total length         54.7057 bohr
 

     total cpu time spent up to now is      306.9 secs

     total energy              =   -8078.16561767 Ry
     estimated scf accuracy    <      12.91018400 Ry

     total magnetization       =    80.68 Bohr mag/cell
     absolute magnetization    =    91.41 Bohr mag/cell

     iteration # 15     ecut=    50.00 Ry     beta= 0.10
     Davidson diagonalization with overlap
     ethr =  1.13E-03,  avg # of iterations =  1.0

     negative rho (up, down):  1.133E-03 1.967E-03
 
     Adding external electric field

     Computed dipole along edir(3) : 
        Dipole               -1.1744 Ry au,         -2.9850 Debye
        Dipole field         -0.0007 Ry au, 
 
        Potential amp.        0.0770 Ry
        Total length         54.7057 bohr
 
 
     Adding external electric field

     Computed dipole along edir(3) : 
        Dipole               -1.1744 Ry au,         -2.9850 Debye
        Dipole field         -0.0007 Ry au, 
 
        Potential amp.        0.0770 Ry
        Total length         54.7057 bohr
 

     total cpu time spent up to now is      324.8 secs

     total energy              =   -8078.40585218 Ry
     estimated scf accuracy    <       3.33486040 Ry

     total magnetization       =    92.54 Bohr mag/cell
     absolute magnetization    =    99.64 Bohr mag/cell

     iteration # 16     ecut=    50.00 Ry     beta= 0.10
     Davidson diagonalization with overlap
     ethr =  3.01E-04,  avg # of iterations =  2.0

     negative rho (up, down):  1.077E-02 1.547E-02
 
     Adding external electric field

     Computed dipole along edir(3) : 
        Dipole               -1.2278 Ry au,         -3.1209 Debye
        Dipole field         -0.0007 Ry au, 
 
        Potential amp.        0.0805 Ry
        Total length         54.7057 bohr
 
 
     Adding external electric field

     Computed dipole along edir(3) : 
        Dipole               -1.2278 Ry au,         -3.1209 Debye
        Dipole field         -0.0007 Ry au, 
 
        Potential amp.        0.0805 Ry
        Total length         54.7057 bohr
 

     total cpu time spent up to now is      343.6 secs

     total energy              =   -8078.22651433 Ry
     estimated scf accuracy    <       2.20812564 Ry

     total magnetization       =    93.24 Bohr mag/cell
     absolute magnetization    =    99.87 Bohr mag/cell

     iteration # 17     ecut=    50.00 Ry     beta= 0.10
     Davidson diagonalization with overlap
     ethr =  1.99E-04,  avg # of iterations =  1.5

     negative rho (up, down):  1.129E-02 1.685E-02
 
     Adding external electric field

     Computed dipole along edir(3) : 
        Dipole               -1.2173 Ry au,         -3.0940 Debye
        Dipole field         -0.0007 Ry au, 
 
        Potential amp.        0.0798 Ry
        Total length         54.7057 bohr
 
 
     Adding external electric field

     Computed dipole along edir(3) : 
        Dipole               -1.2173 Ry au,         -3.0940 Debye
        Dipole field         -0.0007 Ry au, 
 
        Potential amp.        0.0798 Ry
        Total length         54.7057 bohr
 

     total cpu time spent up to now is      363.2 secs

     total energy              =   -8078.33035474 Ry
     estimated scf accuracy    <       0.96539293 Ry

     total magnetization       =    92.76 Bohr mag/cell
     absolute magnetization    =    98.88 Bohr mag/cell

     iteration # 18     ecut=    50.00 Ry     beta= 0.10
     Davidson diagonalization with overlap
     ethr =  8.71E-05,  avg # of iterations =  2.0

     negative rho (up, down):  5.421E-03 8.223E-03
 
     Adding external electric field

     Computed dipole along edir(3) : 
        Dipole               -1.1801 Ry au,         -2.9994 Debye
        Dipole field         -0.0007 Ry au, 
 
        Potential amp.        0.0774 Ry
        Total length         54.7057 bohr
 
 
     Adding external electric field

     Computed dipole along edir(3) : 
        Dipole               -1.1801 Ry au,         -2.9994 Debye
        Dipole field         -0.0007 Ry au, 
 
        Potential amp.        0.0774 Ry
        Total length         54.7057 bohr
 

     total cpu time spent up to now is      383.3 secs

     total energy              =   -8078.41453671 Ry
     estimated scf accuracy    <       0.55682262 Ry

     total magnetization       =    94.93 Bohr mag/cell
     absolute magnetization    =   100.28 Bohr mag/cell

     iteration # 19     ecut=    50.00 Ry     beta= 0.10
     Davidson diagonalization with overlap
     ethr =  5.03E-05,  avg # of iterations =  9.5

     negative rho (up, down):  1.869E-03 3.152E-03
 
     Adding external electric field

     Computed dipole along edir(3) : 
        Dipole               -1.1287 Ry au,         -2.8688 Debye
        Dipole field         -0.0007 Ry au, 
 
        Potential amp.        0.0740 Ry
        Total length         54.7057 bohr
 
 
     Adding external electric field

     Computed dipole along edir(3) : 
        Dipole               -1.1287 Ry au,         -2.8688 Debye
        Dipole field         -0.0007 Ry au, 
 
        Potential amp.        0.0740 Ry
        Total length         54.7057 bohr
 

     total cpu time spent up to now is      411.4 secs

     total energy              =   -8078.47070978 Ry
     estimated scf accuracy    <       0.37319575 Ry

     total magnetization       =    96.27 Bohr mag/cell
     absolute magnetization    =   101.00 Bohr mag/cell

     iteration # 20     ecut=    50.00 Ry     beta= 0.10
     Davidson diagonalization with overlap
     ethr =  3.37E-05,  avg # of iterations =  2.0

     negative rho (up, down):  2.013E-03 3.301E-03
 
     Adding external electric field

     Computed dipole along edir(3) : 
        Dipole               -1.1143 Ry au,         -2.8321 Debye
        Dipole field         -0.0007 Ry au, 
 
        Potential amp.        0.0731 Ry
        Total length         54.7057 bohr
 
 
     Adding external electric field

     Computed dipole along edir(3) : 
        Dipole               -1.1143 Ry au,         -2.8321 Debye
        Dipole field         -0.0007 Ry au, 
 
        Potential amp.        0.0731 Ry
        Total length         54.7057 bohr
 

     total cpu time spent up to now is      431.5 secs

     total energy              =   -8078.48144128 Ry
     estimated scf accuracy    <       0.36749425 Ry

     total magnetization       =    95.96 Bohr mag/cell
     absolute magnetization    =   100.32 Bohr mag/cell

     iteration # 21     ecut=    50.00 Ry     beta= 0.10
     Davidson diagonalization with overlap
     ethr =  3.32E-05,  avg # of iterations =  1.5

     negative rho (up, down):  4.609E-04 7.822E-04
 
     Adding external electric field

     Computed dipole along edir(3) : 
        Dipole               -1.0310 Ry au,         -2.6205 Debye
        Dipole field         -0.0006 Ry au, 
 
        Potential amp.        0.0676 Ry
        Total length         54.7057 bohr
 
 
     Adding external electric field

     Computed dipole along edir(3) : 
        Dipole               -1.0310 Ry au,         -2.6205 Debye
        Dipole field         -0.0006 Ry au, 
 
        Potential amp.        0.0676 Ry
        Total length         54.7057 bohr
 

     total cpu time spent up to now is      449.7 secs

     total energy              =   -8078.53706190 Ry
     estimated scf accuracy    <       0.27651657 Ry

     total magnetization       =    95.83 Bohr mag/cell
     absolute magnetization    =   100.05 Bohr mag/cell

     iteration # 22     ecut=    50.00 Ry     beta= 0.10
     Davidson diagonalization with overlap
     ethr =  2.50E-05,  avg # of iterations =  2.0

     negative rho (up, down):  7.014E-05 9.177E-05
 
     Adding external electric field

     Computed dipole along edir(3) : 
        Dipole               -1.0064 Ry au,         -2.5580 Debye
        Dipole field         -0.0006 Ry au, 
 
        Potential amp.        0.0660 Ry
        Total length         54.7057 bohr
 
 
     Adding external electric field

     Computed dipole along edir(3) : 
        Dipole               -1.0064 Ry au,         -2.5580 Debye
        Dipole field         -0.0006 Ry au, 
 
        Potential amp.        0.0660 Ry
        Total length         54.7057 bohr
 

     total cpu time spent up to now is      469.2 secs

     total energy              =   -8078.55328157 Ry
     estimated scf accuracy    <       0.20747466 Ry

     total magnetization       =    95.00 Bohr mag/cell
     absolute magnetization    =    98.62 Bohr mag/cell

     iteration # 23     ecut=    50.00 Ry     beta= 0.10
     Davidson diagonalization with overlap
     ethr =  1.87E-05,  avg # of iterations =  2.0

     negative rho (up, down):  4.113E-06 3.114E-06
 
     Adding external electric field

     Computed dipole along edir(3) : 
        Dipole               -0.9141 Ry au,         -2.3233 Debye
        Dipole field         -0.0005 Ry au, 
 
        Potential amp.        0.0600 Ry
        Total length         54.7057 bohr
 
 
     Adding external electric field

     Computed dipole along edir(3) : 
        Dipole               -0.9141 Ry au,         -2.3233 Debye
        Dipole field         -0.0005 Ry au, 
 
        Potential amp.        0.0600 Ry
        Total length         54.7057 bohr
 

     total cpu time spent up to now is      488.5 secs

     total energy              =   -8078.57839203 Ry
     estimated scf accuracy    <       0.15451176 Ry

     total magnetization       =    96.29 Bohr mag/cell
     absolute magnetization    =    99.61 Bohr mag/cell

     iteration # 24     ecut=    50.00 Ry     beta= 0.10
     Davidson diagonalization with overlap
     c_bands:  1 eigenvalues not converged
     ethr =  1.39E-05,  avg # of iterations = 11.0

     negative rho (up, down):  2.721E-06 1.840E-06
 
     Adding external electric field

     Computed dipole along edir(3) : 
        Dipole               -0.9040 Ry au,         -2.2977 Debye
        Dipole field         -0.0005 Ry au, 
 
        Potential amp.        0.0593 Ry
        Total length         54.7057 bohr
 
 
     Adding external electric field

     Computed dipole along edir(3) : 
        Dipole               -0.9040 Ry au,         -2.2977 Debye
        Dipole field         -0.0005 Ry au, 
 
        Potential amp.        0.0593 Ry
        Total length         54.7057 bohr
 

     total cpu time spent up to now is      513.7 secs

     total energy              =   -8078.58096521 Ry
     estimated scf accuracy    <       0.21333963 Ry

     total magnetization       =    95.08 Bohr mag/cell
     absolute magnetization    =    97.89 Bohr mag/cell

     iteration # 25     ecut=    50.00 Ry     beta= 0.10
     Davidson diagonalization with overlap
     ethr =  1.39E-05,  avg # of iterations =  1.5

     negative rho (up, down):  7.011E-06 2.788E-06
 
     Adding external electric field

     Computed dipole along edir(3) : 
        Dipole               -0.8227 Ry au,         -2.0911 Debye
        Dipole field         -0.0005 Ry au, 
 
        Potential amp.        0.0540 Ry
        Total length         54.7057 bohr
 
 
     Adding external electric field

     Computed dipole along edir(3) : 
        Dipole               -0.8227 Ry au,         -2.0911 Debye
        Dipole field         -0.0005 Ry au, 
 
        Potential amp.        0.0540 Ry
        Total length         54.7057 bohr
 

     total cpu time spent up to now is      531.0 secs

     total energy              =   -8078.58646666 Ry
     estimated scf accuracy    <       0.12411152 Ry

     total magnetization       =    95.91 Bohr mag/cell
     absolute magnetization    =    98.57 Bohr mag/cell

     iteration # 26     ecut=    50.00 Ry     beta= 0.10
     Davidson diagonalization with overlap
     c_bands:  1 eigenvalues not converged
     ethr =  1.12E-05,  avg # of iterations = 11.0

     negative rho (up, down):  4.424E-04 2.472E-04
 
     Adding external electric field

     Computed dipole along edir(3) : 
        Dipole               -0.7787 Ry au,         -1.9793 Debye
        Dipole field         -0.0005 Ry au, 
 
        Potential amp.        0.0511 Ry
        Total length         54.7057 bohr
 
 
     Adding external electric field

     Computed dipole along edir(3) : 
        Dipole               -0.7787 Ry au,         -1.9793 Debye
        Dipole field         -0.0005 Ry au, 
 
        Potential amp.        0.0511 Ry
        Total length         54.7057 bohr
 

     total cpu time spent up to now is      558.0 secs

     total energy              =   -8078.59642249 Ry
     estimated scf accuracy    <       0.12945534 Ry

     total magnetization       =    96.09 Bohr mag/cell
     absolute magnetization    =    98.24 Bohr mag/cell

     iteration # 27     ecut=    50.00 Ry     beta= 0.10
     Davidson diagonalization with overlap
     ethr =  1.12E-05,  avg # of iterations =  2.0

     negative rho (up, down):  9.182E-04 4.839E-04
 
     Adding external electric field

     Computed dipole along edir(3) : 
        Dipole               -0.7564 Ry au,         -1.9226 Debye
        Dipole field         -0.0005 Ry au, 
 
        Potential amp.        0.0496 Ry
        Total length         54.7057 bohr
 
 
     Adding external electric field

     Computed dipole along edir(3) : 
        Dipole               -0.7564 Ry au,         -1.9226 Debye
        Dipole field         -0.0005 Ry au, 
 
        Potential amp.        0.0496 Ry
        Total length         54.7057 bohr
 

     total cpu time spent up to now is      578.7 secs

     total energy              =   -8078.59802061 Ry
     estimated scf accuracy    <       0.11143396 Ry

     total magnetization       =    95.99 Bohr mag/cell
     absolute magnetization    =    97.72 Bohr mag/cell

     iteration # 28     ecut=    50.00 Ry     beta= 0.10
     Davidson diagonalization with overlap
     ethr =  1.01E-05,  avg # of iterations =  2.0

     negative rho (up, down):  4.316E-03 3.706E-03
 
     Adding external electric field

     Computed dipole along edir(3) : 
        Dipole               -0.6703 Ry au,         -1.7037 Debye
        Dipole field         -0.0004 Ry au, 
 
        Potential amp.        0.0440 Ry
        Total length         54.7057 bohr
 
 
     Adding external electric field

     Computed dipole along edir(3) : 
        Dipole               -0.6703 Ry au,         -1.7037 Debye
        Dipole field         -0.0004 Ry au, 
 
        Potential amp.        0.0440 Ry
        Total length         54.7057 bohr
 

     total cpu time spent up to now is      599.3 secs

     total energy              =   -8078.60042896 Ry
     estimated scf accuracy    <       0.07953978 Ry

     total magnetization       =    96.01 Bohr mag/cell
     absolute magnetization    =    97.71 Bohr mag/cell

     iteration # 29     ecut=    50.00 Ry     beta= 0.10
     Davidson diagonalization with overlap
     c_bands:  1 eigenvalues not converged
     ethr =  7.18E-06,  avg # of iterations = 11.0

     negative rho (up, down):  4.466E-03 3.884E-03
 
     Adding external electric field

     Computed dipole along edir(3) : 
        Dipole               -0.6760 Ry au,         -1.7182 Debye
        Dipole field         -0.0004 Ry au, 
 
        Potential amp.        0.0443 Ry
        Total length         54.7057 bohr
 
 
     Adding external electric field

     Computed dipole along edir(3) : 
        Dipole               -0.6760 Ry au,         -1.7182 Debye
        Dipole field         -0.0004 Ry au, 
 
        Potential amp.        0.0443 Ry
        Total length         54.7057 bohr
 

     total cpu time spent up to now is      634.1 secs

     total energy              =   -8078.60277313 Ry
     estimated scf accuracy    <       0.08350160 Ry

     total magnetization       =    95.97 Bohr mag/cell
     absolute magnetization    =    97.59 Bohr mag/cell

     iteration # 30     ecut=    50.00 Ry     beta= 0.10
     Davidson diagonalization with overlap
     ethr =  7.18E-06,  avg # of iterations =  1.5

     negative rho (up, down):  3.526E-03 2.949E-03
 
     Adding external electric field

     Computed dipole along edir(3) : 
        Dipole               -0.6707 Ry au,         -1.7048 Debye
        Dipole field         -0.0004 Ry au, 
 
        Potential amp.        0.0440 Ry
        Total length         54.7057 bohr
 
 
     Adding external electric field

     Computed dipole along edir(3) : 
        Dipole               -0.6707 Ry au,         -1.7048 Debye
        Dipole field         -0.0004 Ry au, 
 
        Potential amp.        0.0440 Ry
        Total length         54.7057 bohr
 

     total cpu time spent up to now is      653.9 secs

     total energy              =   -8078.60291542 Ry
     estimated scf accuracy    <       0.08202236 Ry

     total magnetization       =    95.93 Bohr mag/cell
     absolute magnetization    =    97.54 Bohr mag/cell

     iteration # 31     ecut=    50.00 Ry     beta= 0.10
     Davidson diagonalization with overlap
     ethr =  7.18E-06,  avg # of iterations =  1.5

     negative rho (up, down):  3.891E-03 3.273E-03
 
     Adding external electric field

     Computed dipole along edir(3) : 
        Dipole               -0.6762 Ry au,         -1.7188 Debye
        Dipole field         -0.0004 Ry au, 
 
        Potential amp.        0.0444 Ry
        Total length         54.7057 bohr
 
 
     Adding external electric field

     Computed dipole along edir(3) : 
        Dipole               -0.6762 Ry au,         -1.7188 Debye
        Dipole field         -0.0004 Ry au, 
 
        Potential amp.        0.0444 Ry
        Total length         54.7057 bohr
 

     total cpu time spent up to now is      672.9 secs

     total energy              =   -8078.60276844 Ry
     estimated scf accuracy    <       0.08362564 Ry

     total magnetization       =    96.10 Bohr mag/cell
     absolute magnetization    =    97.66 Bohr mag/cell

     iteration # 32     ecut=    50.00 Ry     beta= 0.10
     Davidson diagonalization with overlap
     ethr =  7.18E-06,  avg # of iterations =  1.0

     negative rho (up, down):  2.435E-03 1.800E-03
 
     Adding external electric field

     Computed dipole along edir(3) : 
        Dipole               -0.6290 Ry au,         -1.5987 Debye
        Dipole field         -0.0004 Ry au, 
 
        Potential amp.        0.0413 Ry
        Total length         54.7057 bohr
 
 
     Adding external electric field

     Computed dipole along edir(3) : 
        Dipole               -0.6290 Ry au,         -1.5987 Debye
        Dipole field         -0.0004 Ry au, 
 
        Potential amp.        0.0413 Ry
        Total length         54.7057 bohr
 

     total cpu time spent up to now is      691.2 secs

     total energy              =   -8078.60253639 Ry
     estimated scf accuracy    <       0.08812066 Ry

     total magnetization       =    96.15 Bohr mag/cell
     absolute magnetization    =    97.72 Bohr mag/cell

     iteration # 33     ecut=    50.00 Ry     beta= 0.10
     Davidson diagonalization with overlap
     ethr =  7.18E-06,  avg # of iterations =  2.0

     negative rho (up, down):  5.522E-03 3.674E-03
 
     Adding external electric field

     Computed dipole along edir(3) : 
        Dipole               -0.4704 Ry au,         -1.1956 Debye
        Dipole field         -0.0003 Ry au, 
 
        Potential amp.        0.0309 Ry
        Total length         54.7057 bohr
 
 
     Adding external electric field

     Computed dipole along edir(3) : 
        Dipole               -0.4704 Ry au,         -1.1956 Debye
        Dipole field         -0.0003 Ry au, 
 
        Potential amp.        0.0309 Ry
        Total length         54.7057 bohr
 

     total cpu time spent up to now is      711.9 secs

     total energy              =   -8078.59626222 Ry
     estimated scf accuracy    <       0.07498977 Ry

     total magnetization       =    95.62 Bohr mag/cell
     absolute magnetization    =    97.08 Bohr mag/cell

     iteration # 34     ecut=    50.00 Ry     beta= 0.10
     Davidson diagonalization with overlap
     c_bands:  4 eigenvalues not converged
     ethr =  6.77E-06,  avg # of iterations = 11.0

     negative rho (up, down):  9.195E-03 6.682E-03
 
     Adding external electric field

     Computed dipole along edir(3) : 
        Dipole               -0.4088 Ry au,         -1.0391 Debye
        Dipole field         -0.0002 Ry au, 
 
        Potential amp.        0.0268 Ry
        Total length         54.7057 bohr
 
 
     Adding external electric field

     Computed dipole along edir(3) : 
        Dipole               -0.4088 Ry au,         -1.0391 Debye
        Dipole field         -0.0002 Ry au, 
 
        Potential amp.        0.0268 Ry
        Total length         54.7057 bohr
 

     total cpu time spent up to now is      742.5 secs

     total energy              =   -8078.59919138 Ry
     estimated scf accuracy    <       0.07692595 Ry

     total magnetization       =    95.94 Bohr mag/cell
     absolute magnetization    =    97.42 Bohr mag/cell

     iteration # 35     ecut=    50.00 Ry     beta= 0.10
     Davidson diagonalization with overlap
     ethr =  6.77E-06,  avg # of iterations =  1.5

     negative rho (up, down):  8.506E-03 5.954E-03
 
     Adding external electric field

     Computed dipole along edir(3) : 
        Dipole               -0.4233 Ry au,         -1.0758 Debye
        Dipole field         -0.0003 Ry au, 
 
        Potential amp.        0.0278 Ry
        Total length         54.7057 bohr
 
 
     Adding external electric field

     Computed dipole along edir(3) : 
        Dipole               -0.4233 Ry au,         -1.0758 Debye
        Dipole field         -0.0003 Ry au, 
 
        Potential amp.        0.0278 Ry
        Total length         54.7057 bohr
 

     total cpu time spent up to now is      762.7 secs

     total energy              =   -8078.59853674 Ry
     estimated scf accuracy    <       0.06448785 Ry

     total magnetization       =    95.92 Bohr mag/cell
     absolute magnetization    =    97.35 Bohr mag/cell

     iteration # 36     ecut=    50.00 Ry     beta= 0.10
     Davidson diagonalization with overlap
     ethr =  5.82E-06,  avg # of iterations =  1.0

     negative rho (up, down):  1.385E-02 1.210E-02
 
     Adding external electric field

     Computed dipole along edir(3) : 
        Dipole               -0.3463 Ry au,         -0.8803 Debye
        Dipole field         -0.0002 Ry au, 
 
        Potential amp.        0.0227 Ry
        Total length         54.7057 bohr
 
 
     Adding external electric field

     Computed dipole along edir(3) : 
        Dipole               -0.3463 Ry au,         -0.8803 Debye
        Dipole field         -0.0002 Ry au, 
 
        Potential amp.        0.0227 Ry
        Total length         54.7057 bohr
 

     total cpu time spent up to now is      783.7 secs

     total energy              =   -8078.60327396 Ry
     estimated scf accuracy    <       0.06681656 Ry

     total magnetization       =    95.93 Bohr mag/cell
     absolute magnetization    =    97.33 Bohr mag/cell

     iteration # 37     ecut=    50.00 Ry     beta= 0.10
     Davidson diagonalization with overlap
     ethr =  5.82E-06,  avg # of iterations =  2.0

     negative rho (up, down):  1.467E-02 1.462E-02
 
     Adding external electric field

     Computed dipole along edir(3) : 
        Dipole               -0.3084 Ry au,         -0.7838 Debye
        Dipole field         -0.0002 Ry au, 
 
        Potential amp.        0.0202 Ry
        Total length         54.7057 bohr
 
 
     Adding external electric field

     Computed dipole along edir(3) : 
        Dipole               -0.3084 Ry au,         -0.7838 Debye
        Dipole field         -0.0002 Ry au, 
 
        Potential amp.        0.0202 Ry
        Total length         54.7057 bohr
 

     total cpu time spent up to now is      804.1 secs

     total energy              =   -8078.60551005 Ry
     estimated scf accuracy    <       0.05355088 Ry

     total magnetization       =    95.79 Bohr mag/cell
     absolute magnetization    =    97.22 Bohr mag/cell

     iteration # 38     ecut=    50.00 Ry     beta= 0.10
     Davidson diagonalization with overlap
     ethr =  4.83E-06,  avg # of iterations =  1.5

     negative rho (up, down):  1.169E-02 1.158E-02
 
     Adding external electric field

     Computed dipole along edir(3) : 
        Dipole               -0.3615 Ry au,         -0.9190 Debye
        Dipole field         -0.0002 Ry au, 
 
        Potential amp.        0.0237 Ry
        Total length         54.7057 bohr
 
 
     Adding external electric field

     Computed dipole along edir(3) : 
        Dipole               -0.3615 Ry au,         -0.9190 Debye
        Dipole field         -0.0002 Ry au, 
 
        Potential amp.        0.0237 Ry
        Total length         54.7057 bohr
 

     total cpu time spent up to now is      823.8 secs

     total energy              =   -8078.60528291 Ry
     estimated scf accuracy    <       0.05271857 Ry

     total magnetization       =    95.72 Bohr mag/cell
     absolute magnetization    =    97.11 Bohr mag/cell

     iteration # 39     ecut=    50.00 Ry     beta= 0.10
     Davidson diagonalization with overlap
     ethr =  4.76E-06,  avg # of iterations =  1.5

     negative rho (up, down):  5.875E-03 6.247E-03
 
     Adding external electric field

     Computed dipole along edir(3) : 
        Dipole               -0.3502 Ry au,         -0.8900 Debye
        Dipole field         -0.0002 Ry au, 
 
        Potential amp.        0.0230 Ry
        Total length         54.7057 bohr
 
 
     Adding external electric field

     Computed dipole along edir(3) : 
        Dipole               -0.3502 Ry au,         -0.8900 Debye
        Dipole field         -0.0002 Ry au, 
 
        Potential amp.        0.0230 Ry
        Total length         54.7057 bohr
 

     total cpu time spent up to now is      843.2 secs

     total energy              =   -8078.60429243 Ry
     estimated scf accuracy    <       0.05333580 Ry

     total magnetization       =    95.72 Bohr mag/cell
     absolute magnetization    =    97.15 Bohr mag/cell

     iteration # 40     ecut=    50.00 Ry     beta= 0.10
     Davidson diagonalization with overlap
     ethr =  4.76E-06,  avg # of iterations =  2.0

     negative rho (up, down):  5.245E-03 5.481E-03
 
     Adding external electric field

     Computed dipole along edir(3) : 
        Dipole               -0.3488 Ry au,         -0.8865 Debye
        Dipole field         -0.0002 Ry au, 
 
        Potential amp.        0.0229 Ry
        Total length         54.7057 bohr
 
 
     Adding external electric field

     Computed dipole along edir(3) : 
        Dipole               -0.3488 Ry au,         -0.8865 Debye
        Dipole field         -0.0002 Ry au, 
 
        Potential amp.        0.0229 Ry
        Total length         54.7057 bohr
 

     total cpu time spent up to now is      864.3 secs

     total energy              =   -8078.60506483 Ry
     estimated scf accuracy    <       0.03565100 Ry

     total magnetization       =    95.79 Bohr mag/cell
     absolute magnetization    =    97.23 Bohr mag/cell

     iteration # 41     ecut=    50.00 Ry     beta= 0.10
     Davidson diagonalization with overlap
     ethr =  3.22E-06,  avg # of iterations =  1.0

     negative rho (up, down):  6.360E-03 6.436E-03
 
     Adding external electric field

     Computed dipole along edir(3) : 
        Dipole               -0.3275 Ry au,         -0.8325 Debye
        Dipole field         -0.0002 Ry au, 
 
        Potential amp.        0.0215 Ry
        Total length         54.7057 bohr
 
 
     Adding external electric field

     Computed dipole along edir(3) : 
        Dipole               -0.3275 Ry au,         -0.8325 Debye
        Dipole field         -0.0002 Ry au, 
 
        Potential amp.        0.0215 Ry
        Total length         54.7057 bohr
 

     total cpu time spent up to now is      882.6 secs

     total energy              =   -8078.60545340 Ry
     estimated scf accuracy    <       0.03291138 Ry

     total magnetization       =    95.79 Bohr mag/cell
     absolute magnetization    =    97.21 Bohr mag/cell

     iteration # 42     ecut=    50.00 Ry     beta= 0.10
     Davidson diagonalization with overlap
     ethr =  2.97E-06,  avg # of iterations =  1.5

     negative rho (up, down):  5.309E-03 5.263E-03
 
     Adding external electric field

     Computed dipole along edir(3) : 
        Dipole               -0.3267 Ry au,         -0.8305 Debye
        Dipole field         -0.0002 Ry au, 
 
        Potential amp.        0.0214 Ry
        Total length         54.7057 bohr
 
 
     Adding external electric field

     Computed dipole along edir(3) : 
        Dipole               -0.3267 Ry au,         -0.8305 Debye
        Dipole field         -0.0002 Ry au, 
 
        Potential amp.        0.0214 Ry
        Total length         54.7057 bohr
 

     total cpu time spent up to now is      901.8 secs

     total energy              =   -8078.60543335 Ry
     estimated scf accuracy    <       0.03176792 Ry

     total magnetization       =    95.75 Bohr mag/cell
     absolute magnetization    =    97.15 Bohr mag/cell

     iteration # 43     ecut=    50.00 Ry     beta= 0.10
     Davidson diagonalization with overlap
     ethr =  2.87E-06,  avg # of iterations =  1.0

     negative rho (up, down):  6.966E-03 6.385E-03
 
     Adding external electric field

     Computed dipole along edir(3) : 
        Dipole               -0.2534 Ry au,         -0.6441 Debye
        Dipole field         -0.0002 Ry au, 
 
        Potential amp.        0.0166 Ry
        Total length         54.7057 bohr
 
 
     Adding external electric field

     Computed dipole along edir(3) : 
        Dipole               -0.2534 Ry au,         -0.6441 Debye
        Dipole field         -0.0002 Ry au, 
 
        Potential amp.        0.0166 Ry
        Total length         54.7057 bohr
 

     total cpu time spent up to now is      919.7 secs

     total energy              =   -8078.60489058 Ry
     estimated scf accuracy    <       0.03030508 Ry

     total magnetization       =    95.77 Bohr mag/cell
     absolute magnetization    =    97.16 Bohr mag/cell

     iteration # 44     ecut=    50.00 Ry     beta= 0.10
     Davidson diagonalization with overlap
     ethr =  2.74E-06,  avg # of iterations =  1.5

     negative rho (up, down):  6.655E-03 5.916E-03
 
     Adding external electric field

     Computed dipole along edir(3) : 
        Dipole               -0.2198 Ry au,         -0.5587 Debye
        Dipole field         -0.0001 Ry au, 
 
        Potential amp.        0.0144 Ry
        Total length         54.7057 bohr
 
 
     Adding external electric field

     Computed dipole along edir(3) : 
        Dipole               -0.2198 Ry au,         -0.5587 Debye
        Dipole field         -0.0001 Ry au, 
 
        Potential amp.        0.0144 Ry
        Total length         54.7057 bohr
 

     total cpu time spent up to now is      939.0 secs

     total energy              =   -8078.60518962 Ry
     estimated scf accuracy    <       0.03010276 Ry

     total magnetization       =    95.91 Bohr mag/cell
     absolute magnetization    =    97.26 Bohr mag/cell

     iteration # 45     ecut=    50.00 Ry     beta= 0.10
     Davidson diagonalization with overlap
     ethr =  2.72E-06,  avg # of iterations =  1.5

     negative rho (up, down):  6.398E-03 5.736E-03
 
     Adding external electric field

     Computed dipole along edir(3) : 
        Dipole               -0.2091 Ry au,         -0.5314 Debye
        Dipole field         -0.0001 Ry au, 
 
        Potential amp.        0.0137 Ry
        Total length         54.7057 bohr
 
 
     Adding external electric field

     Computed dipole along edir(3) : 
        Dipole               -0.2091 Ry au,         -0.5314 Debye
        Dipole field         -0.0001 Ry au, 
 
        Potential amp.        0.0137 Ry
        Total length         54.7057 bohr
 

     total cpu time spent up to now is      957.9 secs

     total energy              =   -8078.60525975 Ry
     estimated scf accuracy    <       0.02798071 Ry

     total magnetization       =    95.93 Bohr mag/cell
     absolute magnetization    =    97.31 Bohr mag/cell

     iteration # 46     ecut=    50.00 Ry     beta= 0.10
     Davidson diagonalization with overlap
     ethr =  2.53E-06,  avg # of iterations =  1.5

     negative rho (up, down):  8.300E-03 6.748E-03
 
     Adding external electric field

     Computed dipole along edir(3) : 
        Dipole               -0.1483 Ry au,         -0.3769 Debye
        Dipole field         -0.0001 Ry au, 
 
        Potential amp.        0.0097 Ry
        Total length         54.7057 bohr
 
 
     Adding external electric field

     Computed dipole along edir(3) : 
        Dipole               -0.1483 Ry au,         -0.3769 Debye
        Dipole field         -0.0001 Ry au, 
 
        Potential amp.        0.0097 Ry
        Total length         54.7057 bohr
 

     total cpu time spent up to now is      977.0 secs

     total energy              =   -8078.60431775 Ry
     estimated scf accuracy    <       0.02722324 Ry

     total magnetization       =    95.93 Bohr mag/cell
     absolute magnetization    =    97.34 Bohr mag/cell

     iteration # 47     ecut=    50.00 Ry     beta= 0.10
     Davidson diagonalization with overlap
     ethr =  2.46E-06,  avg # of iterations =  2.0

     negative rho (up, down):  1.240E-02 1.029E-02
 
     Adding external electric field

     Computed dipole along edir(3) : 
        Dipole               -0.0701 Ry au,         -0.1781 Debye
        Dipole field         -0.0000 Ry au, 
 
        Potential amp.        0.0046 Ry
        Total length         54.7057 bohr
 
 
     Adding external electric field

     Computed dipole along edir(3) : 
        Dipole               -0.0701 Ry au,         -0.1781 Debye
        Dipole field         -0.0000 Ry au, 
 
        Potential amp.        0.0046 Ry
        Total length         54.7057 bohr
 

     total cpu time spent up to now is      998.0 secs

     total energy              =   -8078.60407187 Ry
     estimated scf accuracy    <       0.01944236 Ry

     total magnetization       =    95.98 Bohr mag/cell
     absolute magnetization    =    97.42 Bohr mag/cell

     iteration # 48     ecut=    50.00 Ry     beta= 0.10
     Davidson diagonalization with overlap
     ethr =  1.75E-06,  avg # of iterations =  6.5

     negative rho (up, down):  1.851E-02 1.773E-02
 
     Adding external electric field

     Computed dipole along edir(3) : 
        Dipole               -0.0420 Ry au,         -0.1067 Debye
        Dipole field         -0.0000 Ry au, 
 
        Potential amp.        0.0028 Ry
        Total length         54.7057 bohr
 
 
     Adding external electric field

     Computed dipole along edir(3) : 
        Dipole               -0.0420 Ry au,         -0.1067 Debye
        Dipole field         -0.0000 Ry au, 
 
        Potential amp.        0.0028 Ry
        Total length         54.7057 bohr
 

     total cpu time spent up to now is     1022.6 secs

     total energy              =   -8078.60508808 Ry
     estimated scf accuracy    <       0.01138178 Ry

     total magnetization       =    96.02 Bohr mag/cell
     absolute magnetization    =    97.49 Bohr mag/cell

     iteration # 49     ecut=    50.00 Ry     beta= 0.10
     Davidson diagonalization with overlap
     ethr =  1.03E-06,  avg # of iterations =  3.0

     negative rho (up, down):  1.822E-02 1.984E-02
 
     Adding external electric field

     Computed dipole along edir(3) : 
        Dipole               -0.0906 Ry au,         -0.2304 Debye
        Dipole field         -0.0001 Ry au, 
 
        Potential amp.        0.0059 Ry
        Total length         54.7057 bohr
 
 
     Adding external electric field

     Computed dipole along edir(3) : 
        Dipole               -0.0906 Ry au,         -0.2304 Debye
        Dipole field         -0.0001 Ry au, 
 
        Potential amp.        0.0059 Ry
        Total length         54.7057 bohr
 

     total cpu time spent up to now is     1043.6 secs

     total energy              =   -8078.60492764 Ry
     estimated scf accuracy    <       0.00689313 Ry

     total magnetization       =    95.99 Bohr mag/cell
     absolute magnetization    =    97.45 Bohr mag/cell

     iteration # 50     ecut=    50.00 Ry     beta= 0.10
     Davidson diagonalization with overlap
     ethr =  6.22E-07,  avg # of iterations =  2.0

     negative rho (up, down):  1.130E-02 1.261E-02
 
     Adding external electric field

     Computed dipole along edir(3) : 
        Dipole               -0.1816 Ry au,         -0.4615 Debye
        Dipole field         -0.0001 Ry au, 
 
        Potential amp.        0.0119 Ry
        Total length         54.7057 bohr
 
 
     Adding external electric field

     Computed dipole along edir(3) : 
        Dipole               -0.1816 Ry au,         -0.4615 Debye
        Dipole field         -0.0001 Ry au, 
 
        Potential amp.        0.0119 Ry
        Total length         54.7057 bohr
 

     total cpu time spent up to now is     1064.7 secs

     total energy              =   -8078.60440099 Ry
     estimated scf accuracy    <       0.00375135 Ry

     total magnetization       =    95.87 Bohr mag/cell
     absolute magnetization    =    97.31 Bohr mag/cell

     iteration # 51     ecut=    50.00 Ry     beta= 0.10
     Davidson diagonalization with overlap
     ethr =  3.39E-07,  avg # of iterations =  2.0

     negative rho (up, down):  5.024E-03 5.310E-03
 
     Adding external electric field

     Computed dipole along edir(3) : 
        Dipole               -0.2579 Ry au,         -0.6556 Debye
        Dipole field         -0.0002 Ry au, 
 
        Potential amp.        0.0169 Ry
        Total length         54.7057 bohr
 
 
     Adding external electric field

     Computed dipole along edir(3) : 
        Dipole               -0.2579 Ry au,         -0.6556 Debye
        Dipole field         -0.0002 Ry au, 
 
        Potential amp.        0.0169 Ry
        Total length         54.7057 bohr
 

     total cpu time spent up to now is     1085.0 secs

     total energy              =   -8078.60445999 Ry
     estimated scf accuracy    <       0.00144894 Ry

     total magnetization       =    95.84 Bohr mag/cell
     absolute magnetization    =    97.27 Bohr mag/cell

     iteration # 52     ecut=    50.00 Ry     beta= 0.10
     Davidson diagonalization with overlap
     c_bands:  3 eigenvalues not converged
     ethr =  1.31E-07,  avg # of iterations = 11.0

     negative rho (up, down):  2.267E-03 2.300E-03
 
     Adding external electric field

     Computed dipole along edir(3) : 
        Dipole               -0.2950 Ry au,         -0.7497 Debye
        Dipole field         -0.0002 Ry au, 
 
        Potential amp.        0.0193 Ry
        Total length         54.7057 bohr
 
 
     Adding external electric field

     Computed dipole along edir(3) : 
        Dipole               -0.2950 Ry au,         -0.7497 Debye
        Dipole field         -0.0002 Ry au, 
 
        Potential amp.        0.0193 Ry
        Total length         54.7057 bohr
 

     total cpu time spent up to now is     1113.1 secs

     total energy              =   -8078.60445061 Ry
     estimated scf accuracy    <       0.00059167 Ry

     total magnetization       =    95.86 Bohr mag/cell
     absolute magnetization    =    97.26 Bohr mag/cell

     iteration # 53     ecut=    50.00 Ry     beta= 0.10
     Davidson diagonalization with overlap
     ethr =  5.34E-08,  avg # of iterations =  2.0

     negative rho (up, down):  1.237E-03 1.131E-03
 
     Adding external electric field

     Computed dipole along edir(3) : 
        Dipole               -0.3091 Ry au,         -0.7856 Debye
        Dipole field         -0.0002 Ry au, 
 
        Potential amp.        0.0203 Ry
        Total length         54.7057 bohr
 
 
     Adding external electric field

     Computed dipole along edir(3) : 
        Dipole               -0.3091 Ry au,         -0.7856 Debye
        Dipole field         -0.0002 Ry au, 
 
        Potential amp.        0.0203 Ry
        Total length         54.7057 bohr
 

     total cpu time spent up to now is     1133.1 secs

     total energy              =   -8078.60448855 Ry
     estimated scf accuracy    <       0.00028682 Ry

     total magnetization       =    95.86 Bohr mag/cell
     absolute magnetization    =    97.26 Bohr mag/cell

     iteration # 54     ecut=    50.00 Ry     beta= 0.10
     Davidson diagonalization with overlap
     ethr =  2.59E-08,  avg # of iterations =  2.0

     negative rho (up, down):  7.271E-04 4.461E-04
 
     Adding external electric field

     Computed dipole along edir(3) : 
        Dipole               -0.3080 Ry au,         -0.7830 Debye
        Dipole field         -0.0002 Ry au, 
 
        Potential amp.        0.0202 Ry
        Total length         54.7057 bohr
 
 
     Adding external electric field

     Computed dipole along edir(3) : 
        Dipole               -0.3080 Ry au,         -0.7830 Debye
        Dipole field         -0.0002 Ry au, 
 
        Potential amp.        0.0202 Ry
        Total length         54.7057 bohr
 

     total cpu time spent up to now is     1154.5 secs

     total energy              =   -8078.60454119 Ry
     estimated scf accuracy    <       0.00019070 Ry

     total magnetization       =    95.86 Bohr mag/cell
     absolute magnetization    =    97.25 Bohr mag/cell

     iteration # 55     ecut=    50.00 Ry     beta= 0.10
     Davidson diagonalization with overlap
     ethr =  1.72E-08,  avg # of iterations =  2.0

     negative rho (up, down):  3.992E-04 1.218E-04
 
     Adding external electric field

     Computed dipole along edir(3) : 
        Dipole               -0.3143 Ry au,         -0.7989 Debye
        Dipole field         -0.0002 Ry au, 
 
        Potential amp.        0.0206 Ry
        Total length         54.7057 bohr
 
 
     Adding external electric field

     Computed dipole along edir(3) : 
        Dipole               -0.3143 Ry au,         -0.7989 Debye
        Dipole field         -0.0002 Ry au, 
 
        Potential amp.        0.0206 Ry
        Total length         54.7057 bohr
 

     total cpu time spent up to now is     1175.9 secs

     total energy              =   -8078.60455920 Ry
     estimated scf accuracy    <       0.00008787 Ry

     total magnetization       =    95.86 Bohr mag/cell
     absolute magnetization    =    97.23 Bohr mag/cell

     iteration # 56     ecut=    50.00 Ry     beta= 0.10
     Davidson diagonalization with overlap
     ethr =  7.93E-09,  avg # of iterations =  2.0

     negative rho (up, down):  4.292E-04 1.080E-04
 
     Adding external electric field

     Computed dipole along edir(3) : 
        Dipole               -0.3140 Ry au,         -0.7981 Debye
        Dipole field         -0.0002 Ry au, 
 
        Potential amp.        0.0206 Ry
        Total length         54.7057 bohr
 
 
     Adding external electric field

     Computed dipole along edir(3) : 
        Dipole               -0.3140 Ry au,         -0.7981 Debye
        Dipole field         -0.0002 Ry au, 
 
        Potential amp.        0.0206 Ry
        Total length         54.7057 bohr
 

     total cpu time spent up to now is     1196.0 secs

     total energy              =   -8078.60456788 Ry
     estimated scf accuracy    <       0.00006160 Ry

     total magnetization       =    95.86 Bohr mag/cell
     absolute magnetization    =    97.23 Bohr mag/cell

     iteration # 57     ecut=    50.00 Ry     beta= 0.10
     Davidson diagonalization with overlap
     ethr =  5.56E-09,  avg # of iterations =  2.0

     negative rho (up, down):  3.510E-04 5.882E-05
 
     Adding external electric field

     Computed dipole along edir(3) : 
        Dipole               -0.3153 Ry au,         -0.8015 Debye
        Dipole field         -0.0002 Ry au, 
 
        Potential amp.        0.0207 Ry
        Total length         54.7057 bohr
 
 
     Adding external electric field

     Computed dipole along edir(3) : 
        Dipole               -0.3153 Ry au,         -0.8015 Debye
        Dipole field         -0.0002 Ry au, 
 
        Potential amp.        0.0207 Ry
        Total length         54.7057 bohr
 

     total cpu time spent up to now is     1217.6 secs

     total energy              =   -8078.60456898 Ry
     estimated scf accuracy    <       0.00004693 Ry

     total magnetization       =    95.86 Bohr mag/cell
     absolute magnetization    =    97.22 Bohr mag/cell

     iteration # 58     ecut=    50.00 Ry     beta= 0.10
     Davidson diagonalization with overlap
     ethr =  4.24E-09,  avg # of iterations =  2.0

     negative rho (up, down):  4.263E-04 9.626E-05
 
     Adding external electric field

     Computed dipole along edir(3) : 
[...]
    -6.0351  -6.0222  -6.0192  -5.9854  -5.9490  -5.9356  -5.9184  -5.8955
    -5.8840  -5.8749  -5.8645  -5.8236  -5.8116  -5.7903  -5.7526  -5.7263
    -5.7238  -5.7179  -5.6842  -5.6614  -5.6336  -5.6276  -5.6114  -5.5935
    -5.5865  -5.5680  -5.5432  -5.5312  -5.5284  -5.5189  -5.4975  -5.4315
    -5.4056  -5.3684  -5.3454  -5.2997  -5.2983  -5.2888  -5.2732  -5.2095
    -5.1838  -5.1709  -5.1671  -5.1190  -5.0880  -5.0399  -5.0207  -4.9635
    -4.9149  -4.9119  -4.8667  -4.8541  -4.8351  -4.8251  -4.7955  -4.7830
    -4.7031  -4.6789  -4.6699  -4.6394  -4.6130  -4.5952  -4.4821  -4.4583
    -4.4428  -4.4298  -4.4181  -4.3667  -4.3391  -4.3121  -4.2626  -4.2480
    -4.2283  -4.2206  -4.1527  -4.1132  -4.0906  -4.0761  -4.0260  -4.0123
    -3.9391  -3.9027  -3.8914  -3.8794  -3.8745  -3.8174  -3.7916  -3.7828
    -3.7771  -3.7603  -3.7321  -3.7090  -3.6648  -3.6514  -3.6448  -3.6316
    -3.5997  -3.5836  -3.5691  -3.5610  -3.5456  -3.5293  -3.5273  -3.4928
    -3.4684  -3.4527  -3.4467  -3.4238  -3.4171  -3.4165  -3.3718  -3.3583
    -3.3418  -3.3355  -3.3144  -3.3004  -3.2632  -3.2583  -3.2175  -3.2019
    -3.1913  -3.1495  -3.1382  -3.1155  -3.1021  -3.0882  -3.0742  -3.0459
    -3.0270  -3.0023  -2.9707  -2.9448  -2.9390  -2.9095  -2.8968  -2.8676
    -2.8587  -2.8277  -2.7933  -2.7675  -2.7500  -2.7378  -2.7326  -2.7194
    -2.7105  -2.6975  -2.6963  -2.6796  -2.6562  -2.6514  -2.6359  -2.6300
    -2.6190  -2.5888  -2.5751  -2.5714  -2.5495  -2.5460  -2.5397  -2.5156
    -2.4851  -2.4766  -2.4515  -2.4369  -2.4253  -2.4009  -2.3811  -2.3655
    -2.3409  -2.3348  -2.3229  -2.3117  -2.2757  -2.2571  -2.2371  -2.2356
    -2.2211  -2.2035  -2.1765  -2.1485  -2.1357  -2.1086  -2.1000  -2.0692
    -2.0633  -2.0528  -2.0269  -2.0142  -1.9999  -1.9723  -1.9546  -1.9323
    -1.9217  -1.9150  -1.9111  -1.8826  -1.8768  -1.8555  -1.8483  -1.8378
    -1.7730  -1.7619  -1.7367  -1.7146  -1.6995  -1.6754  -1.6714  -1.6524
    -1.6468  -1.6271  -1.6200  -1.6032  -1.5807  -1.5616  -1.5438  -1.5118
    -1.4886  -1.4715  -1.4337  -1.4220  -1.4032  -1.3936  -1.3726  -1.3562
    -1.3506  -1.3399  -1.3254  -1.2691  -1.2444  -1.2251  -1.2121  -1.1518
    -1.1373  -1.1124  -1.0466  -1.0448  -1.0345  -1.0234  -0.8833  -0.8402
    -0.7803  -0.7316  -0.6554  -0.6337  -0.4973  -0.4762  -0.4543  -0.3158
     0.1361   0.1493   0.1920   0.2094   0.2190   0.2446   0.2658   0.2738
     0.2888   0.2963   0.3008   0.3270   0.3308   0.3420   0.3426   0.3488
     0.3627   0.3672   0.3747   0.3823   0.3924   0.4001   0.4152   0.4240
     0.4292   0.4334   0.4396   0.4454   0.4478   0.4665   0.4752   0.4793
     0.4848   0.4918   0.4942   0.5096   0.5166   0.5270   0.5352   0.5397
     0.5606   0.5667   0.5795   0.5914   0.5961   0.5969   0.6093   0.6201
     0.6275   0.6301   0.6373   0.6521   0.6695   0.6815   0.6851   0.6896
     0.6988   0.6996   0.7076   0.7263   0.7376   0.7421   0.7656   0.7664
     0.7715   0.7805   0.7838   0.8082   0.8140   0.8279   0.8328   0.8343
     0.8669   0.8778   0.9263   0.9404   0.9818   0.9870   1.0231   1.0902
     1.1095   1.7189   1.7252   1.7419   1.7643   1.7772   1.7841   1.7921
     1.8191   1.8425   1.8533   1.8870   1.9132   1.9305   1.9526   1.9795
     2.0006   2.0233   2.0404   2.0515   2.0590   2.0746   2.0863   2.1156
     2.1401   2.1569   2.1615   2.1682   2.1773   2.2167   2.2263   2.2421
     2.2554   2.2631   2.2868   2.3044   2.3061   2.3233   2.3473   2.3593
     2.3855   2.4018   2.4224   2.4448   2.4683   2.4717   2.4860   2.5627
     2.5745   2.6143   2.6978   2.7220   2.7630   2.7639   2.8217   3.3235
     3.5016   3.6542   3.7176   3.7223   3.7472   3.8106   3.8447   3.8762
     3.9030   3.9117   3.9402   3.9634   3.9823   3.9882   4.0195   4.0335
     4.0469   4.0650   4.0978   4.1066   4.1235   4.1538   4.1706   4.1901
     4.1981   4.2116   4.2284   4.2714   4.3613   4.4114   4.5591   4.7419
     4.7675   4.8274   4.8411   4.8834   4.9390   4.9493   4.9695   5.0302
     5.0561   5.0737   5.1164   5.1392   5.1801   5.1829   5.3258   6.1298
     6.3169   6.3997   6.5372   6.6074   6.6597   6.6696   6.7282   6.8133
     6.8917   6.9108   6.9565   6.9803   7.1681   7.2435   7.2873   7.3111
     7.3444   7.3939   7.4469   7.4963   7.5359   7.5440   7.6447   7.6709
     7.7771   7.8333   7.8417   7.8796   7.9096   7.9491   7.9584   7.9810
     8.0244   8.0430   8.0751   8.1222   8.1561   8.1775   8.1957   8.2340
     8.2621   8.2843   8.3068   8.3183   8.3512   8.3559   8.3856   8.4186
     8.4277   8.4476   8.4848   8.5171   8.5304   8.5436   8.5763   8.5940
     8.6073

     the Fermi energy is     1.6494 ev

!    total energy              =   -8078.60457866 Ry
     estimated scf accuracy    <       0.00000068 Ry
     smearing contrib. (-TS)   =      -0.02256541 Ry
     internal energy E=F+TS    =   -8078.58201326 Ry

     The total energy is F=E-TS. E is the sum of the following terms:
     one-electron contribution =  -94726.73105309 Ry
     hartree contribution      =   47946.43575927 Ry
     xc contribution           =   -2177.32956319 Ry
     ewald contribution        =   40880.81303887 Ry
     Dispersion Correction     =      -1.77025098 Ry
     electric field correction =       0.00005587 Ry

     total magnetization       =    95.86 Bohr mag/cell
     absolute magnetization    =    97.22 Bohr mag/cell

     convergence has been achieved in  66 iterations

     negative rho (up, down):  1.165E-03 6.334E-04

     Forces acting on atoms (cartesian axes, Ry/au):

     atom    1 type  1   force =     0.02409514   -0.01778844    0.01989564
     atom    2 type  1   force =    -0.00195792    0.00012036   -0.00557757
     atom    3 type  2   force =    -0.03015661   -0.01540933   -0.00859393
     atom    4 type  1   force =     0.00193178   -0.00331060   -0.00452179
     atom    5 type  1   force =    -0.00376735    0.00210979   -0.00183214
     atom    6 type  1   force =     0.00244893    0.00752923   -0.00427983
     atom    7 type  1   force =     0.03189507   -0.01964746    0.01770446
     atom    8 type  2   force =    -0.00186032    0.00015576   -0.00914010
     atom    9 type  2   force =    -0.02877566   -0.01504685   -0.00860847
     atom   10 type  1   force =     0.00198031   -0.00303741   -0.00428231
     atom   11 type  1   force =    -0.00339685    0.00253310   -0.00098557
     atom   12 type  1   force =     0.00367428    0.00693463   -0.00377432
     atom   13 type  3   force =     0.00212009    0.00072572   -0.00763855
     atom   14 type  3   force =    -0.02976016    0.04990921   -0.06596396
     atom   15 type  3   force =     0.03466877    0.03760807   -0.05982042
     atom   16 type  3   force =    -0.00442212    0.00308588   -0.00099811
     atom   17 type  4   force =    -0.00202130    0.00132486    0.00279999
     atom   18 type  4   force =    -0.00161699   -0.00516257    0.02738498
     atom   19 type  4   force =     0.00398600    0.00284829    0.02953113
     atom   20 type  4   force =     0.00006010   -0.00271004   -0.00485681
     atom   21 type  4   force =    -0.00301880   -0.00229891    0.00340555
     atom   22 type  4   force =     0.00472671   -0.00328848    0.03423303
     atom   23 type  4   force =    -0.00597584   -0.00105697    0.03242557
     atom   24 type  4   force =     0.00066045   -0.00098309    0.00009514
     atom   25 type  4   force =    -0.00134688    0.00082736    0.00219180
     atom   26 type  4   force =    -0.01449938   -0.02277767   -0.00182882
     atom   27 type  4   force =     0.00176724   -0.00069891    0.00121808
     atom   28 type  4   force =    -0.01770626    0.00340220    0.00119299
     atom   29 type  4   force =     0.02065891   -0.00459619    0.00829898
     atom   30 type  4   force =     0.01241841   -0.03409766    0.00113462
     atom   31 type  4   force =     0.00050294    0.00096546    0.00235934
     atom   32 type  4   force =    -0.00210986    0.00005579    0.00269446
     atom   33 type  3   force =    -0.00057625   -0.00164208   -0.00511281
     atom   34 type  3   force =    -0.03022757    0.05981857   -0.08316122
     atom   35 type  3   force =     0.03461320    0.03341214   -0.05925510
     atom   36 type  3   force =    -0.00386053    0.00470753   -0.00078438
     atom   37 type  4   force =    -0.00108046    0.00131423    0.00305114
     atom   38 type  4   force =    -0.00306016   -0.00557010    0.03296286
     atom   39 type  4   force =     0.00444710    0.00396273    0.02928901
     atom   40 type  4   force =     0.00020224   -0.00322357   -0.00495763
     atom   41 type  4   force =    -0.00005106    0.00005464    0.00359946
     atom   42 type  4   force =     0.00542973    0.00027878    0.01996240
     atom   43 type  4   force =    -0.00177775    0.00041006    0.03450247
     atom   44 type  4   force =     0.00091099   -0.00085358    0.00010750
     atom   45 type  4   force =    -0.00019119   -0.00269686    0.00129982
     atom   46 type  4   force =    -0.01508413   -0.02042985   -0.00048615
     atom   47 type  4   force =     0.00188984   -0.00059074    0.00129325
     atom   48 type  4   force =    -0.01805748    0.00403167    0.00162384
     atom   49 type  4   force =     0.01646925   -0.00278054    0.00500600
     atom   50 type  4   force =     0.01180866   -0.03678842    0.00437154
     atom   51 type  4   force =     0.00104733    0.00097298    0.00176034
     atom   52 type  4   force =     0.00099654   -0.00225773    0.00366022
     atom   53 type  1   force =     0.00141768    0.00047404   -0.00069779
     atom   54 type  1   force =     0.00073427    0.00052031    0.00070061
     atom   55 type  2   force =    -0.00010804   -0.00039821   -0.00046708
     atom   56 type  1   force =    -0.00086712   -0.00041598    0.00046226
     atom   57 type  1   force =     0.00026600    0.00011425    0.00032438
     atom   58 type  1   force =     0.00001912   -0.00009938    0.00023569
     atom   59 type  1   force =     0.00049584    0.00078498   -0.00079055
     atom   60 type  2   force =    -0.00117522   -0.00161092    0.00616728
     atom   61 type  2   force =    -0.00043937   -0.00025068   -0.00046949
     atom   62 type  1   force =     0.00027922    0.00070408    0.00046294
     atom   63 type  1   force =    -0.00034302    0.00027707    0.00026405
     atom   64 type  1   force =     0.00020002   -0.00023758   -0.00011589
     atom   65 type  3   force =    -0.00057805   -0.00111807    0.00298231
     atom   66 type  3   force =     0.00006602   -0.00013088   -0.00172459
     atom   67 type  3   force =     0.00034910    0.00054395   -0.00137029
     atom   68 type  3   force =    -0.00072264    0.00016821    0.00324435
     atom   69 type  4   force =    -0.00056648    0.00036358   -0.00110023
     atom   70 type  4   force =    -0.00003702    0.00003008    0.00041609
     atom   71 type  4   force =     0.00015225   -0.00022648    0.00035872
     atom   72 type  4   force =     0.00060478   -0.00048639   -0.00116928
     atom   73 type  4   force =    -0.00012913    0.00020003    0.00121066
     atom   74 type  4   force =    -0.00020776   -0.00064508    0.00188564
     atom   75 type  4   force =    -0.00006423   -0.00004985    0.00060995
     atom   76 type  4   force =    -0.00007837   -0.00127673    0.00083708
     atom   77 type  4   force =    -0.00078971    0.00046404   -0.00086391
     atom   78 type  4   force =    -0.00031923    0.00007730    0.00042079
     atom   79 type  4   force =     0.00044544    0.00054308   -0.00139606
     atom   80 type  4   force =     0.00009313    0.00060247    0.00030023
     atom   81 type  4   force =    -0.00043647   -0.00026111    0.00033213
     atom   82 type  4   force =     0.00020540   -0.00007910    0.00013235
     atom   83 type  4   force =    -0.00008511    0.00049487   -0.00047421
     atom   84 type  4   force =    -0.00039129    0.00017399   -0.00068565
     atom   85 type  3   force =    -0.00018229   -0.00087655    0.00167018
     atom   86 type  3   force =     0.00058888   -0.00047980   -0.00046950
     atom   87 type  3   force =    -0.00026017   -0.00003718   -0.00110555
     atom   88 type  3   force =    -0.00107322   -0.00052617    0.00102339
     atom   89 type  4   force =    -0.00014699   -0.00004613   -0.00053806
     atom   90 type  4   force =     0.00006385   -0.00049042    0.00147833
     atom   91 type  4   force =     0.00027038    0.00004306    0.00036886
     atom   92 type  4   force =     0.00048505   -0.00065547   -0.00082260
     atom   93 type  4   force =     0.00184677    0.00110051    0.00171571
     atom   94 type  4   force =    -0.00027458    0.00004177    0.00136855
     atom   95 type  4   force =     0.00022774    0.00013110    0.00061457
     atom   96 type  4   force =    -0.00011536   -0.00077657   -0.00019842
     atom   97 type  4   force =     0.00018309   -0.00036369   -0.00060228
     atom   98 type  4   force =    -0.00054988   -0.00011508    0.00038426
     atom   99 type  4   force =     0.00038780    0.00052385   -0.00109431
     atom  100 type  4   force =     0.00056314    0.00038370    0.00055206
     atom  101 type  4   force =    -0.00042102   -0.00015592    0.00050456
     atom  102 type  4   force =     0.00091159   -0.00042000    0.00046083
     atom  103 type  4   force =     0.00095572    0.00037870    0.00026819
     atom  104 type  4   force =    -0.00026952   -0.00069046    0.00002216
     atom  105 type  1   force =     0.00024958    0.00027277    0.00014915
     atom  106 type  1   force =     0.00006418    0.00039997    0.00041081
     atom  107 type  2   force =    -0.00008776    0.00036288    0.00005847
     atom  108 type  1   force =    -0.00014333   -0.00038685    0.00011073
     atom  109 type  1   force =    -0.00007940   -0.00036351    0.00032195
     atom  110 type  1   force =     0.00052207    0.00048100   -0.00030148
     atom  111 type  1   force =    -0.00003149    0.00016395    0.00044383
     atom  112 type  2   force =    -0.00001752    0.00037403    0.00003533
     atom  113 type  2   force =    -0.00021855    0.00023993   -0.00015640
     atom  114 type  1   force =     0.00044448   -0.00021298    0.00053152
     atom  115 type  1   force =     0.00007608   -0.00030223    0.00021031
     atom  116 type  1   force =     0.00007911    0.00009691    0.00009198
     atom  117 type  3   force =     0.00002444    0.00015130    0.00010884
     atom  118 type  3   force =     0.00030043   -0.00001800    0.00007018
     atom  119 type  3   force =     0.00017698    0.00029619   -0.00005936
     atom  120 type  3   force =     0.00015179   -0.00020482   -0.00032397
     atom  121 type  4   force =    -0.00014625   -0.00042571    0.00016064
     atom  122 type  4   force =     0.00013978   -0.00041890    0.00033491
     atom  123 type  4   force =    -0.00022496    0.00024282    0.00008371
     atom  124 type  4   force =    -0.00008873   -0.00056796   -0.00051879
     atom  125 type  4   force =    -0.00050110    0.00056274    0.00008369
     atom  126 type  4   force =    -0.00000004    0.00048213    0.00010583
     atom  127 type  4   force =     0.00028575   -0.00000749    0.00020637
     atom  128 type  4   force =    -0.00009749    0.00036270    0.00031017
     atom  129 type  4   force =    -0.00004446   -0.00030770   -0.00010401
     atom  130 type  4   force =    -0.00034718   -0.00011040    0.00009040
     atom  131 type  4   force =    -0.00024120   -0.00011024   -0.00001475
     atom  132 type  4   force =    -0.00023669    0.00025150   -0.00007124
     atom  133 type  4   force =     0.00016055    0.00006554   -0.00007570
     atom  134 type  4   force =     0.00043990   -0.00013945    0.00023041
     atom  135 type  4   force =     0.00030840    0.00019304   -0.00009263
     atom  136 type  4   force =     0.00000734    0.00070763    0.00027584
     atom  137 type  3   force =    -0.00051947   -0.00041000    0.00074441
     atom  138 type  3   force =     0.00043339   -0.00001578    0.00010609
     atom  139 type  3   force =    -0.00036857   -0.00014818   -0.00017116
     atom  140 type  3   force =    -0.00012201    0.00024288    0.00023495
     atom  141 type  4   force =     0.00003788   -0.00002873   -0.00021524
     atom  142 type  4   force =     0.00011528    0.00011163   -0.00001612
     atom  143 type  4   force =    -0.00003831   -0.00028045   -0.00022100
     atom  144 type  4   force =    -0.00048862    0.00060699    0.00009252
     atom  145 type  4   force =    -0.00014122   -0.00014766   -0.00018646
     atom  146 type  4   force =    -0.00001096    0.00035735   -0.00019230
     atom  147 type  4   force =    -0.00008975    0.00025640   -0.00016221
     atom  148 type  4   force =     0.00010455   -0.00012055   -0.00007569
     atom  149 type  4   force =    -0.00017680    0.00037483    0.00002130
     atom  150 type  4   force =    -0.00005875   -0.00013510   -0.00002624
     atom  151 type  4   force =    -0.00014469    0.00067080   -0.00016822
     atom  152 type  4   force =    -0.00023032    0.00010250   -0.00017520
     atom  153 type  4   force =    -0.00004978    0.00002929   -0.00010449
     atom  154 type  4   force =    -0.00004815    0.00029799   -0.00019203
     atom  155 type  4   force =     0.00003941    0.00003984    0.00035597
     atom  156 type  4   force =    -0.00016803    0.00011786   -0.00018905
     atom  157 type  4   force =     0.00581006   -0.00432114   -0.00069451
     atom  158 type  5   force =    -0.00504201    0.00369436    0.00030893

     Total force =     0.225400     Total SCF correction =     0.002552
 
     init_run     :     10.79s CPU     11.43s WALL (       1 calls)
     electrons    :   1348.17s CPU   1394.16s WALL (       1 calls)
     forces       :      6.74s CPU      7.13s WALL (       1 calls)
     force_london :      0.09s CPU      0.09s WALL (       1 calls)

     Called by init_run:
     wfcinit      :      6.40s CPU      6.55s WALL (       1 calls)
     potinit      :      0.66s CPU      0.85s WALL (       1 calls)
     hinit0       :      2.02s CPU      2.12s WALL (       1 calls)

     Called by electrons:
     c_bands      :   1036.15s CPU   1059.82s WALL (      66 calls)
     sum_band     :    189.58s CPU    200.92s WALL (      66 calls)
     v_of_rho     :     22.66s CPU     23.89s WALL (      67 calls)
     newd         :     71.37s CPU     80.29s WALL (      67 calls)
     mix_rho      :     26.94s CPU     27.17s WALL (      66 calls)
     energy_londo :      0.09s CPU      0.09s WALL (       1 calls)

     Called by c_bands:
     init_us_2    :      2.13s CPU      2.20s WALL (     268 calls)
     init_us_2:cp :      2.13s CPU      2.20s WALL (     268 calls)
     regterg      :   1017.81s CPU   1041.18s WALL (     132 calls)

     Called by *egterg:
     rdiaghg      :    256.23s CPU    267.10s WALL (     494 calls)
     h_psi        :    393.77s CPU    399.84s WALL (     496 calls)
     s_psi        :     48.36s CPU     48.43s WALL (     496 calls)
     g_psi        :      0.35s CPU      0.35s WALL (     362 calls)

     Called by h_psi:
     h_psi:calbec :    100.21s CPU    104.82s WALL (     496 calls)
     vloc_psi     :    243.75s CPU    244.61s WALL (     496 calls)
     add_vuspsi   :     49.11s CPU     49.70s WALL (     496 calls)

     General routines
     calbec       :    148.09s CPU    155.06s WALL (     636 calls)
     fft          :     61.59s CPU     63.50s WALL (    1219 calls)
     ffts         :     14.24s CPU     14.30s WALL (    8195 calls)
     fftw         :    277.31s CPU    278.26s WALL (  227072 calls)
     interpolate  :      2.02s CPU      2.13s WALL (     134 calls)
 
     Parallel routines
 
     PWSCF        :  22m47.86s CPU  23m35.18s WALL

 
   This run was terminated on:   0: 5:14  18Nov2025            

=------------------------------------------------------------------------------=
   JOB DONE.
=------------------------------------------------------------------------------=
