
     Program PWSCF v.7.2 starts on 19Nov2025 at 20: 5:48 

     This program is part of the open-source Quantum ESPRESSO suite
     for quantum simulation of materials; please cite
         "P. Giannozzi et al., J. Phys.:Condens. Matter 21 395502 (2009);
         "P. Giannozzi et al., J. Phys.:Condens. Matter 29 465901 (2017);
         "P. Giannozzi et al., J. Chem. Phys. 152 154105 (2020);
          URL http://www.quantum-espresso.org", 
     in publications or presentations arising from this work. More details at
     http://www.quantum-espresso.org/quote

     Parallel version (MPI), running on    64 processors

     MPI processes distributed on     4 nodes
     464512 MiB available memory on the printing compute node when the environment starts
 
     Reading input from PWINPUT_atm157_yp

     Current dimensions of program PWSCF are:
     Max number of different atomic species (ntypx) = 10
     Max number of k-points (npk) =  40000
     Max angular momentum in pseudopotentials (lmaxx) =  4
     Presently no symmetry can be used with electric field

     file Ni.pbe-n-rrkjus_psl.1.0.0.UPF: wavefunction(s)  3D renormalized
     file Mn.pbe-spn-rrkjus_psl.0.3.1.UPF: wavefunction(s)  3D renormalized
     file O.pbe-rrkjus.UPF: wavefunction(s)  2S renormalized
     file H.pbe-rrkjus.UPF: wavefunction(s)  1S renormalized

     gamma-point specific algorithms are used
 
     R & G space division:  proc/nbgrp/npool/nimage =      64
     Subspace diagonalization in iterative solution of the eigenvalue problem:
     one sub-group per band group will be used
     custom distributed-memory algorithm (size of sub-group:  6*  6 procs)

 
     Parallelization info
     --------------------
     sticks:   dense  smooth     PW     G-vecs:    dense   smooth      PW
     Min         208      82     20                59912    15118    1876
     Max         210      84     22                59974    15196    1926
     Sum       13399    5355   1345              3836275   970529  121367
 
     Using Slab Decomposition
 


     bravais-lattice index     =            0
     lattice parameter (alat)  =      17.7004  a.u.
     unit-cell volume          =   20319.7251 (a.u.)^3
     number of atoms/cell      =          158
     number of atomic types    =            5
     number of electrons       =      1078.00
     number of Kohn-Sham states=          647
     kinetic-energy cutoff     =      50.0000  Ry
     charge density cutoff     =     500.0000  Ry
     scf convergence threshold =      1.0E-06
     mixing beta               =       0.1000
     number of iterations used =            8  local-TF  mixing
     Exchange-correlation=  SLA  PW   PBE  PBE
                           (   1   4   3   4   0   0   0)

     celldm(1)=  17.700384  celldm(2)=   0.000000  celldm(3)=   0.000000
     celldm(4)=   0.000000  celldm(5)=   0.000000  celldm(6)=   0.000000

     crystal axes: (cart. coord. in units of alat)
               a(1) = (   1.000000   0.000000   0.000000 )  
               a(2) = (   0.000000   1.075730   0.000000 )  
               a(3) = (   0.000000   0.000000   3.406172 )  

     reciprocal axes: (cart. coord. in units 2 pi/alat)
               b(1) = (  1.000000  0.000000  0.000000 )  
               b(2) = (  0.000000  0.929602  0.000000 )  
               b(3) = (  0.000000  0.000000  0.293585 )  


     PseudoPot. # 1 for Ni read from file:
     ~/PSEUDO/Ni.pbe-n-rrkjus_psl.1.0.0.UPF
     MD5 check sum: Not computed, couldn't open file
     Pseudo is Ultrasoft + core correction, Zval = 10.0
     Generated using "atomic" code by A. Dal Corso  v.5.1.2
     Using radial grid of 1195 points,  6 beta functions with: 
                l(1) =   0
                l(2) =   0
                l(3) =   1
                l(4) =   1
                l(5) =   2
                l(6) =   2
     Q(r) pseudized with 0 coefficients 


     PseudoPot. # 2 for Mn read from file:
     ~/PSEUDO/Mn.pbe-spn-rrkjus_psl.0.3.1.UPF
     MD5 check sum: Not computed, couldn't open file
     Pseudo is Ultrasoft + core correction, Zval = 15.0
     Generated using &quot;atomic&quot; code by A. Dal Corso  v.6.2.2
     Using radial grid of 1187 points,  6 beta functions with: 
                l(1) =   0
                l(2) =   0
                l(3) =   1
                l(4) =   1
                l(5) =   2
                l(6) =   2
     Q(r) pseudized with 0 coefficients 


     PseudoPot. # 3 for P  read from file:
     ~/PSEUDO/P.pbe-n-rrkjus_psl.1.0.0.UPF
     MD5 check sum: Not computed, couldn't open file
     Pseudo is Ultrasoft + core correction, Zval =  5.0
     Generated using "atomic" code by A. Dal Corso  v.5.1
     Using radial grid of 1147 points,  6 beta functions with: 
                l(1) =   0
                l(2) =   0
                l(3) =   1
                l(4) =   1
                l(5) =   2
                l(6) =   2
     Q(r) pseudized with 0 coefficients 


     PseudoPot. # 4 for O  read from file:
     ~/PSEUDO/O.pbe-rrkjus.UPF
     MD5 check sum: Not computed, couldn't open file
     Pseudo is Ultrasoft, Zval =  6.0
     Generated by new atomic code, or converted to UPF format
     Using radial grid of 1269 points,  4 beta functions with: 
                l(1) =   0
                l(2) =   0
                l(3) =   1
                l(4) =   1
     Q(r) pseudized with 0 coefficients 


     PseudoPot. # 5 for H  read from file:
     ~/PSEUDO/H.pbe-rrkjus.UPF
     MD5 check sum: Not computed, couldn't open file
     Pseudo is Ultrasoft, Zval =  1.0
     Generated by new atomic code, or converted to UPF format
     Using radial grid of 1061 points,  2 beta functions with: 
                l(1) =   0
                l(2) =   0
     Q(r) pseudized with 0 coefficients 


     atomic species   valence    mass     pseudopotential
     Ni               10.00    58.69300     Ni( 1.00)
     Mn               15.00    54.93800     Mn( 1.00)
     P                 5.00    30.97300     P ( 1.00)
     O                 6.00    15.99900     O ( 1.00)
     H                 1.00     1.00790     H ( 1.00)

     Starting magnetic structure 
     atomic species   magnetization
     Ni              1.000
     Mn              1.000
     P               1.000
     O               1.000
     H               0.000

     No symmetry found



   Cartesian axes

     site n.     atom                  positions (alat units)
         1        Mn     tau(   1) = (   0.2514725   0.8403621   1.6922649  )
         2        Ni     tau(   2) = (   0.4981613   0.7732174   1.3698899  )
         3        Ni     tau(   3) = (   0.0016400   0.2965188   1.6763153  )
         4        Ni     tau(   4) = (   0.2604917   0.2384823   1.3674854  )
         5        Ni     tau(   5) = (   0.9976394   1.0763275   1.5332471  )
         6        Ni     tau(   6) = (   0.2562433   0.5373049   1.5311374  )
         7        Ni     tau(   7) = (   0.7534975   0.8335100   1.6761660  )
         8        Ni     tau(   8) = (   0.9915982   0.7733775   1.3721323  )
         9        Ni     tau(   9) = (   0.5140351   0.3046720   1.7065963  )
        10        Ni     tau(  10) = (   0.7602191   0.2367081   1.3680604  )
        11        Ni     tau(  11) = (   0.5007003   1.0777795   1.5342653  )
        12        Ni     tau(  12) = (   0.7546321   0.5336828   1.5343376  )
        13        P      tau(  13) = (   0.2114324   0.9730718   1.3787149  )
        14        P      tau(  14) = (   0.4677209   0.6466717   1.6883849  )
        15        P      tau(  15) = (   0.2879347   0.1165823   1.6895124  )
        16        P      tau(  16) = (   0.0433043   0.4322061   1.3717573  )
        17        O      tau(  17) = (   0.1354319   0.9024246   1.5162361  )
        18        O      tau(  18) = (   0.3901476   0.7094618   1.5447118  )
        19        O      tau(  19) = (   0.3653522   0.1703016   1.5451332  )
        20        O      tau(  20) = (   0.1220603   0.3621553   1.5078476  )
        21        O      tau(  21) = (   0.1483602   0.8811988   1.2566198  )
        22        O      tau(  22) = (   0.4071019   0.7461546   1.8042590  )
        23        O      tau(  23) = (   0.3454364   0.2138238   1.8062783  )
        24        O      tau(  24) = (   0.1034528   0.3447440   1.2451229  )
        25        O      tau(  25) = (   0.1022912   0.5877007   1.3760419  )
        26        O      tau(  26) = (   0.3424242   1.0329279   1.6966988  )
        27        O      tau(  27) = (   0.3794667   0.4262365   1.3824156  )
        28        O      tau(  28) = (   0.1224475   0.1157300   1.6781663  )
        29        O      tau(  29) = (   0.1306686   0.6530965   1.6813924  )
        30        O      tau(  30) = (   0.4060763   0.4924401   1.6874378  )
        31        O      tau(  31) = (   0.1505415   0.0512368   1.3772435  )
        32        O      tau(  32) = (   0.3750906   0.9649156   1.3868523  )
        33        P      tau(  33) = (   0.7107969   0.9709559   1.3722571  )
        34        P      tau(  34) = (   0.9650128   0.6455956   1.6946891  )
        35        P      tau(  35) = (   0.7894270   0.1050360   1.6939332  )
        36        P      tau(  36) = (   0.5438507   0.4295248   1.3733739  )
        37        O      tau(  37) = (   0.6327050   0.9000346   1.5082036  )
        38        O      tau(  38) = (   0.8878570   0.7057763   1.5484453  )
        39        O      tau(  39) = (   0.8648281   0.1699114   1.5490065  )
        40        O      tau(  40) = (   0.6200951   0.3574703   1.5092594  )
        41        O      tau(  41) = (   0.6501234   0.8827865   1.2460499  )
        42        O      tau(  42) = (   0.9049968   0.7432969   1.8094969  )
        43        O      tau(  43) = (   0.8531982   0.1989439   1.8109223  )
        44        O      tau(  44) = (   0.6040842   0.3418719   1.2462640  )
        45        O      tau(  45) = (   0.6050226   0.5845474   1.3766490  )
        46        O      tau(  46) = (   0.8468877   1.0236478   1.6902311  )
        47        O      tau(  47) = (   0.8794716   0.4244841   1.3846896  )
        48        O      tau(  48) = (   0.6245466   0.1082359   1.6834857  )
        49        O      tau(  49) = (   0.6319549   0.6522194   1.6764679  )
        50        O      tau(  50) = (   0.9116309   0.4875625   1.6930196  )
        51        O      tau(  51) = (   0.6514964   0.0501678   1.3760815  )
        52        O      tau(  52) = (   0.8747806   0.9631357   1.3846982  )
        53        Mn     tau(  53) = (   0.2404744   0.8246335   1.0701417  )
        54        Ni     tau(  54) = (   0.4968126   0.7601755   0.7454373  )
        55        Ni     tau(  55) = (   0.0066150   0.2811828   1.0628866  )
        56        Ni     tau(  56) = (   0.2585722   0.2230943   0.7421070  )
        57        Ni     tau(  57) = (   0.9987350   1.0571496   0.9014992  )
        58        Ni     tau(  58) = (   0.2517397   0.5205596   0.9040596  )
        59        Ni     tau(  59) = (   0.7451645   0.8212628   1.0648168  )
        60        Ni     tau(  60) = (   0.9939181   0.7613889   0.7462324  )
        61        Ni     tau(  61) = (   0.5111533   0.2799173   1.0618053  )
        62        Ni     tau(  62) = (   0.7606326   0.2194352   0.7418547  )
        63        Ni     tau(  63) = (   0.5024065   1.0563218   0.8999416  )
        64        Ni     tau(  64) = (   0.7529977   0.5192985   0.9024691  )
        65        P      tau(  65) = (   0.2092944   0.9606182   0.7524883  )
        66        P      tau(  66) = (   0.4655727   0.6234620   1.0595283  )
        67        P      tau(  67) = (   0.2910699   0.0902448   1.0573821  )
        68        P      tau(  68) = (   0.0396216   0.4163480   0.7471080  )
        69        O      tau(  69) = (   0.1294378   0.8888345   0.8859300  )
        70        O      tau(  70) = (   0.3874505   0.6929859   0.9232915  )
        71        O      tau(  71) = (   0.3702540   0.1589885   0.9209891  )
        72        O      tau(  72) = (   0.1184398   0.3458043   0.8831565  )
        73        O      tau(  73) = (   0.1451572   0.8725966   0.6282341  )
        74        O      tau(  74) = (   0.4048762   0.7120670   1.1852426  )
        75        O      tau(  75) = (   0.3523506   0.1775664   1.1834175  )
        76        O      tau(  76) = (   0.1017610   0.3285569   0.6213347  )
        77        O      tau(  77) = (   0.0975396   0.5724373   0.7511996  )
        78        O      tau(  78) = (   0.3483552   1.0190030   1.0599597  )
        79        O      tau(  79) = (   0.3784305   0.4100203   0.7560991  )
        80        O      tau(  80) = (   0.1268237   0.0943029   1.0477175  )
        81        O      tau(  81) = (   0.1212267   0.6299255   1.0507023  )
        82        O      tau(  82) = (   0.4053315   0.4684472   1.0569297  )
        83        O      tau(  83) = (   0.1536621   0.0322003   0.7496532  )
        84        O      tau(  84) = (   0.3732349   0.9506802   0.7613277  )
        85        P      tau(  85) = (   0.7119823   0.9571059   0.7496908  )
        86        P      tau(  86) = (   0.9615208   0.6238477   1.0606987  )
        87        P      tau(  87) = (   0.7927710   0.0845145   1.0577754  )
        88        P      tau(  88) = (   0.5426404   0.4144760   0.7459181  )
        89        O      tau(  89) = (   0.6326879   0.8866267   0.8856678  )
        90        O      tau(  90) = (   0.8842163   0.6958291   0.9244764  )
        91        O      tau(  91) = (   0.8716178   0.1552836   0.9216415  )
        92        O      tau(  92) = (   0.6212010   0.3433751   0.8818834  )
        93        O      tau(  93) = (   0.6507714   0.8687427   0.6238197  )
        94        O      tau(  94) = (   0.9014054   0.7139543   1.1859242  )
        95        O      tau(  95) = (   0.8548963   0.1722994   1.1834447  )
        96        O      tau(  96) = (   0.6044469   0.3253792   0.6209553  )
        97        O      tau(  97) = (   0.6024424   0.5698225   0.7490903  )
        98        O      tau(  98) = (   0.8498940   1.0129567   1.0594762  )
        99        O      tau(  99) = (   0.8798395   0.4080910   0.7564148  )
       100        O      tau( 100) = (   0.6286921   0.0909721   1.0472573  )
       101        O      tau( 101) = (   0.6294973   0.6302838   1.0497366  )
       102        O      tau( 102) = (   0.9024339   0.4685397   1.0573501  )
       103        O      tau( 103) = (   0.6547812   0.0286072   0.7473283  )
       104        O      tau( 104) = (   0.8760507   0.9507690   0.7605412  )
       105        Mn     tau( 105) = (   0.2404744   0.8121420   0.4502541  )
       106        Ni     tau( 106) = (   0.4968126   0.7476840   0.1255496  )
       107        Ni     tau( 107) = (   0.0066150   0.2686914   0.4429989  )
       108        Ni     tau( 108) = (   0.2585722   0.2106028   0.1222194  )
       109        Ni     tau( 109) = (   0.9987350   1.0446581   0.2816116  )
       110        Ni     tau( 110) = (   0.2517397   0.5080681   0.2841720  )
       111        Ni     tau( 111) = (   0.7451645   0.8087713   0.4449291  )
       112        Ni     tau( 112) = (   0.9939181   0.7488974   0.1263448  )
       113        Ni     tau( 113) = (   0.5111533   0.2674258   0.4419177  )
       114        Ni     tau( 114) = (   0.7606326   0.2069438   0.1219670  )
       115        Ni     tau( 115) = (   0.5024065   1.0438304   0.2800540  )
       116        Ni     tau( 116) = (   0.7529977   0.5068070   0.2825815  )
       117        P      tau( 117) = (   0.2092944   0.9481267   0.1326007  )
       118        P      tau( 118) = (   0.4655727   0.6109705   0.4396407  )
       119        P      tau( 119) = (   0.2910699   0.0777534   0.4374945  )
       120        P      tau( 120) = (   0.0396216   0.4038566   0.1272204  )
       121        O      tau( 121) = (   0.1294378   0.8763430   0.2660424  )
       122        O      tau( 122) = (   0.3874505   0.6804944   0.3034039  )
       123        O      tau( 123) = (   0.3702540   0.1464970   0.3011014  )
       124        O      tau( 124) = (   0.1184398   0.3333129   0.2632689  )
       125        O      tau( 125) = (   0.1451572   0.8601051   0.0083464  )
       126        O      tau( 126) = (   0.4048762   0.6995756   0.5653550  )
       127        O      tau( 127) = (   0.3523506   0.1650749   0.5635298  )
       128        O      tau( 128) = (   0.1017610   0.3160655   0.0014470  )
       129        O      tau( 129) = (   0.0975396   0.5599458   0.1313120  )
       130        O      tau( 130) = (   0.3483552   1.0065115   0.4400720  )
       131        O      tau( 131) = (   0.3784305   0.3975288   0.1362114  )
       132        O      tau( 132) = (   0.1268237   0.0818115   0.4278298  )
       133        O      tau( 133) = (   0.1212267   0.6174340   0.4308146  )
       134        O      tau( 134) = (   0.4053315   0.4559557   0.4370420  )
       135        O      tau( 135) = (   0.1536621   0.0197088   0.1297656  )
       136        O      tau( 136) = (   0.3732349   0.9381887   0.1414400  )
       137        P      tau( 137) = (   0.7119823   0.9446144   0.1298032  )
       138        P      tau( 138) = (   0.9615208   0.6113562   0.4408111  )
       139        P      tau( 139) = (   0.7927710   0.0720230   0.4378878  )
       140        P      tau( 140) = (   0.5426404   0.4019845   0.1260304  )
       141        O      tau( 141) = (   0.6326879   0.8741353   0.2657802  )
       142        O      tau( 142) = (   0.8842163   0.6833376   0.3045887  )
       143        O      tau( 143) = (   0.8716178   0.1427921   0.3017538  )
       144        O      tau( 144) = (   0.6212010   0.3308836   0.2619957  )
       145        O      tau( 145) = (   0.6507714   0.8562512   0.0039320  )
       146        O      tau( 146) = (   0.9014054   0.7014628   0.5660366  )
       147        O      tau( 147) = (   0.8548963   0.1598079   0.5635571  )
       148        O      tau( 148) = (   0.6044469   0.3128877   0.0010676  )
       149        O      tau( 149) = (   0.6024424   0.5573310   0.1292027  )
       150        O      tau( 150) = (   0.8498940   1.0004653   0.4395886  )
       151        O      tau( 151) = (   0.8798395   0.3955995   0.1365272  )
       152        O      tau( 152) = (   0.6286921   0.0784807   0.4273696  )
       153        O      tau( 153) = (   0.6294973   0.6177923   0.4298489  )
       154        O      tau( 154) = (   0.9024339   0.4560482   0.4374624  )
       155        O      tau( 155) = (   0.6547812   0.0161158   0.1274406  )
       156        O      tau( 156) = (   0.8760507   0.9382775   0.1406535  )
       157        O      tau( 157) = (   0.6249036   0.3871210   1.8440900  )
       158        H      tau( 158) = (   0.7081905   0.3257877   1.8689877  )

     -------------------------------------------------
     Parameters for Dispersion (Grimme-D2) Correction:
     -------------------------------------------------
       atom      VdW radius       C_6     

        Ni         2.952        374.666
        Mn         2.952        374.666
        P          3.222        271.980
        O          2.536         24.284
        H          1.892          4.857

     number of k points=     1  Gaussian smearing, width (Ry)=  0.0100
                       cart. coord. in units 2pi/alat
        k(    1) = (   0.0000000   0.0000000   0.0000000), wk =   1.0000000

     Dense  grid:  1918138 G-vectors     FFT dimensions: ( 125, 135, 432)

     Smooth grid:   485265 G-vectors     FFT dimensions: (  80,  90, 288)

     Estimated max dynamical RAM per process >     320.12 MB

     Estimated total dynamical RAM >      20.01 GB
     Generating pointlists ...
     new r_m :   0.0804 (alat units)  1.4232 (a.u.) for type    1
     new r_m :   0.0869 (alat units)  1.5388 (a.u.) for type    2
     new r_m :   0.0650 (alat units)  1.1499 (a.u.) for type    3
     new r_m :   0.0439 (alat units)  0.7768 (a.u.) for type    4
     new r_m :   0.0439 (alat units)  0.7768 (a.u.) for type    5

     Initial potential from superposition of free atoms

     starting charge    1077.8900, renormalised to    1078.0000

     negative rho (up, down):  1.224E-03 4.542E-04
 
     Adding external electric field

     Computed dipole along edir(3) : 
        Dipole                1.6256 Ry au,          4.1319 Debye
        Dipole field          0.0010 Ry au, 
 
        Potential amp.       -0.1091 Ry
        Total length         54.2615 bohr
 
 
     Adding external electric field

     Computed dipole along edir(3) : 
        Dipole                1.6256 Ry au,          4.1319 Debye
        Dipole field          0.0010 Ry au, 
 
        Potential amp.       -0.1091 Ry
        Total length         54.2615 bohr
 
     Starting wfcs are  812 randomized atomic wfcs

     total cpu time spent up to now is       10.6 secs

     Self-consistent Calculation

     iteration #  1     ecut=    50.00 Ry     beta= 0.10
     Davidson diagonalization with overlap
     ethr =  1.00E-02,  avg # of iterations =  6.0

     negative rho (up, down):  3.652E-01 4.210E-06
 
     Adding external electric field

     Computed dipole along edir(3) : 
        Dipole               -2.7605 Ry au,         -7.0165 Debye
        Dipole field         -0.0017 Ry au, 
 
        Potential amp.        0.1853 Ry
        Total length         54.2615 bohr
 
 
     Adding external electric field

     Computed dipole along edir(3) : 
        Dipole               -2.7605 Ry au,         -7.0165 Debye
        Dipole field         -0.0017 Ry au, 
 
        Potential amp.        0.1853 Ry
        Total length         54.2615 bohr
 

     total cpu time spent up to now is       37.8 secs

     total energy              =   -7182.59068774 Ry
     estimated scf accuracy    <     749.87906879 Ry

     total magnetization       =   216.00 Bohr mag/cell
     absolute magnetization    =   296.84 Bohr mag/cell

     iteration #  2     ecut=    50.00 Ry     beta= 0.10
     Davidson diagonalization with overlap
     ethr =  1.00E-02,  avg # of iterations =  2.0

     negative rho (up, down):  3.261E-01 5.925E-06
 
     Adding external electric field

     Computed dipole along edir(3) : 
        Dipole               -2.2701 Ry au,         -5.7700 Debye
        Dipole field         -0.0014 Ry au, 
 
        Potential amp.        0.1524 Ry
        Total length         54.2615 bohr
 
 
     Adding external electric field

     Computed dipole along edir(3) : 
        Dipole               -2.2701 Ry au,         -5.7700 Debye
        Dipole field         -0.0014 Ry au, 
 
        Potential amp.        0.1524 Ry
        Total length         54.2615 bohr
 

     total cpu time spent up to now is       54.2 secs

     total energy              =   -7267.72905787 Ry
     estimated scf accuracy    <     127.15821607 Ry

     total magnetization       =   139.25 Bohr mag/cell
     absolute magnetization    =   193.50 Bohr mag/cell

     iteration #  3     ecut=    50.00 Ry     beta= 0.10
     Davidson diagonalization with overlap
     ethr =  1.00E-02,  avg # of iterations =  1.5

     negative rho (up, down):  2.735E-01 8.237E-06
 
     Adding external electric field

     Computed dipole along edir(3) : 
        Dipole               -1.8333 Ry au,         -4.6598 Debye
        Dipole field         -0.0011 Ry au, 
 
        Potential amp.        0.1230 Ry
        Total length         54.2615 bohr
 
 
     Adding external electric field

     Computed dipole along edir(3) : 
        Dipole               -1.8333 Ry au,         -4.6598 Debye
        Dipole field         -0.0011 Ry au, 
 
        Potential amp.        0.1230 Ry
        Total length         54.2615 bohr
 

     total cpu time spent up to now is       67.0 secs

     total energy              =   -7304.15851303 Ry
     estimated scf accuracy    <      94.17747166 Ry

     total magnetization       =   118.44 Bohr mag/cell
     absolute magnetization    =   173.42 Bohr mag/cell

     iteration #  4     ecut=    50.00 Ry     beta= 0.10
     Davidson diagonalization with overlap
     ethr =  8.74E-03,  avg # of iterations =  1.5

     negative rho (up, down):  2.006E-01 9.402E-07
 
     Adding external electric field

     Computed dipole along edir(3) : 
        Dipole               -1.8266 Ry au,         -4.6428 Debye
        Dipole field         -0.0011 Ry au, 
 
        Potential amp.        0.1226 Ry
        Total length         54.2615 bohr
 
 
     Adding external electric field

     Computed dipole along edir(3) : 
        Dipole               -1.8266 Ry au,         -4.6428 Debye
        Dipole field         -0.0011 Ry au, 
 
        Potential amp.        0.1226 Ry
        Total length         54.2615 bohr
 

     total cpu time spent up to now is       79.6 secs

     total energy              =   -7336.00300773 Ry
     estimated scf accuracy    <      73.71178068 Ry

     total magnetization       =    99.21 Bohr mag/cell
     absolute magnetization    =   157.24 Bohr mag/cell

     iteration #  5     ecut=    50.00 Ry     beta= 0.10
     Davidson diagonalization with overlap
     ethr =  6.84E-03,  avg # of iterations =  1.0

     negative rho (up, down):  1.039E-03 1.816E-06
 
     Adding external electric field

     Computed dipole along edir(3) : 
        Dipole               -1.1042 Ry au,         -2.8066 Debye
        Dipole field         -0.0007 Ry au, 
 
        Potential amp.        0.0741 Ry
        Total length         54.2615 bohr
 
 
     Adding external electric field

     Computed dipole along edir(3) : 
        Dipole               -1.1042 Ry au,         -2.8066 Debye
        Dipole field         -0.0007 Ry au, 
 
        Potential amp.        0.0741 Ry
        Total length         54.2615 bohr
 

     total cpu time spent up to now is       91.5 secs

     total energy              =   -7391.11722780 Ry
     estimated scf accuracy    <      54.48763645 Ry

     total magnetization       =    88.00 Bohr mag/cell
     absolute magnetization    =   141.87 Bohr mag/cell

     iteration #  6     ecut=    50.00 Ry     beta= 0.10
     Davidson diagonalization with overlap
     ethr =  5.05E-03,  avg # of iterations =  2.0

     negative rho (up, down):  1.521E-04 1.954E-04
 
     Adding external electric field

     Computed dipole along edir(3) : 
        Dipole               -0.8379 Ry au,         -2.1296 Debye
        Dipole field         -0.0005 Ry au, 
 
        Potential amp.        0.0562 Ry
        Total length         54.2615 bohr
 
 
     Adding external electric field

     Computed dipole along edir(3) : 
        Dipole               -0.8379 Ry au,         -2.1296 Debye
        Dipole field         -0.0005 Ry au, 
 
        Potential amp.        0.0562 Ry
        Total length         54.2615 bohr
 

     total cpu time spent up to now is      105.7 secs

     total energy              =   -7396.28148580 Ry
     estimated scf accuracy    <      11.78682840 Ry

     total magnetization       =    73.40 Bohr mag/cell
     absolute magnetization    =   101.72 Bohr mag/cell

     iteration #  7     ecut=    50.00 Ry     beta= 0.10
     Davidson diagonalization with overlap
     ethr =  1.09E-03,  avg # of iterations =  6.0

     negative rho (up, down):  2.182E-04 5.261E-04
 
     Adding external electric field

     Computed dipole along edir(3) : 
        Dipole               -0.6500 Ry au,         -1.6522 Debye
        Dipole field         -0.0004 Ry au, 
 
        Potential amp.        0.0436 Ry
        Total length         54.2615 bohr
 
 
     Adding external electric field

     Computed dipole along edir(3) : 
        Dipole               -0.6500 Ry au,         -1.6522 Debye
        Dipole field         -0.0004 Ry au, 
 
        Potential amp.        0.0436 Ry
        Total length         54.2615 bohr
 

     total cpu time spent up to now is      125.9 secs

     total energy              =   -7397.13506065 Ry
     estimated scf accuracy    <       9.10262714 Ry

     total magnetization       =    72.04 Bohr mag/cell
     absolute magnetization    =    91.26 Bohr mag/cell

     iteration #  8     ecut=    50.00 Ry     beta= 0.10
     Davidson diagonalization with overlap
     ethr =  8.44E-04,  avg # of iterations =  1.0

     negative rho (up, down):  1.207E-04 4.536E-04
 
     Adding external electric field

     Computed dipole along edir(3) : 
        Dipole               -0.6042 Ry au,         -1.5357 Debye
        Dipole field         -0.0004 Ry au, 
 
        Potential amp.        0.0406 Ry
        Total length         54.2615 bohr
 
 
     Adding external electric field

     Computed dipole along edir(3) : 
        Dipole               -0.6042 Ry au,         -1.5357 Debye
        Dipole field         -0.0004 Ry au, 
 
        Potential amp.        0.0406 Ry
        Total length         54.2615 bohr
 

     total cpu time spent up to now is      137.0 secs

     total energy              =   -7397.48017541 Ry
     estimated scf accuracy    <       1.36247427 Ry

     total magnetization       =    79.80 Bohr mag/cell
     absolute magnetization    =    95.10 Bohr mag/cell

     iteration #  9     ecut=    50.00 Ry     beta= 0.10
     Davidson diagonalization with overlap
     ethr =  1.26E-04,  avg # of iterations =  8.5

     negative rho (up, down):  3.547E-06 3.945E-05
 
     Adding external electric field

     Computed dipole along edir(3) : 
        Dipole               -0.5211 Ry au,         -1.3245 Debye
        Dipole field         -0.0003 Ry au, 
 
        Potential amp.        0.0350 Ry
        Total length         54.2615 bohr
 
 
     Adding external electric field

     Computed dipole along edir(3) : 
        Dipole               -0.5211 Ry au,         -1.3245 Debye
        Dipole field         -0.0003 Ry au, 
 
        Potential amp.        0.0350 Ry
        Total length         54.2615 bohr
 

     total cpu time spent up to now is      155.6 secs

     total energy              =   -7397.75465209 Ry
     estimated scf accuracy    <       1.08691169 Ry

     total magnetization       =    79.67 Bohr mag/cell
     absolute magnetization    =    92.21 Bohr mag/cell

     iteration # 10     ecut=    50.00 Ry     beta= 0.10
     Davidson diagonalization with overlap
     ethr =  1.01E-04,  avg # of iterations =  2.0

     negative rho (up, down):  7.957E-06 5.493E-05
 
     Adding external electric field

     Computed dipole along edir(3) : 
        Dipole               -0.5680 Ry au,         -1.4437 Debye
        Dipole field         -0.0004 Ry au, 
 
        Potential amp.        0.0381 Ry
        Total length         54.2615 bohr
 
 
     Adding external electric field

     Computed dipole along edir(3) : 
        Dipole               -0.5680 Ry au,         -1.4437 Debye
        Dipole field         -0.0004 Ry au, 
 
        Potential amp.        0.0381 Ry
        Total length         54.2615 bohr
 

     total cpu time spent up to now is      168.6 secs

     total energy              =   -7397.80003356 Ry
     estimated scf accuracy    <       0.63652896 Ry

     total magnetization       =    80.99 Bohr mag/cell
     absolute magnetization    =    88.89 Bohr mag/cell

     iteration # 11     ecut=    50.00 Ry     beta= 0.10
     Davidson diagonalization with overlap
     ethr =  5.90E-05,  avg # of iterations =  1.5

     negative rho (up, down):  4.557E-06 5.297E-05
 
     Adding external electric field

     Computed dipole along edir(3) : 
        Dipole               -0.5543 Ry au,         -1.4090 Debye
        Dipole field         -0.0003 Ry au, 
 
        Potential amp.        0.0372 Ry
        Total length         54.2615 bohr
 
 
     Adding external electric field

     Computed dipole along edir(3) : 
        Dipole               -0.5543 Ry au,         -1.4090 Debye
        Dipole field         -0.0003 Ry au, 
 
        Potential amp.        0.0372 Ry
        Total length         54.2615 bohr
 

     total cpu time spent up to now is      180.1 secs

     total energy              =   -7397.82706340 Ry
     estimated scf accuracy    <       0.57634220 Ry

     total magnetization       =    80.36 Bohr mag/cell
     absolute magnetization    =    88.52 Bohr mag/cell

     iteration # 12     ecut=    50.00 Ry     beta= 0.10
     Davidson diagonalization with overlap
     ethr =  5.35E-05,  avg # of iterations =  1.0

     negative rho (up, down):  5.566E-06 5.756E-05
 
     Adding external electric field

     Computed dipole along edir(3) : 
        Dipole               -0.5457 Ry au,         -1.3871 Debye
        Dipole field         -0.0003 Ry au, 
 
        Potential amp.        0.0366 Ry
        Total length         54.2615 bohr
 
 
     Adding external electric field

     Computed dipole along edir(3) : 
        Dipole               -0.5457 Ry au,         -1.3871 Debye
        Dipole field         -0.0003 Ry au, 
 
        Potential amp.        0.0366 Ry
        Total length         54.2615 bohr
 

     total cpu time spent up to now is      191.3 secs

     total energy              =   -7397.83771616 Ry
     estimated scf accuracy    <       0.68481168 Ry

     total magnetization       =    79.98 Bohr mag/cell
     absolute magnetization    =    87.64 Bohr mag/cell

     iteration # 13     ecut=    50.00 Ry     beta= 0.10
     Davidson diagonalization with overlap
     ethr =  5.35E-05,  avg # of iterations =  1.0

     negative rho (up, down):  7.425E-07 2.217E-05
 
     Adding external electric field

     Computed dipole along edir(3) : 
        Dipole               -0.5754 Ry au,         -1.4626 Debye
        Dipole field         -0.0004 Ry au, 
 
        Potential amp.        0.0386 Ry
        Total length         54.2615 bohr
 
 
     Adding external electric field

     Computed dipole along edir(3) : 
        Dipole               -0.5754 Ry au,         -1.4626 Debye
        Dipole field         -0.0004 Ry au, 
 
        Potential amp.        0.0386 Ry
        Total length         54.2615 bohr
 

     total cpu time spent up to now is      202.6 secs

     total energy              =   -7397.87565326 Ry
     estimated scf accuracy    <       0.88416664 Ry

     total magnetization       =    79.66 Bohr mag/cell
     absolute magnetization    =    87.12 Bohr mag/cell

     iteration # 14     ecut=    50.00 Ry     beta= 0.10
     Davidson diagonalization with overlap
     ethr =  5.35E-05,  avg # of iterations =  1.5

     negative rho (up, down):  1.816E-04 1.507E-04
 
     Adding external electric field

     Computed dipole along edir(3) : 
        Dipole               -0.5619 Ry au,         -1.4283 Debye
        Dipole field         -0.0003 Ry au, 
 
        Potential amp.        0.0377 Ry
        Total length         54.2615 bohr
 
 
     Adding external electric field

     Computed dipole along edir(3) : 
        Dipole               -0.5619 Ry au,         -1.4283 Debye
        Dipole field         -0.0003 Ry au, 
 
        Potential amp.        0.0377 Ry
        Total length         54.2615 bohr
 

     total cpu time spent up to now is      214.7 secs

     total energy              =   -7397.97764766 Ry
     estimated scf accuracy    <       0.49407045 Ry

     total magnetization       =    79.30 Bohr mag/cell
     absolute magnetization    =    85.97 Bohr mag/cell

     iteration # 15     ecut=    50.00 Ry     beta= 0.10
     Davidson diagonalization with overlap
     ethr =  4.58E-05,  avg # of iterations =  2.0

     negative rho (up, down):  7.661E-04 8.910E-04
 
     Adding external electric field

     Computed dipole along edir(3) : 
        Dipole               -0.5136 Ry au,         -1.3055 Debye
        Dipole field         -0.0003 Ry au, 
 
        Potential amp.        0.0345 Ry
        Total length         54.2615 bohr
 
 
     Adding external electric field

     Computed dipole along edir(3) : 
        Dipole               -0.5136 Ry au,         -1.3055 Debye
        Dipole field         -0.0003 Ry au, 
 
        Potential amp.        0.0345 Ry
        Total length         54.2615 bohr
 

     total cpu time spent up to now is      227.5 secs

     total energy              =   -7398.02128167 Ry
     estimated scf accuracy    <       0.13801274 Ry

     total magnetization       =    80.67 Bohr mag/cell
     absolute magnetization    =    84.17 Bohr mag/cell

     iteration # 16     ecut=    50.00 Ry     beta= 0.10
     Davidson diagonalization with overlap
     c_bands:  2 eigenvalues not converged
     ethr =  1.28E-05,  avg # of iterations = 19.5

     negative rho (up, down):  5.896E-05 1.456E-04
 
     Adding external electric field

     Computed dipole along edir(3) : 
        Dipole               -0.4168 Ry au,         -1.0595 Debye
        Dipole field         -0.0003 Ry au, 
 
        Potential amp.        0.0280 Ry
        Total length         54.2615 bohr
 
 
     Adding external electric field

     Computed dipole along edir(3) : 
        Dipole               -0.4168 Ry au,         -1.0595 Debye
        Dipole field         -0.0003 Ry au, 
 
        Potential amp.        0.0280 Ry
        Total length         54.2615 bohr
 

     total cpu time spent up to now is      256.5 secs

     total energy              =   -7398.02995771 Ry
     estimated scf accuracy    <       0.07842207 Ry

     total magnetization       =    80.06 Bohr mag/cell
     absolute magnetization    =    82.04 Bohr mag/cell

     iteration # 17     ecut=    50.00 Ry     beta= 0.10
     Davidson diagonalization with overlap
     ethr =  7.27E-06,  avg # of iterations =  2.5

     negative rho (up, down):  1.517E-04 7.533E-05
 
     Adding external electric field

     Computed dipole along edir(3) : 
        Dipole               -0.3942 Ry au,         -1.0020 Debye
        Dipole field         -0.0002 Ry au, 
 
        Potential amp.        0.0265 Ry
        Total length         54.2615 bohr
 
 
     Adding external electric field

     Computed dipole along edir(3) : 
        Dipole               -0.3942 Ry au,         -1.0020 Debye
        Dipole field         -0.0002 Ry au, 
 
        Potential amp.        0.0265 Ry
        Total length         54.2615 bohr
 

     total cpu time spent up to now is      269.6 secs

     total energy              =   -7398.03331301 Ry
     estimated scf accuracy    <       0.23259310 Ry

     total magnetization       =    80.27 Bohr mag/cell
     absolute magnetization    =    82.06 Bohr mag/cell

     iteration # 18     ecut=    50.00 Ry     beta= 0.10
     Davidson diagonalization with overlap
     ethr =  7.27E-06,  avg # of iterations =  1.5

     negative rho (up, down):  3.876E-04 2.321E-04
 
     Adding external electric field

     Computed dipole along edir(3) : 
        Dipole               -0.3274 Ry au,         -0.8322 Debye
        Dipole field         -0.0002 Ry au, 
 
        Potential amp.        0.0220 Ry
        Total length         54.2615 bohr
 
 
     Adding external electric field

     Computed dipole along edir(3) : 
        Dipole               -0.3274 Ry au,         -0.8322 Debye
        Dipole field         -0.0002 Ry au, 
 
        Potential amp.        0.0220 Ry
        Total length         54.2615 bohr
 

     total cpu time spent up to now is      281.6 secs

     total energy              =   -7398.03138788 Ry
     estimated scf accuracy    <       0.17004848 Ry

     total magnetization       =    80.37 Bohr mag/cell
     absolute magnetization    =    81.99 Bohr mag/cell

     iteration # 19     ecut=    50.00 Ry     beta= 0.10
     Davidson diagonalization with overlap
     ethr =  7.27E-06,  avg # of iterations =  1.5

     negative rho (up, down):  6.252E-04 3.870E-04
 
     Adding external electric field

     Computed dipole along edir(3) : 
        Dipole               -0.3664 Ry au,         -0.9314 Debye
        Dipole field         -0.0002 Ry au, 
 
        Potential amp.        0.0246 Ry
        Total length         54.2615 bohr
 
 
     Adding external electric field

     Computed dipole along edir(3) : 
        Dipole               -0.3664 Ry au,         -0.9314 Debye
        Dipole field         -0.0002 Ry au, 
 
        Potential amp.        0.0246 Ry
        Total length         54.2615 bohr
 

     total cpu time spent up to now is      293.6 secs

     total energy              =   -7398.03073407 Ry
     estimated scf accuracy    <       0.15533931 Ry

     total magnetization       =    80.34 Bohr mag/cell
     absolute magnetization    =    81.85 Bohr mag/cell

     iteration # 20     ecut=    50.00 Ry     beta= 0.10
     Davidson diagonalization with overlap
     ethr =  7.27E-06,  avg # of iterations =  1.5

     negative rho (up, down):  5.790E-04 4.627E-04
 
     Adding external electric field

     Computed dipole along edir(3) : 
        Dipole               -0.3436 Ry au,         -0.8734 Debye
        Dipole field         -0.0002 Ry au, 
 
        Potential amp.        0.0231 Ry
        Total length         54.2615 bohr
 
 
     Adding external electric field

     Computed dipole along edir(3) : 
        Dipole               -0.3436 Ry au,         -0.8734 Debye
        Dipole field         -0.0002 Ry au, 
 
        Potential amp.        0.0231 Ry
        Total length         54.2615 bohr
 

     total cpu time spent up to now is      305.5 secs

     total energy              =   -7398.03378549 Ry
     estimated scf accuracy    <       0.06292227 Ry

     total magnetization       =    79.99 Bohr mag/cell
     absolute magnetization    =    81.49 Bohr mag/cell

     iteration # 21     ecut=    50.00 Ry     beta= 0.10
     Davidson diagonalization with overlap
     ethr =  5.84E-06,  avg # of iterations =  1.5

     negative rho (up, down):  6.461E-04 1.522E-04
 
     Adding external electric field

     Computed dipole along edir(3) : 
        Dipole               -0.3900 Ry au,         -0.9912 Debye
        Dipole field         -0.0002 Ry au, 
 
        Potential amp.        0.0262 Ry
        Total length         54.2615 bohr
 
 
     Adding external electric field

     Computed dipole along edir(3) : 
        Dipole               -0.3900 Ry au,         -0.9912 Debye
        Dipole field         -0.0002 Ry au, 
 
        Potential amp.        0.0262 Ry
        Total length         54.2615 bohr
 

     total cpu time spent up to now is      317.7 secs

     total energy              =   -7398.02433762 Ry
     estimated scf accuracy    <       0.09760624 Ry

     total magnetization       =    79.89 Bohr mag/cell
     absolute magnetization    =    81.38 Bohr mag/cell

     iteration # 22     ecut=    50.00 Ry     beta= 0.10
     Davidson diagonalization with overlap
     ethr =  5.84E-06,  avg # of iterations =  1.5

     negative rho (up, down):  5.231E-04 2.955E-04
 
     Adding external electric field

     Computed dipole along edir(3) : 
        Dipole               -0.3883 Ry au,         -0.9871 Debye
        Dipole field         -0.0002 Ry au, 
 
        Potential amp.        0.0261 Ry
        Total length         54.2615 bohr
 
 
     Adding external electric field

     Computed dipole along edir(3) : 
        Dipole               -0.3883 Ry au,         -0.9871 Debye
        Dipole field         -0.0002 Ry au, 
 
        Potential amp.        0.0261 Ry
        Total length         54.2615 bohr
 

     total cpu time spent up to now is      329.4 secs

     total energy              =   -7398.03170491 Ry
     estimated scf accuracy    <       0.05160540 Ry

     total magnetization       =    80.15 Bohr mag/cell
     absolute magnetization    =    81.61 Bohr mag/cell

     iteration # 23     ecut=    50.00 Ry     beta= 0.10
     Davidson diagonalization with overlap
     ethr =  4.79E-06,  avg # of iterations =  1.5

     negative rho (up, down):  4.457E-04 1.429E-04
 
     Adding external electric field

     Computed dipole along edir(3) : 
        Dipole               -0.3910 Ry au,         -0.9938 Debye
        Dipole field         -0.0002 Ry au, 
 
        Potential amp.        0.0262 Ry
        Total length         54.2615 bohr
 
 
     Adding external electric field

     Computed dipole along edir(3) : 
        Dipole               -0.3910 Ry au,         -0.9938 Debye
        Dipole field         -0.0002 Ry au, 
 
        Potential amp.        0.0262 Ry
        Total length         54.2615 bohr
 

     total cpu time spent up to now is      341.5 secs

     total energy              =   -7398.03034408 Ry
     estimated scf accuracy    <       0.06429124 Ry

     total magnetization       =    80.05 Bohr mag/cell
     absolute magnetization    =    81.50 Bohr mag/cell

     iteration # 24     ecut=    50.00 Ry     beta= 0.10
     Davidson diagonalization with overlap
     ethr =  4.79E-06,  avg # of iterations =  1.5

     negative rho (up, down):  6.256E-04 2.736E-04
 
     Adding external electric field

     Computed dipole along edir(3) : 
        Dipole               -0.3900 Ry au,         -0.9912 Debye
        Dipole field         -0.0002 Ry au, 
 
        Potential amp.        0.0262 Ry
        Total length         54.2615 bohr
 
 
     Adding external electric field

     Computed dipole along edir(3) : 
        Dipole               -0.3900 Ry au,         -0.9912 Debye
        Dipole field         -0.0002 Ry au, 
 
        Potential amp.        0.0262 Ry
        Total length         54.2615 bohr
 

     total cpu time spent up to now is      353.4 secs

     total energy              =   -7398.02972656 Ry
     estimated scf accuracy    <       0.06681519 Ry

     total magnetization       =    80.06 Bohr mag/cell
     absolute magnetization    =    81.49 Bohr mag/cell

     iteration # 25     ecut=    50.00 Ry     beta= 0.10
     Davidson diagonalization with overlap
     ethr =  4.79E-06,  avg # of iterations =  1.0

     negative rho (up, down):  3.713E-04 1.225E-04
 
     Adding external electric field

     Computed dipole along edir(3) : 
        Dipole               -0.3968 Ry au,         -1.0085 Debye
        Dipole field         -0.0002 Ry au, 
 
        Potential amp.        0.0266 Ry
        Total length         54.2615 bohr
 
 
     Adding external electric field

     Computed dipole along edir(3) : 
        Dipole               -0.3968 Ry au,         -1.0085 Debye
        Dipole field         -0.0002 Ry au, 
 
        Potential amp.        0.0266 Ry
        Total length         54.2615 bohr
 

     total cpu time spent up to now is      364.9 secs

     total energy              =   -7398.03141676 Ry
     estimated scf accuracy    <       0.06365611 Ry

     total magnetization       =    80.06 Bohr mag/cell
     absolute magnetization    =    81.40 Bohr mag/cell

     iteration # 26     ecut=    50.00 Ry     beta= 0.10
     Davidson diagonalization with overlap
     ethr =  4.79E-06,  avg # of iterations =  1.5

     negative rho (up, down):  5.896E-04 3.669E-04
 
     Adding external electric field

     Computed dipole along edir(3) : 
        Dipole               -0.4219 Ry au,         -1.0724 Debye
        Dipole field         -0.0003 Ry au, 
 
        Potential amp.        0.0283 Ry
        Total length         54.2615 bohr
 
 
     Adding external electric field

     Computed dipole along edir(3) : 
        Dipole               -0.4219 Ry au,         -1.0724 Debye
        Dipole field         -0.0003 Ry au, 
 
        Potential amp.        0.0283 Ry
        Total length         54.2615 bohr
 

     total cpu time spent up to now is      376.7 secs

     total energy              =   -7398.03219386 Ry
     estimated scf accuracy    <       0.05552570 Ry

     total magnetization       =    80.02 Bohr mag/cell
     absolute magnetization    =    81.49 Bohr mag/cell

     iteration # 27     ecut=    50.00 Ry     beta= 0.10
     Davidson diagonalization with overlap
     ethr =  4.79E-06,  avg # of iterations =  1.0

     negative rho (up, down):  6.316E-04 4.226E-04
 
     Adding external electric field

     Computed dipole along edir(3) : 
        Dipole               -0.4203 Ry au,         -1.0683 Debye
        Dipole field         -0.0003 Ry au, 
 
        Potential amp.        0.0282 Ry
        Total length         54.2615 bohr
 
 
     Adding external electric field

     Computed dipole along edir(3) : 
        Dipole               -0.4203 Ry au,         -1.0683 Debye
        Dipole field         -0.0003 Ry au, 
 
        Potential amp.        0.0282 Ry
        Total length         54.2615 bohr
 

     total cpu time spent up to now is      388.0 secs

     total energy              =   -7398.03257380 Ry
     estimated scf accuracy    <       0.04037862 Ry

     total magnetization       =    80.07 Bohr mag/cell
     absolute magnetization    =    81.54 Bohr mag/cell

     iteration # 28     ecut=    50.00 Ry     beta= 0.10
     Davidson diagonalization with overlap
     ethr =  3.75E-06,  avg # of iterations =  1.5

     negative rho (up, down):  5.791E-04 3.788E-04
 
     Adding external electric field

     Computed dipole along edir(3) : 
        Dipole               -0.3694 Ry au,         -0.9389 Debye
        Dipole field         -0.0002 Ry au, 
 
        Potential amp.        0.0248 Ry
        Total length         54.2615 bohr
 
 
     Adding external electric field

     Computed dipole along edir(3) : 
        Dipole               -0.3694 Ry au,         -0.9389 Debye
        Dipole field         -0.0002 Ry au, 
 
        Potential amp.        0.0248 Ry
        Total length         54.2615 bohr
 

     total cpu time spent up to now is      400.2 secs

     total energy              =   -7398.03181305 Ry
     estimated scf accuracy    <       0.03898017 Ry

     total magnetization       =    80.06 Bohr mag/cell
     absolute magnetization    =    81.53 Bohr mag/cell

     iteration # 29     ecut=    50.00 Ry     beta= 0.10
     Davidson diagonalization with overlap
     ethr =  3.62E-06,  avg # of iterations =  1.5

     negative rho (up, down):  6.498E-04 4.576E-04
 
     Adding external electric field

     Computed dipole along edir(3) : 
        Dipole               -0.3854 Ry au,         -0.9796 Debye
        Dipole field         -0.0002 Ry au, 
 
        Potential amp.        0.0259 Ry
        Total length         54.2615 bohr
 
 
     Adding external electric field

     Computed dipole along edir(3) : 
        Dipole               -0.3854 Ry au,         -0.9796 Debye
        Dipole field         -0.0002 Ry au, 
 
        Potential amp.        0.0259 Ry
        Total length         54.2615 bohr
 

     total cpu time spent up to now is      412.4 secs

     total energy              =   -7398.03232764 Ry
     estimated scf accuracy    <       0.04005464 Ry

     total magnetization       =    79.99 Bohr mag/cell
     absolute magnetization    =    81.40 Bohr mag/cell

     iteration # 30     ecut=    50.00 Ry     beta= 0.10
     Davidson diagonalization with overlap
     ethr =  3.62E-06,  avg # of iterations =  1.0

     negative rho (up, down):  7.464E-04 7.089E-04
 
     Adding external electric field

     Computed dipole along edir(3) : 
        Dipole               -0.3920 Ry au,         -0.9963 Debye
        Dipole field         -0.0002 Ry au, 
 
        Potential amp.        0.0263 Ry
        Total length         54.2615 bohr
 
 
     Adding external electric field

     Computed dipole along edir(3) : 
        Dipole               -0.3920 Ry au,         -0.9963 Debye
        Dipole field         -0.0002 Ry au, 
 
        Potential amp.        0.0263 Ry
        Total length         54.2615 bohr
 

     total cpu time spent up to now is      424.0 secs

     total energy              =   -7398.03337141 Ry
     estimated scf accuracy    <       0.03786909 Ry

     total magnetization       =    80.02 Bohr mag/cell
     absolute magnetization    =    81.41 Bohr mag/cell

     iteration # 31     ecut=    50.00 Ry     beta= 0.10
     Davidson diagonalization with overlap
     ethr =  3.51E-06,  avg # of iterations =  1.5

     negative rho (up, down):  6.670E-04 6.809E-04
 
     Adding external electric field

     Computed dipole along edir(3) : 
        Dipole               -0.4293 Ry au,         -1.0912 Debye
        Dipole field         -0.0003 Ry au, 
 
        Potential amp.        0.0288 Ry
        Total length         54.2615 bohr
 
 
     Adding external electric field

     Computed dipole along edir(3) : 
        Dipole               -0.4293 Ry au,         -1.0912 Debye
        Dipole field         -0.0003 Ry au, 
 
        Potential amp.        0.0288 Ry
        Total length         54.2615 bohr
 

     total cpu time spent up to now is      435.8 secs

     total energy              =   -7398.03330096 Ry
     estimated scf accuracy    <       0.04050882 Ry

     total magnetization       =    80.04 Bohr mag/cell
     absolute magnetization    =    81.45 Bohr mag/cell

     iteration # 32     ecut=    50.00 Ry     beta= 0.10
     Davidson diagonalization with overlap
     ethr =  3.51E-06,  avg # of iterations =  1.0

     negative rho (up, down):  7.319E-04 6.068E-04
 
     Adding external electric field

     Computed dipole along edir(3) : 
        Dipole               -0.4177 Ry au,         -1.0617 Debye
        Dipole field         -0.0003 Ry au, 
 
        Potential amp.        0.0280 Ry
        Total length         54.2615 bohr
 
 
     Adding external electric field

     Computed dipole along edir(3) : 
        Dipole               -0.4177 Ry au,         -1.0617 Debye
        Dipole field         -0.0003 Ry au, 
 
        Potential amp.        0.0280 Ry
        Total length         54.2615 bohr
 

     total cpu time spent up to now is      447.2 secs

     total energy              =   -7398.03274879 Ry
     estimated scf accuracy    <       0.03684579 Ry

     total magnetization       =    80.04 Bohr mag/cell
     absolute magnetization    =    81.45 Bohr mag/cell

     iteration # 33     ecut=    50.00 Ry     beta= 0.10
     Davidson diagonalization with overlap
     ethr =  3.42E-06,  avg # of iterations =  1.5

     negative rho (up, down):  7.662E-04 7.305E-04
 
     Adding external electric field

     Computed dipole along edir(3) : 
        Dipole               -0.4148 Ry au,         -1.0544 Debye
        Dipole field         -0.0003 Ry au, 
 
        Potential amp.        0.0278 Ry
        Total length         54.2615 bohr
 
 
     Adding external electric field

     Computed dipole along edir(3) : 
        Dipole               -0.4148 Ry au,         -1.0544 Debye
        Dipole field         -0.0003 Ry au, 
 
        Potential amp.        0.0278 Ry
        Total length         54.2615 bohr
 

     total cpu time spent up to now is      459.1 secs

     total energy              =   -7398.03300992 Ry
     estimated scf accuracy    <       0.03734494 Ry

     total magnetization       =    80.04 Bohr mag/cell
     absolute magnetization    =    81.43 Bohr mag/cell

     iteration # 34     ecut=    50.00 Ry     beta= 0.10
     Davidson diagonalization with overlap
     ethr =  3.42E-06,  avg # of iterations =  1.5

     negative rho (up, down):  1.041E-03 9.115E-04
 
     Adding external electric field

     Computed dipole along edir(3) : 
        Dipole               -0.4026 Ry au,         -1.0232 Debye
        Dipole field         -0.0002 Ry au, 
 
        Potential amp.        0.0270 Ry
        Total length         54.2615 bohr
 
 
     Adding external electric field

     Computed dipole along edir(3) : 
        Dipole               -0.4026 Ry au,         -1.0232 Debye
        Dipole field         -0.0002 Ry au, 
 
        Potential amp.        0.0270 Ry
        Total length         54.2615 bohr
 

     total cpu time spent up to now is      471.3 secs

     total energy              =   -7398.03001692 Ry
     estimated scf accuracy    <       0.03606963 Ry

     total magnetization       =    80.02 Bohr mag/cell
     absolute magnetization    =    81.39 Bohr mag/cell

     iteration # 35     ecut=    50.00 Ry     beta= 0.10
     Davidson diagonalization with overlap
     ethr =  3.35E-06,  avg # of iterations =  1.5

     negative rho (up, down):  8.362E-04 8.274E-04
 
     Adding external electric field

     Computed dipole along edir(3) : 
        Dipole               -0.4127 Ry au,         -1.0491 Debye
        Dipole field         -0.0003 Ry au, 
 
        Potential amp.        0.0277 Ry
        Total length         54.2615 bohr
 
 
     Adding external electric field

     Computed dipole along edir(3) : 
        Dipole               -0.4127 Ry au,         -1.0491 Debye
        Dipole field         -0.0003 Ry au, 
 
        Potential amp.        0.0277 Ry
        Total length         54.2615 bohr
 

     total cpu time spent up to now is      482.7 secs

     total energy              =   -7398.03263494 Ry
     estimated scf accuracy    <       0.03833030 Ry

     total magnetization       =    80.06 Bohr mag/cell
     absolute magnetization    =    81.28 Bohr mag/cell

     iteration # 36     ecut=    50.00 Ry     beta= 0.10
     Davidson diagonalization with overlap
     ethr =  3.35E-06,  avg # of iterations =  1.0

     negative rho (up, down):  6.458E-04 4.781E-04
 
     Adding external electric field

     Computed dipole along edir(3) : 
        Dipole               -0.4087 Ry au,         -1.0388 Debye
        Dipole field         -0.0003 Ry au, 
 
        Potential amp.        0.0274 Ry
        Total length         54.2615 bohr
 
 
     Adding external electric field

     Computed dipole along edir(3) : 
        Dipole               -0.4087 Ry au,         -1.0388 Debye
        Dipole field         -0.0003 Ry au, 
 
        Potential amp.        0.0274 Ry
        Total length         54.2615 bohr
 

     total cpu time spent up to now is      493.6 secs

     total energy              =   -7398.03258669 Ry
     estimated scf accuracy    <       0.03822610 Ry

     total magnetization       =    80.01 Bohr mag/cell
     absolute magnetization    =    81.34 Bohr mag/cell

     iteration # 37     ecut=    50.00 Ry     beta= 0.10
     Davidson diagonalization with overlap
     ethr =  3.35E-06,  avg # of iterations =  1.5

     negative rho (up, down):  5.848E-04 4.662E-04
 
     Adding external electric field

     Computed dipole along edir(3) : 
        Dipole               -0.4258 Ry au,         -1.0822 Debye
        Dipole field         -0.0003 Ry au, 
 
        Potential amp.        0.0286 Ry
        Total length         54.2615 bohr
 
 
     Adding external electric field

     Computed dipole along edir(3) : 
        Dipole               -0.4258 Ry au,         -1.0822 Debye
        Dipole field         -0.0003 Ry au, 
 
        Potential amp.        0.0286 Ry
        Total length         54.2615 bohr
 

     total cpu time spent up to now is      505.5 secs

     total energy              =   -7398.03299991 Ry
     estimated scf accuracy    <       0.03770724 Ry

     total magnetization       =    80.11 Bohr mag/cell
     absolute magnetization    =    81.48 Bohr mag/cell

     iteration # 38     ecut=    50.00 Ry     beta= 0.10
     Davidson diagonalization with overlap
     ethr =  3.35E-06,  avg # of iterations =  1.0

     negative rho (up, down):  7.703E-04 8.249E-04
 
     Adding external electric field

     Computed dipole along edir(3) : 
        Dipole               -0.3904 Ry au,         -0.9922 Debye
        Dipole field         -0.0002 Ry au, 
 
        Potential amp.        0.0262 Ry
        Total length         54.2615 bohr
 
 
     Adding external electric field

     Computed dipole along edir(3) : 
        Dipole               -0.3904 Ry au,         -0.9922 Debye
        Dipole field         -0.0002 Ry au, 
 
        Potential amp.        0.0262 Ry
        Total length         54.2615 bohr
 

     total cpu time spent up to now is      516.6 secs

     total energy              =   -7398.03265720 Ry
     estimated scf accuracy    <       0.03953763 Ry

     total magnetization       =    80.09 Bohr mag/cell
     absolute magnetization    =    81.48 Bohr mag/cell

     iteration # 39     ecut=    50.00 Ry     beta= 0.10
     Davidson diagonalization with overlap
     ethr =  3.35E-06,  avg # of iterations =  1.5

     negative rho (up, down):  7.461E-04 5.601E-04
 
     Adding external electric field

     Computed dipole along edir(3) : 
        Dipole               -0.3903 Ry au,         -0.9920 Debye
        Dipole field         -0.0002 Ry au, 
 
        Potential amp.        0.0262 Ry
        Total length         54.2615 bohr
 
 
     Adding external electric field

     Computed dipole along edir(3) : 
        Dipole               -0.3903 Ry au,         -0.9920 Debye
        Dipole field         -0.0002 Ry au, 
 
        Potential amp.        0.0262 Ry
        Total length         54.2615 bohr
 

     total cpu time spent up to now is      528.2 secs

     total energy              =   -7398.03264898 Ry
     estimated scf accuracy    <       0.04155357 Ry

     total magnetization       =    80.01 Bohr mag/cell
     absolute magnetization    =    81.34 Bohr mag/cell

     iteration # 40     ecut=    50.00 Ry     beta= 0.10
     Davidson diagonalization with overlap
     ethr =  3.35E-06,  avg # of iterations =  1.0

     negative rho (up, down):  7.204E-04 7.724E-04
 
     Adding external electric field

     Computed dipole along edir(3) : 
        Dipole               -0.3691 Ry au,         -0.9382 Debye
        Dipole field         -0.0002 Ry au, 
 
        Potential amp.        0.0248 Ry
        Total length         54.2615 bohr
 
 
     Adding external electric field

     Computed dipole along edir(3) : 
        Dipole               -0.3691 Ry au,         -0.9382 Debye
        Dipole field         -0.0002 Ry au, 
 
        Potential amp.        0.0248 Ry
        Total length         54.2615 bohr
 

     total cpu time spent up to now is      538.9 secs

     total energy              =   -7398.03317164 Ry
     estimated scf accuracy    <       0.03943852 Ry

     total magnetization       =    80.10 Bohr mag/cell
     absolute magnetization    =    81.47 Bohr mag/cell

     iteration # 41     ecut=    50.00 Ry     beta= 0.10
     Davidson diagonalization with overlap
     ethr =  3.35E-06,  avg # of iterations =  1.5

     negative rho (up, down):  7.398E-04 7.766E-04
 
     Adding external electric field

     Computed dipole along edir(3) : 
        Dipole               -0.4208 Ry au,         -1.0695 Debye
        Dipole field         -0.0003 Ry au, 
 
        Potential amp.        0.0282 Ry
        Total length         54.2615 bohr
 
 
     Adding external electric field

     Computed dipole along edir(3) : 
        Dipole               -0.4208 Ry au,         -1.0695 Debye
        Dipole field         -0.0003 Ry au, 
 
        Potential amp.        0.0282 Ry
        Total length         54.2615 bohr
 

     total cpu time spent up to now is      550.3 secs

     total energy              =   -7398.03340487 Ry
     estimated scf accuracy    <       0.04135436 Ry

     total magnetization       =    80.09 Bohr mag/cell
     absolute magnetization    =    81.46 Bohr mag/cell

     iteration # 42     ecut=    50.00 Ry     beta= 0.10
     Davidson diagonalization with overlap
     ethr =  3.35E-06,  avg # of iterations =  1.0

     negative rho (up, down):  5.808E-04 5.349E-04
 
     Adding external electric field

     Computed dipole along edir(3) : 
        Dipole               -0.4626 Ry au,         -1.1758 Debye
        Dipole field         -0.0003 Ry au, 
 
        Potential amp.        0.0310 Ry
        Total length         54.2615 bohr
 
 
     Adding external electric field

     Computed dipole along edir(3) : 
        Dipole               -0.4626 Ry au,         -1.1758 Debye
        Dipole field         -0.0003 Ry au, 
 
        Potential amp.        0.0310 Ry
        Total length         54.2615 bohr
 

     total cpu time spent up to now is      561.8 secs

     total energy              =   -7398.03411907 Ry
     estimated scf accuracy    <       0.03702028 Ry

     total magnetization       =    80.09 Bohr mag/cell
     absolute magnetization    =    81.48 Bohr mag/cell

     iteration # 43     ecut=    50.00 Ry     beta= 0.10
     Davidson diagonalization with overlap
     ethr =  3.35E-06,  avg # of iterations =  1.5

     negative rho (up, down):  8.578E-04 7.946E-04
 
     Adding external electric field

     Computed dipole along edir(3) : 
        Dipole               -0.3894 Ry au,         -0.9897 Debye
        Dipole field         -0.0002 Ry au, 
 
        Potential amp.        0.0261 Ry
        Total length         54.2615 bohr
 
 
     Adding external electric field

     Computed dipole along edir(3) : 
        Dipole               -0.3894 Ry au,         -0.9897 Debye
        Dipole field         -0.0002 Ry au, 
 
        Potential amp.        0.0261 Ry
        Total length         54.2615 bohr
 

     total cpu time spent up to now is      573.6 secs

     total energy              =   -7398.03153233 Ry
     estimated scf accuracy    <       0.03949810 Ry

     total magnetization       =    80.08 Bohr mag/cell
     absolute magnetization    =    81.53 Bohr mag/cell

     iteration # 44     ecut=    50.00 Ry     beta= 0.10
     Davidson diagonalization with overlap
     ethr =  3.35E-06,  avg # of iterations =  1.0

     negative rho (up, down):  8.095E-04 8.543E-04
 
     Adding external electric field

     Computed dipole along edir(3) : 
        Dipole               -0.4428 Ry au,         -1.1255 Debye
        Dipole field         -0.0003 Ry au, 
 
        Potential amp.        0.0297 Ry
        Total length         54.2615 bohr
 
 
     Adding external electric field

     Computed dipole along edir(3) : 
        Dipole               -0.4428 Ry au,         -1.1255 Debye
        Dipole field         -0.0003 Ry au, 
 
        Potential amp.        0.0297 Ry
        Total length         54.2615 bohr
 

     total cpu time spent up to now is      584.8 secs

     total energy              =   -7398.03345676 Ry
     estimated scf accuracy    <       0.03932264 Ry

     total magnetization       =    80.12 Bohr mag/cell
     absolute magnetization    =    81.45 Bohr mag/cell

     iteration # 45     ecut=    50.00 Ry     beta= 0.10
     Davidson diagonalization with overlap
     ethr =  3.35E-06,  avg # of iterations =  1.5

     negative rho (up, down):  9.858E-04 8.506E-04
 
     Adding external electric field

     Computed dipole along edir(3) : 
        Dipole               -0.4093 Ry au,         -1.0405 Debye
        Dipole field         -0.0003 Ry au, 
 
        Potential amp.        0.0275 Ry
        Total length         54.2615 bohr
 
 
     Adding external electric field

     Computed dipole along edir(3) : 
        Dipole               -0.4093 Ry au,         -1.0405 Debye
        Dipole field         -0.0003 Ry au, 
 
        Potential amp.        0.0275 Ry
        Total length         54.2615 bohr
 

     total cpu time spent up to now is      596.9 secs

     total energy              =   -7398.03244819 Ry
     estimated scf accuracy    <       0.03630438 Ry

     total magnetization       =    80.09 Bohr mag/cell
     absolute magnetization    =    81.46 Bohr mag/cell

     iteration # 46     ecut=    50.00 Ry     beta= 0.10
     Davidson diagonalization with overlap
     ethr =  3.35E-06,  avg # of iterations =  1.0

     negative rho (up, down):  8.208E-04 9.268E-04
 
     Adding external electric field

     Computed dipole along edir(3) : 
        Dipole               -0.4532 Ry au,         -1.1520 Debye
        Dipole field         -0.0003 Ry au, 
 
        Potential amp.        0.0304 Ry
        Total length         54.2615 bohr
 
 
     Adding external electric field

     Computed dipole along edir(3) : 
        Dipole               -0.4532 Ry au,         -1.1520 Debye
        Dipole field         -0.0003 Ry au, 
 
        Potential amp.        0.0304 Ry
        Total length         54.2615 bohr
 

     total cpu time spent up to now is      608.0 secs

     total energy              =   -7398.03373965 Ry
     estimated scf accuracy    <       0.04151719 Ry

     total magnetization       =    80.15 Bohr mag/cell
     absolute magnetization    =    81.54 Bohr mag/cell

     iteration # 47     ecut=    50.00 Ry     beta= 0.10
     Davidson diagonalization with overlap
     ethr =  3.35E-06,  avg # of iterations =  1.0

     negative rho (up, down):  8.596E-04 7.767E-04
 
     Adding external electric field

     Computed dipole along edir(3) : 
        Dipole               -0.4302 Ry au,         -1.0935 Debye
        Dipole field         -0.0003 Ry au, 
 
        Potential amp.        0.0289 Ry
        Total length         54.2615 bohr
 
 
     Adding external electric field

     Computed dipole along edir(3) : 
        Dipole               -0.4302 Ry au,         -1.0935 Debye
        Dipole field         -0.0003 Ry au, 
 
        Potential amp.        0.0289 Ry
        Total length         54.2615 bohr
 

     total cpu time spent up to now is      618.8 secs

     total energy              =   -7398.03304793 Ry
     estimated scf accuracy    <       0.04196098 Ry

     total magnetization       =    80.08 Bohr mag/cell
     absolute magnetization    =    81.50 Bohr mag/cell

     iteration # 48     ecut=    50.00 Ry     beta= 0.10
     Davidson diagonalization with overlap
     ethr =  3.35E-06,  avg # of iterations =  1.5

     negative rho (up, down):  7.530E-04 9.542E-04
 
     Adding external electric field

     Computed dipole along edir(3) : 
        Dipole               -0.3780 Ry au,         -0.9608 Debye
        Dipole field         -0.0002 Ry au, 
 
        Potential amp.        0.0254 Ry
        Total length         54.2615 bohr
 
 
     Adding external electric field

     Computed dipole along edir(3) : 
        Dipole               -0.3780 Ry au,         -0.9608 Debye
        Dipole field         -0.0002 Ry au, 
 
        Potential amp.        0.0254 Ry
        Total length         54.2615 bohr
 

     total cpu time spent up to now is      629.0 secs

     total energy              =   -7398.03181155 Ry
     estimated scf accuracy    <       0.03735388 Ry

     total magnetization       =    80.12 Bohr mag/cell
     absolute magnetization    =    81.48 Bohr mag/cell

     iteration # 49     ecut=    50.00 Ry     beta= 0.10
     Davidson diagonalization with overlap
     ethr =  3.35E-06,  avg # of iterations =  1.0

     negative rho (up, down):  9.734E-04 1.032E-03
 
     Adding external electric field

     Computed dipole along edir(3) : 
        Dipole               -0.3897 Ry au,         -0.9905 Debye
        Dipole field         -0.0002 Ry au, 
 
        Potential amp.        0.0262 Ry
        Total length         54.2615 bohr
 
 
     Adding external electric field

     Computed dipole along edir(3) : 
        Dipole               -0.3897 Ry au,         -0.9905 Debye
        Dipole field         -0.0002 Ry au, 
 
        Potential amp.        0.0262 Ry
        Total length         54.2615 bohr
 

     total cpu time spent up to now is      639.0 secs

     total energy              =   -7398.03241723 Ry
     estimated scf accuracy    <       0.03949839 Ry

     total magnetization       =    80.02 Bohr mag/cell
     absolute magnetization    =    81.31 Bohr mag/cell

     iteration # 50     ecut=    50.00 Ry     beta= 0.10
     Davidson diagonalization with overlap
     ethr =  3.35E-06,  avg # of iterations =  1.5

     negative rho (up, down):  1.424E-03 1.732E-03
 
     Adding external electric field

     Computed dipole along edir(3) : 
        Dipole               -0.3939 Ry au,         -1.0012 Debye
        Dipole field         -0.0002 Ry au, 
 
        Potential amp.        0.0264 Ry
        Total length         54.2615 bohr
 
 
     Adding external electric field

     Computed dipole along edir(3) : 
        Dipole               -0.3939 Ry au,         -1.0012 Debye
        Dipole field         -0.0002 Ry au, 
 
        Potential amp.        0.0264 Ry
        Total length         54.2615 bohr
 

     total cpu time spent up to now is      649.8 secs

     total energy              =   -7398.03265633 Ry
     estimated scf accuracy    <       0.03730070 Ry

     total magnetization       =    80.11 Bohr mag/cell
     absolute magnetization    =    81.45 Bohr mag/cell

     iteration # 51     ecut=    50.00 Ry     beta= 0.10
     Davidson diagonalization with overlap
     ethr =  3.35E-06,  avg # of iterations =  1.5

     negative rho (up, down):  8.598E-04 8.717E-04
 
     Adding external electric field

     Computed dipole along edir(3) : 
        Dipole               -0.4477 Ry au,         -1.1378 Debye
        Dipole field         -0.0003 Ry au, 
 
        Potential amp.        0.0300 Ry
        Total length         54.2615 bohr
 
 
     Adding external electric field

     Computed dipole along edir(3) : 
        Dipole               -0.4477 Ry au,         -1.1378 Debye
        Dipole field         -0.0003 Ry au, 
 
        Potential amp.        0.0300 Ry
        Total length         54.2615 bohr
 

     total cpu time spent up to now is      660.3 secs

     total energy              =   -7398.03345331 Ry
     estimated scf accuracy    <       0.04054860 Ry

     total magnetization       =    80.10 Bohr mag/cell
     absolute magnetization    =    81.49 Bohr mag/cell

     iteration # 52     ecut=    50.00 Ry     beta= 0.10
     Davidson diagonalization with overlap
     ethr =  3.35E-06,  avg # of iterations =  1.0

     negative rho (up, down):  7.346E-04 6.594E-04
 
     Adding external electric field

     Computed dipole along edir(3) : 
        Dipole               -0.3450 Ry au,         -0.8769 Debye
        Dipole field         -0.0002 Ry au, 
 
        Potential amp.        0.0232 Ry
        Total length         54.2615 bohr
 
 
     Adding external electric field

     Computed dipole along edir(3) : 
        Dipole               -0.3450 Ry au,         -0.8769 Debye
        Dipole field         -0.0002 Ry au, 
 
        Potential amp.        0.0232 Ry
        Total length         54.2615 bohr
 

     total cpu time spent up to now is      670.1 secs

     total energy              =   -7398.03255762 Ry
     estimated scf accuracy    <       0.03631595 Ry

     total magnetization       =    80.09 Bohr mag/cell
     absolute magnetization    =    81.47 Bohr mag/cell

     iteration # 53     ecut=    50.00 Ry     beta= 0.10
     Davidson diagonalization with overlap
     ethr =  3.35E-06,  avg # of iterations =  1.5

     negative rho (up, down):  4.557E-04 2.757E-04
 
     Adding external electric field

     Computed dipole along edir(3) : 
        Dipole               -0.3407 Ry au,         -0.8661 Debye
        Dipole field         -0.0002 Ry au, 
 
        Potential amp.        0.0229 Ry
        Total length         54.2615 bohr
 
 
     Adding external electric field

     Computed dipole along edir(3) : 
        Dipole               -0.3407 Ry au,         -0.8661 Debye
        Dipole field         -0.0002 Ry au, 
 
        Potential amp.        0.0229 Ry
        Total length         54.2615 bohr
 

     total cpu time spent up to now is      681.8 secs

     total energy              =   -7398.03116205 Ry
     estimated scf accuracy    <       0.03613395 Ry

     total magnetization       =    80.13 Bohr mag/cell
     absolute magnetization    =    81.51 Bohr mag/cell

     iteration # 54     ecut=    50.00 Ry     beta= 0.10
     Davidson diagonalization with overlap
     ethr =  3.35E-06,  avg # of iterations =  1.0

     negative rho (up, down):  4.900E-04 4.089E-04
 
     Adding external electric field

     Computed dipole along edir(3) : 
        Dipole               -0.3019 Ry au,         -0.7673 Debye
        Dipole field         -0.0002 Ry au, 
 
        Potential amp.        0.0203 Ry
        Total length         54.2615 bohr
 
 
     Adding external electric field

     Computed dipole along edir(3) : 
        Dipole               -0.3019 Ry au,         -0.7673 Debye
        Dipole field         -0.0002 Ry au, 
 
        Potential amp.        0.0203 Ry
        Total length         54.2615 bohr
 

     total cpu time spent up to now is      692.6 secs

     total energy              =   -7398.03241561 Ry
     estimated scf accuracy    <       0.03820337 Ry

     total magnetization       =    80.12 Bohr mag/cell
     absolute magnetization    =    81.47 Bohr mag/cell

     iteration # 55     ecut=    50.00 Ry     beta= 0.10
     Davidson diagonalization with overlap
     ethr =  3.35E-06,  avg # of iterations =  1.5

     negative rho (up, down):  5.667E-04 3.503E-04
 
     Adding external electric field

     Computed dipole along edir(3) : 
        Dipole               -0.3259 Ry au,         -0.8284 Debye
        Dipole field         -0.0002 Ry au, 
 
        Potential amp.        0.0219 Ry
        Total length         54.2615 bohr
 
 
     Adding external electric field

     Computed dipole along edir(3) : 
        Dipole               -0.3259 Ry au,         -0.8284 Debye
        Dipole field         -0.0002 Ry au, 
 
        Potential amp.        0.0219 Ry
        Total length         54.2615 bohr
 

     total cpu time spent up to now is      705.0 secs

     total energy              =   -7398.03053353 Ry
     estimated scf accuracy    <       0.04010389 Ry

     total magnetization       =    80.10 Bohr mag/cell
     absolute magnetization    =    81.55 Bohr mag/cell

     iteration # 56     ecut=    50.00 Ry     beta= 0.10
     Davidson diagonalization with overlap
     ethr =  3.35E-06,  avg # of iterations =  1.0

     negative rho (up, down):  6.740E-04 5.954E-04
 
     Adding external electric field

     Computed dipole along edir(3) : 
        Dipole               -0.3253 Ry au,         -0.8267 Debye
        Dipole field         -0.0002 Ry au, 
 
        Potential amp.        0.0218 Ry
        Total length         54.2615 bohr
 
 
     Adding external electric field

     Computed dipole along edir(3) : 
        Dipole               -0.3253 Ry au,         -0.8267 Debye
        Dipole field         -0.0002 Ry au, 
 
        Potential amp.        0.0218 Ry
        Total length         54.2615 bohr
 

     total cpu time spent up to now is      719.0 secs

     total energy              =   -7398.03212545 Ry
     estimated scf accuracy    <       0.04526208 Ry

     total magnetization       =    80.14 Bohr mag/cell
     absolute magnetization    =    81.54 Bohr mag/cell

     iteration # 57     ecut=    50.00 Ry     beta= 0.10
     Davidson diagonalization with overlap
     ethr =  3.35E-06,  avg # of iterations =  2.0

     negative rho (up, down):  6.869E-04 5.108E-04
 
     Adding external electric field

     Computed dipole along edir(3) : 
        Dipole               -0.3396 Ry au,         -0.8631 Debye
        Dipole field         -0.0002 Ry au, 
 
        Potential amp.        0.0228 Ry
        Total length         54.2615 bohr
 
 
     Adding external electric field

     Computed dipole along edir(3) : 
        Dipole               -0.3396 Ry au,         -0.8631 Debye
        Dipole field         -0.0002 Ry au, 
 
        Potential amp.        0.0228 Ry
        Total length         54.2615 bohr
 

     total cpu time spent up to now is      730.0 secs

     total energy              =   -7398.03174038 Ry
     estimated scf accuracy    <       0.03710387 Ry

     total magnetization       =    80.12 Bohr mag/cell
     absolute magnetization    =    81.51 Bohr mag/cell

     iteration # 58     ecut=    50.00 Ry     beta= 0.10
     Davidson diagonalization with overlap
     ethr =  3.35E-06,  avg # of iterations =  1.0

     negative rho (up, down):  5.357E-04 4.891E-04
 
     Adding external electric field

     Computed dipole along edir(3) : 
        Dipole               -0.2825 Ry au,         -0.7181 Debye
        Dipole field         -0.0002 Ry au, 
 
        Potential amp.        0.0190 Ry
        Total length         54.2615 bohr
 
 
     Adding external electric field

[...]
    -5.9515  -5.9328  -5.9258  -5.9052  -5.8922  -5.8575  -5.8179  -5.8119
    -5.7789  -5.7709  -5.7379  -5.7359  -5.7242  -5.6824  -5.6725  -5.6513
    -5.6438  -5.6319  -5.6032  -5.5935  -5.5809  -5.5623  -5.5290  -5.4833
    -5.4652  -5.4316  -5.3984  -5.3869  -5.3696  -5.3437  -5.3133  -5.2566
    -5.2365  -5.2044  -5.1839  -5.1665  -5.1000  -5.0732  -5.0334  -5.0028
    -4.9956  -4.9624  -4.9287  -4.9204  -4.8890  -4.8777  -4.8477  -4.8401
    -4.7800  -4.7496  -4.6974  -4.6928  -4.6559  -4.6195  -4.5830  -4.5333
    -4.5053  -4.4853  -4.4527  -4.4329  -4.4078  -4.3813  -4.3512  -4.3304
    -4.3115  -4.2618  -4.2135  -4.1834  -4.1692  -4.1262  -4.1041  -4.0941
    -4.0454  -4.0048  -3.9907  -3.9703  -3.9544  -3.9277  -3.8987  -3.8796
    -3.8372  -3.8290  -3.8119  -3.7872  -3.7749  -3.7250  -3.7146  -3.7009
    -3.6742  -3.6687  -3.6411  -3.6324  -3.6183  -3.5993  -3.5916  -3.5202
    -3.5153  -3.5016  -3.4953  -3.4751  -3.4645  -3.4612  -3.4279  -3.4223
    -3.4014  -3.3708  -3.3578  -3.3418  -3.3074  -3.2963  -3.2704  -3.2458
    -3.2314  -3.2014  -3.1984  -3.1568  -3.1491  -3.1366  -3.1182  -3.1112
    -3.0856  -3.0671  -3.0484  -3.0146  -2.9972  -2.9773  -2.9636  -2.9292
    -2.9087  -2.8945  -2.8743  -2.8506  -2.8291  -2.8205  -2.7907  -2.7735
    -2.7624  -2.7512  -2.7451  -2.7306  -2.7285  -2.7121  -2.7066  -2.7016
    -2.6599  -2.6522  -2.6337  -2.6188  -2.6027  -2.5911  -2.5660  -2.5604
    -2.5387  -2.5206  -2.4995  -2.4725  -2.4645  -2.4504  -2.4473  -2.4331
    -2.3914  -2.3840  -2.3667  -2.3537  -2.3218  -2.3065  -2.2740  -2.2632
    -2.2545  -2.2169  -2.2145  -2.1862  -2.1705  -2.1500  -2.1327  -2.1195
    -2.0889  -2.0762  -2.0573  -2.0444  -2.0359  -2.0190  -1.9915  -1.9692
    -1.9540  -1.9443  -1.9413  -1.9258  -1.8964  -1.8731  -1.8655  -1.8375
    -1.8170  -1.7976  -1.7714  -1.7509  -1.7465  -1.7329  -1.7107  -1.6839
    -1.6622  -1.6496  -1.6368  -1.6257  -1.5921  -1.5727  -1.5560  -1.5255
    -1.5135  -1.4956  -1.4902  -1.4672  -1.4415  -1.4223  -1.3960  -1.3817
    -1.3757  -1.3506  -1.3125  -1.2834  -1.2704  -1.2378  -1.2253  -1.2127
    -1.1449  -1.1316  -1.0735  -0.9770  -0.9551  -0.9374  -0.8517  -0.8354
    -0.7944  -0.7436  -0.7062  -0.5036  -0.3616  -0.3068  -0.2909  -0.1865
     0.1350   0.1566   0.1871   0.2254   0.2501   0.2585   0.2763   0.2892
     0.3071   0.3122   0.3370   0.3459   0.3525   0.3573   0.3699   0.3745
     0.3838   0.3870   0.4049   0.4107   0.4176   0.4210   0.4305   0.4419
     0.4428   0.4515   0.4613   0.4652   0.4706   0.4793   0.4805   0.4835
     0.4969   0.5111   0.5141   0.5208   0.5270   0.5312   0.5330   0.5459
     0.5577   0.5663   0.5726   0.5778   0.5805   0.5876   0.5965   0.6020
     0.6114   0.6327   0.6348   0.6366   0.6410   0.6501   0.6560   0.6641
     0.6714   0.6809   0.6843   0.6930   0.7025   0.7032   0.7049   0.7219
     0.7266   0.7394   0.7415   0.7545   0.7564   0.7642   0.7720   0.7758
     0.7780   0.7959   0.8111   0.8199   0.8355   0.8414   0.8596   0.8637
     0.8719   0.8840   0.8882   0.8941   0.8971   0.9085   0.9172   0.9229
     0.9321   0.9389   0.9472   0.9707   0.9717   1.0279   1.0299   1.0434
     1.1536   1.1872   1.6318   1.7097   1.7127   1.7155   1.7343   1.7447
     1.7655   1.8353   1.8790   1.8974   1.9215   1.9559   1.9641   1.9802
     2.0075   2.0261   2.0516   2.0619   2.0752   2.0764   2.0795   2.1372
     2.1531   2.1748   2.1860   2.2008   2.2243   2.2410   2.2559   2.2678
     2.2792   2.2839   2.3092   2.3147   2.3179   2.3295   2.3510   2.3549
     2.3632   2.3786   2.3867   2.4106   2.4230   2.4278   2.4553   2.4756
     2.4838   2.5167   2.5203   2.5221   2.5506   2.5642   2.5790   2.6108
     2.6160   2.6325   2.6479   2.6614   2.7053   2.7386   2.7536   2.7985
     2.8246   2.8532   2.8781   2.9006   2.9410   3.2839   3.3185   3.4776
     3.5907   3.8199   3.8820   3.9645   4.0269   4.0481   4.1086   4.5152
     4.6644   4.7881   4.9158   4.9281   4.9723   5.0769   5.4327   6.3368
     6.3819   6.5308   6.6020   6.6981   6.7583   6.8444   6.9027   6.9935
     7.0213   7.1012   7.1549   7.1910   7.3134   7.3448   7.3892   7.4512
     7.5499   7.5837   7.6319   7.6876   7.7147   7.7500   7.8214   7.8539
     7.8871   7.9438   7.9751   7.9940   8.0298   8.0547   8.0880   8.1291
     8.1501   8.1612   8.1918   8.2203   8.2629   8.2814   8.3071   8.3365
     8.3640   8.3787   8.4330   8.4735   8.4848   8.5060   8.5380   8.5436
     8.5587   8.5701   8.6002   8.6070   8.6300   8.6487   8.6760   8.6875
     8.7313   8.7438   8.7866   8.8094   8.8669   8.8697   8.9456

     the Fermi energy is     1.6003 ev

!    total energy              =   -7398.02980539 Ry
     estimated scf accuracy    <       0.00000072 Ry
     smearing contrib. (-TS)   =      -0.01673761 Ry
     internal energy E=F+TS    =   -7398.01306778 Ry

     The total energy is F=E-TS. E is the sum of the following terms:
     one-electron contribution =  -91631.26219736 Ry
     hartree contribution      =   46463.98710430 Ry
     xc contribution           =   -2260.27199191 Ry
     ewald contribution        =   40031.36645362 Ry
     Dispersion Correction     =      -1.83249452 Ry
     electric field correction =       0.00005808 Ry

     total magnetization       =    80.12 Bohr mag/cell
     absolute magnetization    =    81.65 Bohr mag/cell

     convergence has been achieved in 109 iterations

     negative rho (up, down):  9.265E-04 5.469E-04

     Forces acting on atoms (cartesian axes, Ry/au):

     atom    1 type  2   force =     0.00042697   -0.00089559    0.00021995
     atom    2 type  1   force =    -0.00002997    0.00032350   -0.00017047
     atom    3 type  1   force =     0.00004639    0.00003121    0.00003946
     atom    4 type  1   force =     0.00010677   -0.00027369    0.00062889
     atom    5 type  1   force =     0.00036742   -0.00048440   -0.00021461
     atom    6 type  1   force =     0.00045749    0.00065995    0.00051518
     atom    7 type  1   force =     0.00037849    0.00006564   -0.00037895
     atom    8 type  1   force =    -0.00001598    0.00055534    0.00022442
     atom    9 type  1   force =     0.00048795    0.00235944    0.00124784
     atom   10 type  1   force =     0.00032255    0.00012101    0.00007320
     atom   11 type  1   force =    -0.00016131    0.00004384    0.00022815
     atom   12 type  1   force =     0.00010126   -0.00017064    0.00012736
     atom   13 type  3   force =    -0.00054039   -0.00031309   -0.00003203
     atom   14 type  3   force =    -0.00003747   -0.00019335    0.00030527
     atom   15 type  3   force =    -0.00001642   -0.00002598   -0.00025753
     atom   16 type  3   force =     0.00021325    0.00035801   -0.00011011
     atom   17 type  4   force =    -0.00013332   -0.00007979    0.00034496
     atom   18 type  4   force =    -0.00001172    0.00059109    0.00070517
     atom   19 type  4   force =     0.00025101    0.00073804    0.00009584
     atom   20 type  4   force =    -0.00047463   -0.00025618   -0.00018201
     atom   21 type  4   force =    -0.00013535    0.00011629   -0.00001354
     atom   22 type  4   force =     0.00018728    0.00021380   -0.00082086
     atom   23 type  4   force =     0.00011489   -0.00019109   -0.00036607
     atom   24 type  4   force =     0.00015055    0.00053230   -0.00033391
     atom   25 type  4   force =    -0.00008837    0.00043553   -0.00050511
     atom   26 type  4   force =     0.00022260   -0.00000878    0.00009716
     atom   27 type  4   force =     0.00013168   -0.00033692    0.00007795
     atom   28 type  4   force =    -0.00004018    0.00033099    0.00023146
     atom   29 type  4   force =    -0.00021336   -0.00016219    0.00010286
     atom   30 type  4   force =    -0.00086185   -0.00031727   -0.00054088
     atom   31 type  4   force =    -0.00003601   -0.00038591   -0.00006872
     atom   32 type  4   force =     0.00007134    0.00033481    0.00022706
     atom   33 type  3   force =    -0.00016089    0.00001270    0.00009198
     atom   34 type  3   force =    -0.00026557   -0.00028956   -0.00007460
     atom   35 type  3   force =    -0.00025955    0.00011242   -0.00034360
     atom   36 type  3   force =    -0.00005361   -0.00018621   -0.00008322
     atom   37 type  4   force =    -0.00036155    0.00041749    0.00033017
     atom   38 type  4   force =     0.00016309    0.00047977    0.00027424
     atom   39 type  4   force =    -0.00026161    0.00007168   -0.00022711
     atom   40 type  4   force =    -0.00015260   -0.00027210   -0.00003921
     atom   41 type  4   force =    -0.00010688    0.00024120   -0.00009465
     atom   42 type  4   force =    -0.00008382    0.00062532   -0.00048401
     atom   43 type  4   force =    -0.00039107    0.00034821    0.00026290
     atom   44 type  4   force =     0.00055573    0.00010467    0.00002244
     atom   45 type  4   force =    -0.00019841    0.00026266    0.00046625
     atom   46 type  4   force =     0.00027858    0.00046755    0.00001116
     atom   47 type  4   force =     0.00001591    0.00028409    0.00013642
     atom   48 type  4   force =    -0.00003904    0.00035351    0.00047777
     atom   49 type  4   force =    -0.00025583    0.00073668   -0.00031260
     atom   50 type  4   force =     0.00033071    0.00003888   -0.00032234
     atom   51 type  4   force =    -0.00021946    0.00018579   -0.00017337
     atom   52 type  4   force =    -0.00038020   -0.00009297    0.00002058
     atom   53 type  2   force =     0.00212849   -0.00388819    0.00542677
     atom   54 type  1   force =     0.00510092   -0.00220060    0.00354666
     atom   55 type  1   force =     0.00729956   -0.00368090    0.00255053
     atom   56 type  1   force =    -0.00188843    0.01019125    0.00582206
     atom   57 type  1   force =     0.00015402    0.02309392    0.01449312
     atom   58 type  1   force =     0.00224150   -0.00338989   -0.00177367
     atom   59 type  1   force =     0.00136944   -0.00838932    0.00024279
     atom   60 type  1   force =    -0.00516453   -0.00189094    0.00440215
     atom   61 type  1   force =    -0.00119940   -0.00073807    0.00634193
     atom   62 type  1   force =    -0.00430464    0.00827171    0.00578307
     atom   63 type  1   force =    -0.01111187    0.02592016    0.01839041
     atom   64 type  1   force =    -0.00210399    0.00104680    0.00112411
     atom   65 type  3   force =     0.04606362   -0.11390985   -0.01086453
     atom   66 type  3   force =    -0.00012717   -0.00409744    0.00342319
     atom   67 type  3   force =    -0.03914856    0.12653639    0.01399878
     atom   68 type  3   force =     0.06277398   -0.00170131   -0.00349764
     atom   69 type  4   force =     0.01372200   -0.01831135    0.00383642
     atom   70 type  4   force =    -0.00095632    0.00292165   -0.00084975
     atom   71 type  4   force =    -0.00161552    0.00324434   -0.00595808
     atom   72 type  4   force =     0.00406416    0.00178575   -0.00050524
     atom   73 type  4   force =     0.00086859   -0.01145670    0.00288985
     atom   74 type  4   force =     0.00119046   -0.00086861   -0.00096164
     atom   75 type  4   force =    -0.00037942    0.01315071    0.00402938
     atom   76 type  4   force =     0.00831561    0.00525586    0.00920925
     atom   77 type  4   force =     0.00710390   -0.00252612    0.00158586
     atom   78 type  4   force =     0.04405614   -0.14239447   -0.00518952
     atom   79 type  4   force =     0.00172061    0.00196926    0.00138379
     atom   80 type  4   force =    -0.00015866    0.00224815   -0.00177477
     atom   81 type  4   force =     0.06720292    0.00046657   -0.00602805
     atom   82 type  4   force =     0.00057622    0.00107999   -0.00108896
     atom   83 type  4   force =    -0.03927366    0.13494493    0.00268069
     atom   84 type  4   force =    -0.00278737   -0.01100527   -0.00409498
     atom   85 type  3   force =     0.03998148   -0.12003877   -0.01848420
     atom   86 type  3   force =    -0.06274719   -0.00169958    0.00691477
     atom   87 type  3   force =    -0.04489248    0.12580362    0.01814495
     atom   88 type  3   force =    -0.00175801    0.00004144    0.00253396
     atom   89 type  4   force =     0.00902688   -0.01544758    0.00418419
     atom   90 type  4   force =    -0.00479580    0.00148008    0.00068714
     atom   91 type  4   force =    -0.00886837    0.00819194   -0.00651128
     atom   92 type  4   force =     0.00011828    0.00010547   -0.00043556
     atom   93 type  4   force =    -0.00177790   -0.00836791    0.00743392
     atom   94 type  4   force =    -0.00493478    0.00090150    0.00071537
     atom   95 type  4   force =    -0.00555845    0.01344136    0.00795559
     atom   96 type  4   force =     0.00415157    0.00518642    0.00959484
     atom   97 type  4   force =     0.00008354    0.00050055    0.00068470
     atom   98 type  4   force =     0.04042264   -0.14165737   -0.00478605
     atom   99 type  4   force =    -0.06681007    0.00007020    0.00639503
     atom  100 type  4   force =    -0.00193213    0.00325897   -0.00260612
     atom  101 type  4   force =     0.00022641    0.00092500   -0.00041707
     atom  102 type  4   force =    -0.00628427    0.00423570   -0.00072116
     atom  103 type  4   force =    -0.04030335    0.13346678    0.00430150
     atom  104 type  4   force =    -0.00691102   -0.00989624   -0.00517893
     atom  105 type  2   force =     0.00412065   -0.00663971   -0.01831830
     atom  106 type  1   force =     0.02823161    0.01427830    0.01161152
     atom  107 type  1   force =     0.00868893   -0.00609781   -0.01419574
     atom  108 type  1   force =    -0.02843584    0.02175048    0.01864884
     atom  109 type  1   force =     0.00503059    0.01610427    0.00931643
     atom  110 type  1   force =    -0.00254548   -0.00880248   -0.00689981
     atom  111 type  1   force =    -0.00086118   -0.00953702   -0.01163629
     atom  112 type  1   force =     0.02921862    0.01753176    0.01134015
     atom  113 type  1   force =    -0.00069842   -0.00494824   -0.01402957
     atom  114 type  1   force =    -0.02971167    0.02079142    0.01843615
     atom  115 type  1   force =    -0.00715800    0.01855491    0.01204539
     atom  116 type  1   force =    -0.00556114   -0.00436280   -0.00306019
     atom  117 type  3   force =     0.01424548   -0.17391692   -0.10882964
     atom  118 type  3   force =     0.00513782   -0.00848993   -0.01270314
     atom  119 type  3   force =    -0.04467011    0.12492166   -0.00191263
     atom  120 type  3   force =     0.09508010   -0.04105653   -0.07975497
     atom  121 type  4   force =     0.00610577   -0.01709566    0.03721200
     atom  122 type  4   force =    -0.00346236    0.00366155    0.00442389
     atom  123 type  4   force =    -0.00084782    0.00259499   -0.00290685
     atom  124 type  4   force =     0.00851176    0.00216629    0.02697736
     atom  125 type  4   force =     0.00986730   -0.01690565    0.01594443
     atom  126 type  4   force =    -0.00750197    0.00101167   -0.00303313
     atom  127 type  4   force =     0.00401174    0.00971805    0.00049423
     atom  128 type  4   force =    -0.00060989   -0.00109119    0.03017506
     atom  129 type  4   force =    -0.00766206    0.02552273    0.00118263
     atom  130 type  4   force =     0.04344761   -0.14597673   -0.00191467
     atom  131 type  4   force =    -0.01743364   -0.00039755    0.00285321
     atom  132 type  4   force =     0.00334529    0.00265839    0.00198854
     atom  133 type  4   force =     0.06974549    0.00366369   -0.00193008
     atom  134 type  4   force =     0.00092689    0.00361418    0.00271112
     atom  135 type  4   force =    -0.02756702    0.17227101    0.00604684
     atom  136 type  4   force =     0.01960976   -0.00861266    0.00399646
     atom  137 type  3   force =     0.00908399   -0.16688061   -0.09429119
     atom  138 type  3   force =    -0.06464383   -0.00210120   -0.00499032
     atom  139 type  3   force =    -0.04872148    0.11825239    0.00149851
     atom  140 type  3   force =     0.03144894   -0.04324224   -0.07372790
     atom  141 type  4   force =     0.00464836   -0.01332990    0.03213963
     atom  142 type  4   force =    -0.00544551   -0.00033023    0.00427428
     atom  143 type  4   force =    -0.00819154    0.00811883   -0.00356805
     atom  144 type  4   force =     0.00385493    0.00136911    0.02757967
     atom  145 type  4   force =     0.00690671   -0.01300413    0.03233779
     atom  146 type  4   force =    -0.00879147   -0.00174281   -0.00299640
     atom  147 type  4   force =     0.00035486    0.00991468    0.00267979
     atom  148 type  4   force =    -0.00790804    0.00121773    0.02908983
     atom  149 type  4   force =    -0.01314931    0.02943243    0.00049612
     atom  150 type  4   force =     0.03982322   -0.13837667   -0.00140074
     atom  151 type  4   force =    -0.08618450   -0.00173067    0.00914951
     atom  152 type  4   force =     0.00116954    0.00388942    0.00141918
     atom  153 type  4   force =    -0.00347582    0.00084320    0.00296424
     atom  154 type  4   force =    -0.00592372    0.00597476    0.00130318
     atom  155 type  4   force =    -0.02798330    0.16648321    0.00482996
     atom  156 type  4   force =     0.01058253   -0.00972797   -0.00138120
     atom  157 type  4   force =     0.00691247   -0.00821201    0.00067494
     atom  158 type  5   force =    -0.00653094    0.00650048   -0.00277622

     Total force =     0.671687     Total SCF correction =     0.003583
 
     init_run     :      7.77s CPU      8.40s WALL (       1 calls)
     electrons    :   1352.26s CPU   1408.33s WALL (       1 calls)
     forces       :      4.15s CPU      4.43s WALL (       1 calls)
     force_london :      0.10s CPU      0.10s WALL (       1 calls)

     Called by init_run:
     wfcinit      :      4.53s CPU      4.69s WALL (       1 calls)
     potinit      :      0.68s CPU      0.88s WALL (       1 calls)
     hinit0       :      1.50s CPU      1.60s WALL (       1 calls)

     Called by electrons:
     c_bands      :   1046.76s CPU   1076.94s WALL (     109 calls)
     sum_band     :    197.05s CPU    211.17s WALL (     109 calls)
     v_of_rho     :     19.65s CPU     20.56s WALL (     110 calls)
     newd         :     59.33s CPU     69.79s WALL (     110 calls)
     mix_rho      :     28.18s CPU     28.29s WALL (     109 calls)
     energy_londo :      0.09s CPU      0.09s WALL (       1 calls)

     Called by c_bands:
     init_us_2    :      2.21s CPU      2.30s WALL (     440 calls)
     init_us_2:cp :      2.21s CPU      2.30s WALL (     440 calls)
     regterg      :   1025.79s CPU   1055.74s WALL (     218 calls)

     Called by *egterg:
     rdiaghg      :    266.53s CPU    280.88s WALL (     808 calls)
     h_psi        :    399.79s CPU    407.28s WALL (     810 calls)
     s_psi        :     57.52s CPU     57.55s WALL (     810 calls)
     g_psi        :      0.42s CPU      0.43s WALL (     590 calls)

     Called by h_psi:
     h_psi:calbec :    111.06s CPU    117.25s WALL (     810 calls)
     vloc_psi     :    227.71s CPU    228.39s WALL (     810 calls)
     add_vuspsi   :     60.33s CPU     60.95s WALL (     810 calls)

     General routines
     calbec       :    165.04s CPU    174.29s WALL (    1036 calls)
     fft          :     45.92s CPU     47.16s WALL (    1993 calls)
     ffts         :     17.36s CPU     17.39s WALL (   13613 calls)
     fftw         :    268.63s CPU    269.37s WALL (  361132 calls)
     interpolate  :      1.67s CPU      1.76s WALL (     220 calls)
 
     Parallel routines
 
     PWSCF        :  22m46.16s CPU  23m43.47s WALL

 
   This run was terminated on:  20:29:32  19Nov2025            

=------------------------------------------------------------------------------=
   JOB DONE.
=------------------------------------------------------------------------------=
