
     Program PWSCF v.7.2 starts on 19Nov2025 at 22: 6: 1 

     This program is part of the open-source Quantum ESPRESSO suite
     for quantum simulation of materials; please cite
         "P. Giannozzi et al., J. Phys.:Condens. Matter 21 395502 (2009);
         "P. Giannozzi et al., J. Phys.:Condens. Matter 29 465901 (2017);
         "P. Giannozzi et al., J. Chem. Phys. 152 154105 (2020);
          URL http://www.quantum-espresso.org", 
     in publications or presentations arising from this work. More details at
     http://www.quantum-espresso.org/quote

     Parallel version (MPI), running on    64 processors

     MPI processes distributed on     4 nodes
     471543 MiB available memory on the printing compute node when the environment starts
 
     Reading input from PWINPUT_atm158_yp

     Current dimensions of program PWSCF are:
     Max number of different atomic species (ntypx) = 10
     Max number of k-points (npk) =  40000
     Max angular momentum in pseudopotentials (lmaxx) =  4
     Presently no symmetry can be used with electric field

     file Ni.pbe-n-rrkjus_psl.1.0.0.UPF: wavefunction(s)  3D renormalized
     file Mn.pbe-spn-rrkjus_psl.0.3.1.UPF: wavefunction(s)  3D renormalized
     file O.pbe-rrkjus.UPF: wavefunction(s)  2S renormalized
     file H.pbe-rrkjus.UPF: wavefunction(s)  1S renormalized

     gamma-point specific algorithms are used
 
     R & G space division:  proc/nbgrp/npool/nimage =      64
     Subspace diagonalization in iterative solution of the eigenvalue problem:
     one sub-group per band group will be used
     custom distributed-memory algorithm (size of sub-group:  6*  6 procs)

 
     Parallelization info
     --------------------
     sticks:   dense  smooth     PW     G-vecs:    dense   smooth      PW
     Min         208      82     20                59912    15118    1876
     Max         210      84     22                59974    15196    1926
     Sum       13399    5355   1345              3836275   970529  121367
 
     Using Slab Decomposition
 


     bravais-lattice index     =            0
     lattice parameter (alat)  =      17.7004  a.u.
     unit-cell volume          =   20319.7251 (a.u.)^3
     number of atoms/cell      =          158
     number of atomic types    =            5
     number of electrons       =      1078.00
     number of Kohn-Sham states=          647
     kinetic-energy cutoff     =      50.0000  Ry
     charge density cutoff     =     500.0000  Ry
     scf convergence threshold =      1.0E-06
     mixing beta               =       0.1000
     number of iterations used =            8  local-TF  mixing
     Exchange-correlation=  SLA  PW   PBE  PBE
                           (   1   4   3   4   0   0   0)

     celldm(1)=  17.700384  celldm(2)=   0.000000  celldm(3)=   0.000000
     celldm(4)=   0.000000  celldm(5)=   0.000000  celldm(6)=   0.000000

     crystal axes: (cart. coord. in units of alat)
               a(1) = (   1.000000   0.000000   0.000000 )  
               a(2) = (   0.000000   1.075730   0.000000 )  
               a(3) = (   0.000000   0.000000   3.406172 )  

     reciprocal axes: (cart. coord. in units 2 pi/alat)
               b(1) = (  1.000000  0.000000  0.000000 )  
               b(2) = (  0.000000  0.929602  0.000000 )  
               b(3) = (  0.000000  0.000000  0.293585 )  


     PseudoPot. # 1 for Ni read from file:
     ~/PSEUDO/Ni.pbe-n-rrkjus_psl.1.0.0.UPF
     MD5 check sum: Not computed, couldn't open file
     Pseudo is Ultrasoft + core correction, Zval = 10.0
     Generated using "atomic" code by A. Dal Corso  v.5.1.2
     Using radial grid of 1195 points,  6 beta functions with: 
                l(1) =   0
                l(2) =   0
                l(3) =   1
                l(4) =   1
                l(5) =   2
                l(6) =   2
     Q(r) pseudized with 0 coefficients 


     PseudoPot. # 2 for Mn read from file:
     ~/PSEUDO/Mn.pbe-spn-rrkjus_psl.0.3.1.UPF
     MD5 check sum: Not computed, couldn't open file
     Pseudo is Ultrasoft + core correction, Zval = 15.0
     Generated using &quot;atomic&quot; code by A. Dal Corso  v.6.2.2
     Using radial grid of 1187 points,  6 beta functions with: 
                l(1) =   0
                l(2) =   0
                l(3) =   1
                l(4) =   1
                l(5) =   2
                l(6) =   2
     Q(r) pseudized with 0 coefficients 


     PseudoPot. # 3 for P  read from file:
     ~/PSEUDO/P.pbe-n-rrkjus_psl.1.0.0.UPF
     MD5 check sum: Not computed, couldn't open file
     Pseudo is Ultrasoft + core correction, Zval =  5.0
     Generated using "atomic" code by A. Dal Corso  v.5.1
     Using radial grid of 1147 points,  6 beta functions with: 
                l(1) =   0
                l(2) =   0
                l(3) =   1
                l(4) =   1
                l(5) =   2
                l(6) =   2
     Q(r) pseudized with 0 coefficients 


     PseudoPot. # 4 for O  read from file:
     ~/PSEUDO/O.pbe-rrkjus.UPF
     MD5 check sum: Not computed, couldn't open file
     Pseudo is Ultrasoft, Zval =  6.0
     Generated by new atomic code, or converted to UPF format
     Using radial grid of 1269 points,  4 beta functions with: 
                l(1) =   0
                l(2) =   0
                l(3) =   1
                l(4) =   1
     Q(r) pseudized with 0 coefficients 


     PseudoPot. # 5 for H  read from file:
     ~/PSEUDO/H.pbe-rrkjus.UPF
     MD5 check sum: Not computed, couldn't open file
     Pseudo is Ultrasoft, Zval =  1.0
     Generated by new atomic code, or converted to UPF format
     Using radial grid of 1061 points,  2 beta functions with: 
                l(1) =   0
                l(2) =   0
     Q(r) pseudized with 0 coefficients 


     atomic species   valence    mass     pseudopotential
     Ni               10.00    58.69300     Ni( 1.00)
     Mn               15.00    54.93800     Mn( 1.00)
     P                 5.00    30.97300     P ( 1.00)
     O                 6.00    15.99900     O ( 1.00)
     H                 1.00     1.00790     H ( 1.00)

     Starting magnetic structure 
     atomic species   magnetization
     Ni              1.000
     Mn              1.000
     P               1.000
     O               1.000
     H               0.000

     No symmetry found



   Cartesian axes

     site n.     atom                  positions (alat units)
         1        Mn     tau(   1) = (   0.2514725   0.8403621   1.6922649  )
         2        Ni     tau(   2) = (   0.4981613   0.7732174   1.3698899  )
         3        Ni     tau(   3) = (   0.0016400   0.2965188   1.6763153  )
         4        Ni     tau(   4) = (   0.2604917   0.2384823   1.3674854  )
         5        Ni     tau(   5) = (   0.9976394   1.0763275   1.5332471  )
         6        Ni     tau(   6) = (   0.2562433   0.5373049   1.5311374  )
         7        Ni     tau(   7) = (   0.7534975   0.8335100   1.6761660  )
         8        Ni     tau(   8) = (   0.9915982   0.7733775   1.3721323  )
         9        Ni     tau(   9) = (   0.5140351   0.3046720   1.7065963  )
        10        Ni     tau(  10) = (   0.7602191   0.2367081   1.3680604  )
        11        Ni     tau(  11) = (   0.5007003   1.0777795   1.5342653  )
        12        Ni     tau(  12) = (   0.7546321   0.5336828   1.5343376  )
        13        P      tau(  13) = (   0.2114324   0.9730718   1.3787149  )
        14        P      tau(  14) = (   0.4677209   0.6466717   1.6883849  )
        15        P      tau(  15) = (   0.2879347   0.1165823   1.6895124  )
        16        P      tau(  16) = (   0.0433043   0.4322061   1.3717573  )
        17        O      tau(  17) = (   0.1354319   0.9024246   1.5162361  )
        18        O      tau(  18) = (   0.3901476   0.7094618   1.5447118  )
        19        O      tau(  19) = (   0.3653522   0.1703016   1.5451332  )
        20        O      tau(  20) = (   0.1220603   0.3621553   1.5078476  )
        21        O      tau(  21) = (   0.1483602   0.8811988   1.2566198  )
        22        O      tau(  22) = (   0.4071019   0.7461546   1.8042590  )
        23        O      tau(  23) = (   0.3454364   0.2138238   1.8062783  )
        24        O      tau(  24) = (   0.1034528   0.3447440   1.2451229  )
        25        O      tau(  25) = (   0.1022912   0.5877007   1.3760419  )
        26        O      tau(  26) = (   0.3424242   1.0329279   1.6966988  )
        27        O      tau(  27) = (   0.3794667   0.4262365   1.3824156  )
        28        O      tau(  28) = (   0.1224475   0.1157300   1.6781663  )
        29        O      tau(  29) = (   0.1306686   0.6530965   1.6813924  )
        30        O      tau(  30) = (   0.4060763   0.4924401   1.6874378  )
        31        O      tau(  31) = (   0.1505415   0.0512368   1.3772435  )
        32        O      tau(  32) = (   0.3750906   0.9649156   1.3868523  )
        33        P      tau(  33) = (   0.7107969   0.9709559   1.3722571  )
        34        P      tau(  34) = (   0.9650128   0.6455956   1.6946891  )
        35        P      tau(  35) = (   0.7894270   0.1050360   1.6939332  )
        36        P      tau(  36) = (   0.5438507   0.4295248   1.3733739  )
        37        O      tau(  37) = (   0.6327050   0.9000346   1.5082036  )
        38        O      tau(  38) = (   0.8878570   0.7057763   1.5484453  )
        39        O      tau(  39) = (   0.8648281   0.1699114   1.5490065  )
        40        O      tau(  40) = (   0.6200951   0.3574703   1.5092594  )
        41        O      tau(  41) = (   0.6501234   0.8827865   1.2460499  )
        42        O      tau(  42) = (   0.9049968   0.7432969   1.8094969  )
        43        O      tau(  43) = (   0.8531982   0.1989439   1.8109223  )
        44        O      tau(  44) = (   0.6040842   0.3418719   1.2462640  )
        45        O      tau(  45) = (   0.6050226   0.5845474   1.3766490  )
        46        O      tau(  46) = (   0.8468877   1.0236478   1.6902311  )
        47        O      tau(  47) = (   0.8794716   0.4244841   1.3846896  )
        48        O      tau(  48) = (   0.6245466   0.1082359   1.6834857  )
        49        O      tau(  49) = (   0.6319549   0.6522194   1.6764679  )
        50        O      tau(  50) = (   0.9116309   0.4875625   1.6930196  )
        51        O      tau(  51) = (   0.6514964   0.0501678   1.3760815  )
        52        O      tau(  52) = (   0.8747806   0.9631357   1.3846982  )
        53        Mn     tau(  53) = (   0.2404744   0.8246335   1.0701417  )
        54        Ni     tau(  54) = (   0.4968126   0.7601755   0.7454373  )
        55        Ni     tau(  55) = (   0.0066150   0.2811828   1.0628866  )
        56        Ni     tau(  56) = (   0.2585722   0.2230943   0.7421070  )
        57        Ni     tau(  57) = (   0.9987350   1.0571496   0.9014992  )
        58        Ni     tau(  58) = (   0.2517397   0.5205596   0.9040596  )
        59        Ni     tau(  59) = (   0.7451645   0.8212628   1.0648168  )
        60        Ni     tau(  60) = (   0.9939181   0.7613889   0.7462324  )
        61        Ni     tau(  61) = (   0.5111533   0.2799173   1.0618053  )
        62        Ni     tau(  62) = (   0.7606326   0.2194352   0.7418547  )
        63        Ni     tau(  63) = (   0.5024065   1.0563218   0.8999416  )
        64        Ni     tau(  64) = (   0.7529977   0.5192985   0.9024691  )
        65        P      tau(  65) = (   0.2092944   0.9606182   0.7524883  )
        66        P      tau(  66) = (   0.4655727   0.6234620   1.0595283  )
        67        P      tau(  67) = (   0.2910699   0.0902448   1.0573821  )
        68        P      tau(  68) = (   0.0396216   0.4163480   0.7471080  )
        69        O      tau(  69) = (   0.1294378   0.8888345   0.8859300  )
        70        O      tau(  70) = (   0.3874505   0.6929859   0.9232915  )
        71        O      tau(  71) = (   0.3702540   0.1589885   0.9209891  )
        72        O      tau(  72) = (   0.1184398   0.3458043   0.8831565  )
        73        O      tau(  73) = (   0.1451572   0.8725966   0.6282341  )
        74        O      tau(  74) = (   0.4048762   0.7120670   1.1852426  )
        75        O      tau(  75) = (   0.3523506   0.1775664   1.1834175  )
        76        O      tau(  76) = (   0.1017610   0.3285569   0.6213347  )
        77        O      tau(  77) = (   0.0975396   0.5724373   0.7511996  )
        78        O      tau(  78) = (   0.3483552   1.0190030   1.0599597  )
        79        O      tau(  79) = (   0.3784305   0.4100203   0.7560991  )
        80        O      tau(  80) = (   0.1268237   0.0943029   1.0477175  )
        81        O      tau(  81) = (   0.1212267   0.6299255   1.0507023  )
        82        O      tau(  82) = (   0.4053315   0.4684472   1.0569297  )
        83        O      tau(  83) = (   0.1536621   0.0322003   0.7496532  )
        84        O      tau(  84) = (   0.3732349   0.9506802   0.7613277  )
        85        P      tau(  85) = (   0.7119823   0.9571059   0.7496908  )
        86        P      tau(  86) = (   0.9615208   0.6238477   1.0606987  )
        87        P      tau(  87) = (   0.7927710   0.0845145   1.0577754  )
        88        P      tau(  88) = (   0.5426404   0.4144760   0.7459181  )
        89        O      tau(  89) = (   0.6326879   0.8866267   0.8856678  )
        90        O      tau(  90) = (   0.8842163   0.6958291   0.9244764  )
        91        O      tau(  91) = (   0.8716178   0.1552836   0.9216415  )
        92        O      tau(  92) = (   0.6212010   0.3433751   0.8818834  )
        93        O      tau(  93) = (   0.6507714   0.8687427   0.6238197  )
        94        O      tau(  94) = (   0.9014054   0.7139543   1.1859242  )
        95        O      tau(  95) = (   0.8548963   0.1722994   1.1834447  )
        96        O      tau(  96) = (   0.6044469   0.3253792   0.6209553  )
        97        O      tau(  97) = (   0.6024424   0.5698225   0.7490903  )
        98        O      tau(  98) = (   0.8498940   1.0129567   1.0594762  )
        99        O      tau(  99) = (   0.8798395   0.4080910   0.7564148  )
       100        O      tau( 100) = (   0.6286921   0.0909721   1.0472573  )
       101        O      tau( 101) = (   0.6294973   0.6302838   1.0497366  )
       102        O      tau( 102) = (   0.9024339   0.4685397   1.0573501  )
       103        O      tau( 103) = (   0.6547812   0.0286072   0.7473283  )
       104        O      tau( 104) = (   0.8760507   0.9507690   0.7605412  )
       105        Mn     tau( 105) = (   0.2404744   0.8121420   0.4502541  )
       106        Ni     tau( 106) = (   0.4968126   0.7476840   0.1255496  )
       107        Ni     tau( 107) = (   0.0066150   0.2686914   0.4429989  )
       108        Ni     tau( 108) = (   0.2585722   0.2106028   0.1222194  )
       109        Ni     tau( 109) = (   0.9987350   1.0446581   0.2816116  )
       110        Ni     tau( 110) = (   0.2517397   0.5080681   0.2841720  )
       111        Ni     tau( 111) = (   0.7451645   0.8087713   0.4449291  )
       112        Ni     tau( 112) = (   0.9939181   0.7488974   0.1263448  )
       113        Ni     tau( 113) = (   0.5111533   0.2674258   0.4419177  )
       114        Ni     tau( 114) = (   0.7606326   0.2069438   0.1219670  )
       115        Ni     tau( 115) = (   0.5024065   1.0438304   0.2800540  )
       116        Ni     tau( 116) = (   0.7529977   0.5068070   0.2825815  )
       117        P      tau( 117) = (   0.2092944   0.9481267   0.1326007  )
       118        P      tau( 118) = (   0.4655727   0.6109705   0.4396407  )
       119        P      tau( 119) = (   0.2910699   0.0777534   0.4374945  )
       120        P      tau( 120) = (   0.0396216   0.4038566   0.1272204  )
       121        O      tau( 121) = (   0.1294378   0.8763430   0.2660424  )
       122        O      tau( 122) = (   0.3874505   0.6804944   0.3034039  )
       123        O      tau( 123) = (   0.3702540   0.1464970   0.3011014  )
       124        O      tau( 124) = (   0.1184398   0.3333129   0.2632689  )
       125        O      tau( 125) = (   0.1451572   0.8601051   0.0083464  )
       126        O      tau( 126) = (   0.4048762   0.6995756   0.5653550  )
       127        O      tau( 127) = (   0.3523506   0.1650749   0.5635298  )
       128        O      tau( 128) = (   0.1017610   0.3160655   0.0014470  )
       129        O      tau( 129) = (   0.0975396   0.5599458   0.1313120  )
       130        O      tau( 130) = (   0.3483552   1.0065115   0.4400720  )
       131        O      tau( 131) = (   0.3784305   0.3975288   0.1362114  )
       132        O      tau( 132) = (   0.1268237   0.0818115   0.4278298  )
       133        O      tau( 133) = (   0.1212267   0.6174340   0.4308146  )
       134        O      tau( 134) = (   0.4053315   0.4559557   0.4370420  )
       135        O      tau( 135) = (   0.1536621   0.0197088   0.1297656  )
       136        O      tau( 136) = (   0.3732349   0.9381887   0.1414400  )
       137        P      tau( 137) = (   0.7119823   0.9446144   0.1298032  )
       138        P      tau( 138) = (   0.9615208   0.6113562   0.4408111  )
       139        P      tau( 139) = (   0.7927710   0.0720230   0.4378878  )
       140        P      tau( 140) = (   0.5426404   0.4019845   0.1260304  )
       141        O      tau( 141) = (   0.6326879   0.8741353   0.2657802  )
       142        O      tau( 142) = (   0.8842163   0.6833376   0.3045887  )
       143        O      tau( 143) = (   0.8716178   0.1427921   0.3017538  )
       144        O      tau( 144) = (   0.6212010   0.3308836   0.2619957  )
       145        O      tau( 145) = (   0.6507714   0.8562512   0.0039320  )
       146        O      tau( 146) = (   0.9014054   0.7014628   0.5660366  )
       147        O      tau( 147) = (   0.8548963   0.1598079   0.5635571  )
       148        O      tau( 148) = (   0.6044469   0.3128877   0.0010676  )
       149        O      tau( 149) = (   0.6024424   0.5573310   0.1292027  )
       150        O      tau( 150) = (   0.8498940   1.0004653   0.4395886  )
       151        O      tau( 151) = (   0.8798395   0.3955995   0.1365272  )
       152        O      tau( 152) = (   0.6286921   0.0784807   0.4273696  )
       153        O      tau( 153) = (   0.6294973   0.6177923   0.4298489  )
       154        O      tau( 154) = (   0.9024339   0.4560482   0.4374624  )
       155        O      tau( 155) = (   0.6547812   0.0161158   0.1274406  )
       156        O      tau( 156) = (   0.8760507   0.9382775   0.1406535  )
       157        O      tau( 157) = (   0.6249036   0.3860534   1.8440900  )
       158        H      tau( 158) = (   0.7081905   0.3268553   1.8689877  )

     -------------------------------------------------
     Parameters for Dispersion (Grimme-D2) Correction:
     -------------------------------------------------
       atom      VdW radius       C_6     

        Ni         2.952        374.666
        Mn         2.952        374.666
        P          3.222        271.980
        O          2.536         24.284
        H          1.892          4.857

     number of k points=     1  Gaussian smearing, width (Ry)=  0.0100
                       cart. coord. in units 2pi/alat
        k(    1) = (   0.0000000   0.0000000   0.0000000), wk =   1.0000000

     Dense  grid:  1918138 G-vectors     FFT dimensions: ( 125, 135, 432)

     Smooth grid:   485265 G-vectors     FFT dimensions: (  80,  90, 288)

     Estimated max dynamical RAM per process >     320.12 MB

     Estimated total dynamical RAM >      20.01 GB
     Generating pointlists ...
     new r_m :   0.0802 (alat units)  1.4199 (a.u.) for type    1
     new r_m :   0.0869 (alat units)  1.5388 (a.u.) for type    2
     new r_m :   0.0650 (alat units)  1.1499 (a.u.) for type    3
     new r_m :   0.0434 (alat units)  0.7679 (a.u.) for type    4
     new r_m :   0.0434 (alat units)  0.7679 (a.u.) for type    5

     Initial potential from superposition of free atoms

     starting charge    1077.8900, renormalised to    1078.0000

     negative rho (up, down):  1.224E-03 4.535E-04
 
     Adding external electric field

     Computed dipole along edir(3) : 
        Dipole                1.6256 Ry au,          4.1319 Debye
        Dipole field          0.0010 Ry au, 
 
        Potential amp.       -0.1091 Ry
        Total length         54.2615 bohr
 
 
     Adding external electric field

     Computed dipole along edir(3) : 
        Dipole                1.6256 Ry au,          4.1319 Debye
        Dipole field          0.0010 Ry au, 
 
        Potential amp.       -0.1091 Ry
        Total length         54.2615 bohr
 
     Starting wfcs are  812 randomized atomic wfcs

     total cpu time spent up to now is        9.9 secs

     Self-consistent Calculation

     iteration #  1     ecut=    50.00 Ry     beta= 0.10
     Davidson diagonalization with overlap
     ethr =  1.00E-02,  avg # of iterations =  6.0

     negative rho (up, down):  3.375E-01 1.195E-06
 
     Adding external electric field

     Computed dipole along edir(3) : 
        Dipole               -3.4931 Ry au,         -8.8785 Debye
        Dipole field         -0.0022 Ry au, 
 
        Potential amp.        0.2344 Ry
        Total length         54.2615 bohr
 
 
     Adding external electric field

     Computed dipole along edir(3) : 
        Dipole               -3.4931 Ry au,         -8.8785 Debye
        Dipole field         -0.0022 Ry au, 
 
        Potential amp.        0.2344 Ry
        Total length         54.2615 bohr
 

     total cpu time spent up to now is       34.0 secs

     total energy              =   -7178.92447960 Ry
     estimated scf accuracy    <     749.75451615 Ry

     total magnetization       =   216.00 Bohr mag/cell
     absolute magnetization    =   296.84 Bohr mag/cell

     iteration #  2     ecut=    50.00 Ry     beta= 0.10
     Davidson diagonalization with overlap
     ethr =  1.00E-02,  avg # of iterations =  2.0

     negative rho (up, down):  3.168E-01 7.808E-07
 
     Adding external electric field

     Computed dipole along edir(3) : 
        Dipole               -2.3963 Ry au,         -6.0908 Debye
        Dipole field         -0.0015 Ry au, 
 
        Potential amp.        0.1608 Ry
        Total length         54.2615 bohr
 
 
     Adding external electric field

     Computed dipole along edir(3) : 
        Dipole               -2.3963 Ry au,         -6.0908 Debye
        Dipole field         -0.0015 Ry au, 
 
        Potential amp.        0.1608 Ry
        Total length         54.2615 bohr
 

     total cpu time spent up to now is       48.5 secs

     total energy              =   -7262.89948305 Ry
     estimated scf accuracy    <     191.39863263 Ry

     total magnetization       =   148.33 Bohr mag/cell
     absolute magnetization    =   198.56 Bohr mag/cell

     iteration #  3     ecut=    50.00 Ry     beta= 0.10
     Davidson diagonalization with overlap
     ethr =  1.00E-02,  avg # of iterations =  1.5

     negative rho (up, down):  2.769E-01 5.659E-07
 
     Adding external electric field

     Computed dipole along edir(3) : 
        Dipole               -2.0177 Ry au,         -5.1286 Debye
        Dipole field         -0.0012 Ry au, 
 
        Potential amp.        0.1354 Ry
        Total length         54.2615 bohr
 
 
     Adding external electric field

     Computed dipole along edir(3) : 
        Dipole               -2.0177 Ry au,         -5.1286 Debye
        Dipole field         -0.0012 Ry au, 
 
        Potential amp.        0.1354 Ry
        Total length         54.2615 bohr
 

     total cpu time spent up to now is       60.1 secs

     total energy              =   -7294.54021685 Ry
     estimated scf accuracy    <      97.98165061 Ry

     total magnetization       =   124.29 Bohr mag/cell
     absolute magnetization    =   178.42 Bohr mag/cell

     iteration #  4     ecut=    50.00 Ry     beta= 0.10
     Davidson diagonalization with overlap
     ethr =  9.09E-03,  avg # of iterations =  1.5

     negative rho (up, down):  2.063E-01 5.936E-08
 
     Adding external electric field

     Computed dipole along edir(3) : 
        Dipole               -2.0071 Ry au,         -5.1016 Debye
        Dipole field         -0.0012 Ry au, 
 
        Potential amp.        0.1347 Ry
        Total length         54.2615 bohr
 
 
     Adding external electric field

     Computed dipole along edir(3) : 
        Dipole               -2.0071 Ry au,         -5.1016 Debye
        Dipole field         -0.0012 Ry au, 
 
        Potential amp.        0.1347 Ry
        Total length         54.2615 bohr
 

     total cpu time spent up to now is       71.8 secs

     total energy              =   -7327.50933569 Ry
     estimated scf accuracy    <      77.73732957 Ry

     total magnetization       =   109.01 Bohr mag/cell
     absolute magnetization    =   163.93 Bohr mag/cell

     iteration #  5     ecut=    50.00 Ry     beta= 0.10
     Davidson diagonalization with overlap
     ethr =  7.21E-03,  avg # of iterations =  1.5

     negative rho (up, down):  7.885E-03 2.343E-07
 
     Adding external electric field

     Computed dipole along edir(3) : 
        Dipole               -1.4738 Ry au,         -3.7460 Debye
        Dipole field         -0.0009 Ry au, 
 
        Potential amp.        0.0989 Ry
        Total length         54.2615 bohr
 
 
     Adding external electric field

     Computed dipole along edir(3) : 
        Dipole               -1.4738 Ry au,         -3.7460 Debye
        Dipole field         -0.0009 Ry au, 
 
        Potential amp.        0.0989 Ry
        Total length         54.2615 bohr
 

     total cpu time spent up to now is       83.2 secs

     total energy              =   -7386.39263489 Ry
     estimated scf accuracy    <      61.11012193 Ry

     total magnetization       =    88.01 Bohr mag/cell
     absolute magnetization    =   145.68 Bohr mag/cell

     iteration #  6     ecut=    50.00 Ry     beta= 0.10
     Davidson diagonalization with overlap
     ethr =  5.67E-03,  avg # of iterations =  1.5

     negative rho (up, down):  1.607E-04 1.780E-04
 
     Adding external electric field

     Computed dipole along edir(3) : 
        Dipole               -1.0917 Ry au,         -2.7749 Debye
        Dipole field         -0.0007 Ry au, 
 
        Potential amp.        0.0733 Ry
        Total length         54.2615 bohr
 
 
     Adding external electric field

     Computed dipole along edir(3) : 
        Dipole               -1.0917 Ry au,         -2.7749 Debye
        Dipole field         -0.0007 Ry au, 
 
        Potential amp.        0.0733 Ry
        Total length         54.2615 bohr
 

     total cpu time spent up to now is       94.8 secs

     total energy              =   -7395.54167044 Ry
     estimated scf accuracy    <      10.66018010 Ry

     total magnetization       =    81.58 Bohr mag/cell
     absolute magnetization    =   114.96 Bohr mag/cell

     iteration #  7     ecut=    50.00 Ry     beta= 0.10
     Davidson diagonalization with overlap
     ethr =  9.89E-04,  avg # of iterations =  4.5

     negative rho (up, down):  1.521E-04 1.693E-04
 
     Adding external electric field

     Computed dipole along edir(3) : 
        Dipole               -1.0771 Ry au,         -2.7378 Debye
        Dipole field         -0.0007 Ry au, 
 
        Potential amp.        0.0723 Ry
        Total length         54.2615 bohr
 
 
     Adding external electric field

     Computed dipole along edir(3) : 
        Dipole               -1.0771 Ry au,         -2.7378 Debye
        Dipole field         -0.0007 Ry au, 
 
        Potential amp.        0.0723 Ry
        Total length         54.2615 bohr
 

     total cpu time spent up to now is      112.1 secs

     total energy              =   -7397.63762036 Ry
     estimated scf accuracy    <      13.24803093 Ry

     total magnetization       =    71.08 Bohr mag/cell
     absolute magnetization    =    88.60 Bohr mag/cell

     iteration #  8     ecut=    50.00 Ry     beta= 0.10
     Davidson diagonalization with overlap
     ethr =  9.89E-04,  avg # of iterations =  1.0

     negative rho (up, down):  1.256E-04 1.441E-04
 
     Adding external electric field

     Computed dipole along edir(3) : 
        Dipole               -1.0207 Ry au,         -2.5944 Debye
        Dipole field         -0.0006 Ry au, 
 
        Potential amp.        0.0685 Ry
        Total length         54.2615 bohr
 
 
     Adding external electric field

     Computed dipole along edir(3) : 
        Dipole               -1.0207 Ry au,         -2.5944 Debye
        Dipole field         -0.0006 Ry au, 
 
        Potential amp.        0.0685 Ry
        Total length         54.2615 bohr
 

     total cpu time spent up to now is      122.5 secs

     total energy              =   -7397.63394463 Ry
     estimated scf accuracy    <      12.89589478 Ry

     total magnetization       =    71.24 Bohr mag/cell
     absolute magnetization    =    88.49 Bohr mag/cell

     iteration #  9     ecut=    50.00 Ry     beta= 0.10
     Davidson diagonalization with overlap
     ethr =  9.89E-04,  avg # of iterations =  1.0

     negative rho (up, down):  6.604E-05 1.756E-04
 
     Adding external electric field

     Computed dipole along edir(3) : 
        Dipole               -0.7270 Ry au,         -1.8479 Debye
        Dipole field         -0.0004 Ry au, 
 
        Potential amp.        0.0488 Ry
        Total length         54.2615 bohr
 
 
     Adding external electric field

     Computed dipole along edir(3) : 
        Dipole               -0.7270 Ry au,         -1.8479 Debye
        Dipole field         -0.0004 Ry au, 
 
        Potential amp.        0.0488 Ry
        Total length         54.2615 bohr
 

     total cpu time spent up to now is      132.9 secs

     total energy              =   -7397.57675167 Ry
     estimated scf accuracy    <      11.36861175 Ry

     total magnetization       =    71.76 Bohr mag/cell
     absolute magnetization    =    88.41 Bohr mag/cell

     iteration # 10     ecut=    50.00 Ry     beta= 0.10
     Davidson diagonalization with overlap
     ethr =  9.89E-04,  avg # of iterations =  1.5

     negative rho (up, down):  8.436E-05 3.237E-04
 
     Adding external electric field

     Computed dipole along edir(3) : 
        Dipole               -0.7124 Ry au,         -1.8107 Debye
        Dipole field         -0.0004 Ry au, 
 
        Potential amp.        0.0478 Ry
        Total length         54.2615 bohr
 
 
     Adding external electric field

     Computed dipole along edir(3) : 
        Dipole               -0.7124 Ry au,         -1.8107 Debye
        Dipole field         -0.0004 Ry au, 
 
        Potential amp.        0.0478 Ry
        Total length         54.2615 bohr
 

     total cpu time spent up to now is      143.5 secs

     total energy              =   -7397.61792910 Ry
     estimated scf accuracy    <       6.99799051 Ry

     total magnetization       =    72.13 Bohr mag/cell
     absolute magnetization    =    86.35 Bohr mag/cell

     iteration # 11     ecut=    50.00 Ry     beta= 0.10
     Davidson diagonalization with overlap
     ethr =  6.49E-04,  avg # of iterations =  1.5

     negative rho (up, down):  4.770E-04 1.796E-03
 
     Adding external electric field

     Computed dipole along edir(3) : 
        Dipole               -0.5159 Ry au,         -1.3113 Debye
        Dipole field         -0.0003 Ry au, 
 
        Potential amp.        0.0346 Ry
        Total length         54.2615 bohr
 
 
     Adding external electric field

     Computed dipole along edir(3) : 
        Dipole               -0.5159 Ry au,         -1.3113 Debye
        Dipole field         -0.0003 Ry au, 
 
        Potential amp.        0.0346 Ry
        Total length         54.2615 bohr
 

     total cpu time spent up to now is      154.1 secs

     total energy              =   -7397.57119222 Ry
     estimated scf accuracy    <       5.71044052 Ry

     total magnetization       =    72.71 Bohr mag/cell
     absolute magnetization    =    86.18 Bohr mag/cell

     iteration # 12     ecut=    50.00 Ry     beta= 0.10
     Davidson diagonalization with overlap
     ethr =  5.30E-04,  avg # of iterations =  1.5

     negative rho (up, down):  1.521E-04 1.246E-03
 
     Adding external electric field

     Computed dipole along edir(3) : 
        Dipole               -0.5680 Ry au,         -1.4437 Debye
        Dipole field         -0.0004 Ry au, 
 
        Potential amp.        0.0381 Ry
        Total length         54.2615 bohr
 
 
     Adding external electric field

     Computed dipole along edir(3) : 
        Dipole               -0.5680 Ry au,         -1.4437 Debye
        Dipole field         -0.0004 Ry au, 
 
        Potential amp.        0.0381 Ry
        Total length         54.2615 bohr
 

     total cpu time spent up to now is      164.8 secs

     total energy              =   -7397.61277374 Ry
     estimated scf accuracy    <       3.00205530 Ry

     total magnetization       =    76.74 Bohr mag/cell
     absolute magnetization    =    87.64 Bohr mag/cell

     iteration # 13     ecut=    50.00 Ry     beta= 0.10
     Davidson diagonalization with overlap
     ethr =  2.78E-04,  avg # of iterations =  2.0

     negative rho (up, down):  2.183E-04 1.720E-03
 
     Adding external electric field

     Computed dipole along edir(3) : 
        Dipole               -0.5084 Ry au,         -1.2924 Debye
        Dipole field         -0.0003 Ry au, 
 
        Potential amp.        0.0341 Ry
        Total length         54.2615 bohr
 
 
     Adding external electric field

     Computed dipole along edir(3) : 
        Dipole               -0.5084 Ry au,         -1.2924 Debye
        Dipole field         -0.0003 Ry au, 
 
        Potential amp.        0.0341 Ry
        Total length         54.2615 bohr
 

     total cpu time spent up to now is      176.5 secs

     total energy              =   -7397.62082758 Ry
     estimated scf accuracy    <       4.95302611 Ry

     total magnetization       =    73.80 Bohr mag/cell
     absolute magnetization    =    85.20 Bohr mag/cell

     iteration # 14     ecut=    50.00 Ry     beta= 0.10
     Davidson diagonalization with overlap
     ethr =  2.78E-04,  avg # of iterations =  1.5

     negative rho (up, down):  2.017E-03 3.648E-03
 
     Adding external electric field

     Computed dipole along edir(3) : 
        Dipole               -0.5837 Ry au,         -1.4837 Debye
        Dipole field         -0.0004 Ry au, 
 
        Potential amp.        0.0392 Ry
        Total length         54.2615 bohr
 
 
     Adding external electric field

     Computed dipole along edir(3) : 
        Dipole               -0.5837 Ry au,         -1.4837 Debye
        Dipole field         -0.0004 Ry au, 
 
        Potential amp.        0.0392 Ry
        Total length         54.2615 bohr
 

     total cpu time spent up to now is      187.3 secs

     total energy              =   -7397.65983016 Ry
     estimated scf accuracy    <       4.59819569 Ry

     total magnetization       =    75.22 Bohr mag/cell
     absolute magnetization    =    86.00 Bohr mag/cell

     iteration # 15     ecut=    50.00 Ry     beta= 0.10
     Davidson diagonalization with overlap
     ethr =  2.78E-04,  avg # of iterations =  3.0

     negative rho (up, down):  1.579E-03 3.540E-03
 
     Adding external electric field

     Computed dipole along edir(3) : 
        Dipole               -0.5945 Ry au,         -1.5110 Debye
        Dipole field         -0.0004 Ry au, 
 
        Potential amp.        0.0399 Ry
        Total length         54.2615 bohr
 
 
     Adding external electric field

     Computed dipole along edir(3) : 
        Dipole               -0.5945 Ry au,         -1.5110 Debye
        Dipole field         -0.0004 Ry au, 
 
        Potential amp.        0.0399 Ry
        Total length         54.2615 bohr
 

     total cpu time spent up to now is      199.6 secs

     total energy              =   -7397.78069810 Ry
     estimated scf accuracy    <       0.54609803 Ry

     total magnetization       =    80.21 Bohr mag/cell
     absolute magnetization    =    88.36 Bohr mag/cell

     iteration # 16     ecut=    50.00 Ry     beta= 0.10
     Davidson diagonalization with overlap
     ethr =  5.07E-05,  avg # of iterations = 18.0

     negative rho (up, down):  9.741E-04 3.640E-03
 
     Adding external electric field

     Computed dipole along edir(3) : 
        Dipole               -0.5318 Ry au,         -1.3516 Debye
        Dipole field         -0.0003 Ry au, 
 
        Potential amp.        0.0357 Ry
        Total length         54.2615 bohr
 
 
     Adding external electric field

     Computed dipole along edir(3) : 
        Dipole               -0.5318 Ry au,         -1.3516 Debye
        Dipole field         -0.0003 Ry au, 
 
        Potential amp.        0.0357 Ry
        Total length         54.2615 bohr
 

     total cpu time spent up to now is      227.0 secs

     total energy              =   -7397.78369934 Ry
     estimated scf accuracy    <       0.44444306 Ry

     total magnetization       =    79.83 Bohr mag/cell
     absolute magnetization    =    86.76 Bohr mag/cell

     iteration # 17     ecut=    50.00 Ry     beta= 0.10
     Davidson diagonalization with overlap
     ethr =  4.12E-05,  avg # of iterations =  1.0

     negative rho (up, down):  3.494E-04 1.988E-03
 
     Adding external electric field

     Computed dipole along edir(3) : 
        Dipole               -0.4771 Ry au,         -1.2127 Debye
        Dipole field         -0.0003 Ry au, 
 
        Potential amp.        0.0320 Ry
        Total length         54.2615 bohr
 
 
     Adding external electric field

     Computed dipole along edir(3) : 
        Dipole               -0.4771 Ry au,         -1.2127 Debye
        Dipole field         -0.0003 Ry au, 
 
        Potential amp.        0.0320 Ry
        Total length         54.2615 bohr
 

     total cpu time spent up to now is      237.8 secs

     total energy              =   -7397.91241451 Ry
     estimated scf accuracy    <       0.32280432 Ry

     total magnetization       =    79.66 Bohr mag/cell
     absolute magnetization    =    84.92 Bohr mag/cell

     iteration # 18     ecut=    50.00 Ry     beta= 0.10
     Davidson diagonalization with overlap
     ethr =  2.99E-05,  avg # of iterations =  2.0

     negative rho (up, down):  3.026E-04 1.415E-03
 
     Adding external electric field

     Computed dipole along edir(3) : 
        Dipole               -0.5033 Ry au,         -1.2794 Debye
        Dipole field         -0.0003 Ry au, 
 
        Potential amp.        0.0338 Ry
        Total length         54.2615 bohr
 
 
     Adding external electric field

     Computed dipole along edir(3) : 
        Dipole               -0.5033 Ry au,         -1.2794 Debye
        Dipole field         -0.0003 Ry au, 
 
        Potential amp.        0.0338 Ry
        Total length         54.2615 bohr
 

     total cpu time spent up to now is      249.1 secs

     total energy              =   -7397.97309375 Ry
     estimated scf accuracy    <       0.59904859 Ry

     total magnetization       =    79.85 Bohr mag/cell
     absolute magnetization    =    83.78 Bohr mag/cell

     iteration # 19     ecut=    50.00 Ry     beta= 0.10
     Davidson diagonalization with overlap
     ethr =  2.99E-05,  avg # of iterations =  1.0

     negative rho (up, down):  4.396E-05 1.186E-04
 
     Adding external electric field

     Computed dipole along edir(3) : 
        Dipole               -0.5791 Ry au,         -1.4719 Debye
        Dipole field         -0.0004 Ry au, 
 
        Potential amp.        0.0389 Ry
        Total length         54.2615 bohr
 
 
     Adding external electric field

     Computed dipole along edir(3) : 
        Dipole               -0.5791 Ry au,         -1.4719 Debye
        Dipole field         -0.0004 Ry au, 
 
        Potential amp.        0.0389 Ry
        Total length         54.2615 bohr
 

     total cpu time spent up to now is      259.3 secs

     total energy              =   -7398.02898935 Ry
     estimated scf accuracy    <       0.39670557 Ry

     total magnetization       =    80.35 Bohr mag/cell
     absolute magnetization    =    83.85 Bohr mag/cell

     iteration # 20     ecut=    50.00 Ry     beta= 0.10
     Davidson diagonalization with overlap
     ethr =  2.99E-05,  avg # of iterations =  2.0

     negative rho (up, down):  1.437E-04 3.635E-04
 
     Adding external electric field

     Computed dipole along edir(3) : 
        Dipole               -0.6044 Ry au,         -1.5362 Debye
        Dipole field         -0.0004 Ry au, 
 
        Potential amp.        0.0406 Ry
        Total length         54.2615 bohr
 
 
     Adding external electric field

     Computed dipole along edir(3) : 
        Dipole               -0.6044 Ry au,         -1.5362 Debye
        Dipole field         -0.0004 Ry au, 
 
        Potential amp.        0.0406 Ry
        Total length         54.2615 bohr
 

     total cpu time spent up to now is      270.6 secs

     total energy              =   -7398.02052941 Ry
     estimated scf accuracy    <       0.27124040 Ry

     total magnetization       =    79.60 Bohr mag/cell
     absolute magnetization    =    81.85 Bohr mag/cell

     iteration # 21     ecut=    50.00 Ry     beta= 0.10
     Davidson diagonalization with overlap
     ethr =  2.52E-05,  avg # of iterations =  1.0

     negative rho (up, down):  3.575E-05 1.054E-04
 
     Adding external electric field

     Computed dipole along edir(3) : 
        Dipole               -0.5742 Ry au,         -1.4594 Debye
        Dipole field         -0.0004 Ry au, 
 
        Potential amp.        0.0385 Ry
        Total length         54.2615 bohr
 
 
     Adding external electric field

     Computed dipole along edir(3) : 
        Dipole               -0.5742 Ry au,         -1.4594 Debye
        Dipole field         -0.0004 Ry au, 
 
        Potential amp.        0.0385 Ry
        Total length         54.2615 bohr
 

     total cpu time spent up to now is      280.8 secs

     total energy              =   -7398.03404312 Ry
     estimated scf accuracy    <       0.10908233 Ry

     total magnetization       =    80.34 Bohr mag/cell
     absolute magnetization    =    82.83 Bohr mag/cell

     iteration # 22     ecut=    50.00 Ry     beta= 0.10
     Davidson diagonalization with overlap
     ethr =  1.01E-05,  avg # of iterations =  2.0

     negative rho (up, down):  2.714E-05 5.309E-05
 
     Adding external electric field

     Computed dipole along edir(3) : 
        Dipole               -0.5661 Ry au,         -1.4389 Debye
        Dipole field         -0.0004 Ry au, 
 
        Potential amp.        0.0380 Ry
        Total length         54.2615 bohr
 
 
     Adding external electric field

     Computed dipole along edir(3) : 
        Dipole               -0.5661 Ry au,         -1.4389 Debye
        Dipole field         -0.0004 Ry au, 
 
        Potential amp.        0.0380 Ry
        Total length         54.2615 bohr
 

     total cpu time spent up to now is      292.4 secs

     total energy              =   -7398.03224970 Ry
     estimated scf accuracy    <       0.10011333 Ry

     total magnetization       =    79.98 Bohr mag/cell
     absolute magnetization    =    81.90 Bohr mag/cell

     iteration # 23     ecut=    50.00 Ry     beta= 0.10
     Davidson diagonalization with overlap
     ethr =  9.29E-06,  avg # of iterations =  2.0

     negative rho (up, down):  3.667E-05 2.813E-05
 
     Adding external electric field

     Computed dipole along edir(3) : 
        Dipole               -0.5298 Ry au,         -1.3465 Debye
        Dipole field         -0.0003 Ry au, 
 
        Potential amp.        0.0356 Ry
        Total length         54.2615 bohr
 
 
     Adding external electric field

     Computed dipole along edir(3) : 
        Dipole               -0.5298 Ry au,         -1.3465 Debye
        Dipole field         -0.0003 Ry au, 
 
        Potential amp.        0.0356 Ry
        Total length         54.2615 bohr
 

     total cpu time spent up to now is      303.8 secs

     total energy              =   -7398.03351144 Ry
     estimated scf accuracy    <       0.03607590 Ry

     total magnetization       =    80.01 Bohr mag/cell
     absolute magnetization    =    81.77 Bohr mag/cell

     iteration # 24     ecut=    50.00 Ry     beta= 0.10
     Davidson diagonalization with overlap
     ethr =  3.35E-06,  avg # of iterations = 12.0

     negative rho (up, down):  3.969E-05 2.995E-05
 
     Adding external electric field

     Computed dipole along edir(3) : 
        Dipole               -0.5205 Ry au,         -1.3229 Debye
        Dipole field         -0.0003 Ry au, 
 
        Potential amp.        0.0349 Ry
        Total length         54.2615 bohr
 
 
     Adding external electric field

     Computed dipole along edir(3) : 
        Dipole               -0.5205 Ry au,         -1.3229 Debye
        Dipole field         -0.0003 Ry au, 
 
        Potential amp.        0.0349 Ry
        Total length         54.2615 bohr
 

     total cpu time spent up to now is      324.7 secs

     total energy              =   -7398.03365341 Ry
     estimated scf accuracy    <       0.04159623 Ry

     total magnetization       =    80.07 Bohr mag/cell
     absolute magnetization    =    81.67 Bohr mag/cell

     iteration # 25     ecut=    50.00 Ry     beta= 0.10
     Davidson diagonalization with overlap
     ethr =  3.35E-06,  avg # of iterations =  3.0

     negative rho (up, down):  1.324E-05 4.476E-06
 
     Adding external electric field

     Computed dipole along edir(3) : 
        Dipole               -0.4923 Ry au,         -1.2512 Debye
        Dipole field         -0.0003 Ry au, 
 
        Potential amp.        0.0330 Ry
        Total length         54.2615 bohr
 
 
     Adding external electric field

     Computed dipole along edir(3) : 
        Dipole               -0.4923 Ry au,         -1.2512 Debye
        Dipole field         -0.0003 Ry au, 
 
        Potential amp.        0.0330 Ry
        Total length         54.2615 bohr
 

     total cpu time spent up to now is      337.0 secs

     total energy              =   -7398.03377972 Ry
     estimated scf accuracy    <       0.02997867 Ry

     total magnetization       =    80.26 Bohr mag/cell
     absolute magnetization    =    81.78 Bohr mag/cell

     iteration # 26     ecut=    50.00 Ry     beta= 0.10
     Davidson diagonalization with overlap
     ethr =  2.78E-06,  avg # of iterations =  2.0

     negative rho (up, down):  4.976E-08 3.414E-08
 
     Adding external electric field

     Computed dipole along edir(3) : 
        Dipole               -0.3766 Ry au,         -0.9573 Debye
        Dipole field         -0.0002 Ry au, 
 
        Potential amp.        0.0253 Ry
        Total length         54.2615 bohr
 
 
     Adding external electric field

     Computed dipole along edir(3) : 
        Dipole               -0.3766 Ry au,         -0.9573 Debye
        Dipole field         -0.0002 Ry au, 
 
        Potential amp.        0.0253 Ry
        Total length         54.2615 bohr
 

     total cpu time spent up to now is      348.4 secs

     total energy              =   -7398.03277382 Ry
     estimated scf accuracy    <       0.02027718 Ry

     total magnetization       =    80.24 Bohr mag/cell
     absolute magnetization    =    81.74 Bohr mag/cell

     iteration # 27     ecut=    50.00 Ry     beta= 0.10
     Davidson diagonalization with overlap
     c_bands:  2 eigenvalues not converged
     ethr =  1.88E-06,  avg # of iterations = 11.0

     negative rho (up, down):  1.028E-07 4.562E-08
 
     Adding external electric field

     Computed dipole along edir(3) : 
        Dipole               -0.4204 Ry au,         -1.0685 Debye
        Dipole field         -0.0003 Ry au, 
 
        Potential amp.        0.0282 Ry
        Total length         54.2615 bohr
 
 
     Adding external electric field

     Computed dipole along edir(3) : 
        Dipole               -0.4204 Ry au,         -1.0685 Debye
        Dipole field         -0.0003 Ry au, 
 
        Potential amp.        0.0282 Ry
        Total length         54.2615 bohr
 

     total cpu time spent up to now is      365.2 secs

     total energy              =   -7398.03331854 Ry
     estimated scf accuracy    <       0.04130849 Ry

     total magnetization       =    80.05 Bohr mag/cell
     absolute magnetization    =    81.58 Bohr mag/cell

     iteration # 28     ecut=    50.00 Ry     beta= 0.10
     Davidson diagonalization with overlap
     c_bands:  1 eigenvalues not converged
     ethr =  1.88E-06,  avg # of iterations = 11.0

     negative rho (up, down):  1.928E-07 4.186E-08
 
     Adding external electric field

     Computed dipole along edir(3) : 
        Dipole               -0.4051 Ry au,         -1.0295 Debye
        Dipole field         -0.0003 Ry au, 
 
        Potential amp.        0.0272 Ry
        Total length         54.2615 bohr
 
 
     Adding external electric field

     Computed dipole along edir(3) : 
        Dipole               -0.4051 Ry au,         -1.0295 Debye
        Dipole field         -0.0003 Ry au, 
 
        Potential amp.        0.0272 Ry
        Total length         54.2615 bohr
 

     total cpu time spent up to now is      380.4 secs

     total energy              =   -7398.03303379 Ry
     estimated scf accuracy    <       0.02309387 Ry

     total magnetization       =    80.21 Bohr mag/cell
     absolute magnetization    =    81.72 Bohr mag/cell

     iteration # 29     ecut=    50.00 Ry     beta= 0.10
     Davidson diagonalization with overlap
     ethr =  1.88E-06,  avg # of iterations =  2.0

     negative rho (up, down):  6.238E-07 6.513E-08
 
     Adding external electric field

     Computed dipole along edir(3) : 
        Dipole               -0.4001 Ry au,         -1.0170 Debye
        Dipole field         -0.0002 Ry au, 
 
        Potential amp.        0.0269 Ry
        Total length         54.2615 bohr
 
 
     Adding external electric field

     Computed dipole along edir(3) : 
        Dipole               -0.4001 Ry au,         -1.0170 Debye
        Dipole field         -0.0002 Ry au, 
 
        Potential amp.        0.0269 Ry
        Total length         54.2615 bohr
 

     total cpu time spent up to now is      391.7 secs

     total energy              =   -7398.03244079 Ry
     estimated scf accuracy    <       0.02238280 Ry

     total magnetization       =    80.19 Bohr mag/cell
     absolute magnetization    =    81.69 Bohr mag/cell

     iteration # 30     ecut=    50.00 Ry     beta= 0.10
     Davidson diagonalization with overlap
     ethr =  1.88E-06,  avg # of iterations =  2.0

     negative rho (up, down):  5.051E-07 4.678E-08
 
     Adding external electric field

     Computed dipole along edir(3) : 
        Dipole               -0.4029 Ry au,         -1.0240 Debye
        Dipole field         -0.0002 Ry au, 
 
        Potential amp.        0.0270 Ry
        Total length         54.2615 bohr
 
 
     Adding external electric field

     Computed dipole along edir(3) : 
        Dipole               -0.4029 Ry au,         -1.0240 Debye
        Dipole field         -0.0002 Ry au, 
 
        Potential amp.        0.0270 Ry
        Total length         54.2615 bohr
 

     total cpu time spent up to now is      403.2 secs

     total energy              =   -7398.03259164 Ry
     estimated scf accuracy    <       0.02419730 Ry

     total magnetization       =    80.14 Bohr mag/cell
     absolute magnetization    =    81.63 Bohr mag/cell

     iteration # 31     ecut=    50.00 Ry     beta= 0.10
     Davidson diagonalization with overlap
     ethr =  1.88E-06,  avg # of iterations =  1.5

     negative rho (up, down):  5.934E-07 5.991E-08
 
     Adding external electric field

     Computed dipole along edir(3) : 
        Dipole               -0.3964 Ry au,         -1.0076 Debye
        Dipole field         -0.0002 Ry au, 
 
        Potential amp.        0.0266 Ry
        Total length         54.2615 bohr
 
 
     Adding external electric field

     Computed dipole along edir(3) : 
        Dipole               -0.3964 Ry au,         -1.0076 Debye
        Dipole field         -0.0002 Ry au, 
 
        Potential amp.        0.0266 Ry
        Total length         54.2615 bohr
 

     total cpu time spent up to now is      414.1 secs

     total energy              =   -7398.03246312 Ry
     estimated scf accuracy    <       0.02418403 Ry

     total magnetization       =    80.14 Bohr mag/cell
     absolute magnetization    =    81.62 Bohr mag/cell

     iteration # 32     ecut=    50.00 Ry     beta= 0.10
     Davidson diagonalization with overlap
     ethr =  1.88E-06,  avg # of iterations =  2.0

     negative rho (up, down):  4.911E-07 6.989E-08
 
     Adding external electric field

     Computed dipole along edir(3) : 
        Dipole               -0.3960 Ry au,         -1.0066 Debye
        Dipole field         -0.0002 Ry au, 
 
        Potential amp.        0.0266 Ry
        Total length         54.2615 bohr
 
 
     Adding external electric field

     Computed dipole along edir(3) : 
        Dipole               -0.3960 Ry au,         -1.0066 Debye
        Dipole field         -0.0002 Ry au, 
 
        Potential amp.        0.0266 Ry
        Total length         54.2615 bohr
 

     total cpu time spent up to now is      425.4 secs

     total energy              =   -7398.03267365 Ry
     estimated scf accuracy    <       0.02264605 Ry

     total magnetization       =    80.18 Bohr mag/cell
     absolute magnetization    =    81.67 Bohr mag/cell

     iteration # 33     ecut=    50.00 Ry     beta= 0.10
     Davidson diagonalization with overlap
     ethr =  1.88E-06,  avg # of iterations =  2.0

     negative rho (up, down):  7.057E-07 6.108E-08
 
     Adding external electric field

     Computed dipole along edir(3) : 
        Dipole               -0.3885 Ry au,         -0.9875 Debye
        Dipole field         -0.0002 Ry au, 
 
        Potential amp.        0.0261 Ry
        Total length         54.2615 bohr
 
 
     Adding external electric field

     Computed dipole along edir(3) : 
        Dipole               -0.3885 Ry au,         -0.9875 Debye
        Dipole field         -0.0002 Ry au, 
 
        Potential amp.        0.0261 Ry
        Total length         54.2615 bohr
 

     total cpu time spent up to now is      436.7 secs

     total energy              =   -7398.03236503 Ry
     estimated scf accuracy    <       0.02275259 Ry

     total magnetization       =    80.17 Bohr mag/cell
     absolute magnetization    =    81.65 Bohr mag/cell

     iteration # 34     ecut=    50.00 Ry     beta= 0.10
     Davidson diagonalization with overlap
     ethr =  1.88E-06,  avg # of iterations =  2.0

     negative rho (up, down):  2.987E-07 1.957E-08
 
     Adding external electric field

     Computed dipole along edir(3) : 
        Dipole               -0.4176 Ry au,         -1.0615 Debye
        Dipole field         -0.0003 Ry au, 
 
        Potential amp.        0.0280 Ry
        Total length         54.2615 bohr
 
 
     Adding external electric field

     Computed dipole along edir(3) : 
        Dipole               -0.4176 Ry au,         -1.0615 Debye
        Dipole field         -0.0003 Ry au, 
 
        Potential amp.        0.0280 Ry
        Total length         54.2615 bohr
 

     total cpu time spent up to now is      448.3 secs

     total energy              =   -7398.03276233 Ry
     estimated scf accuracy    <       0.02279802 Ry

     total magnetization       =    80.17 Bohr mag/cell
     absolute magnetization    =    81.64 Bohr mag/cell

     iteration # 35     ecut=    50.00 Ry     beta= 0.10
     Davidson diagonalization with overlap
     ethr =  1.88E-06,  avg # of iterations =  2.0

     negative rho (up, down):  4.726E-05 2.707E-05
 
     Adding external electric field

     Computed dipole along edir(3) : 
        Dipole               -0.3144 Ry au,         -0.7993 Debye
        Dipole field         -0.0002 Ry au, 
 
        Potential amp.        0.0211 Ry
        Total length         54.2615 bohr
 
 
     Adding external electric field

     Computed dipole along edir(3) : 
        Dipole               -0.3144 Ry au,         -0.7993 Debye
        Dipole field         -0.0002 Ry au, 
 
        Potential amp.        0.0211 Ry
        Total length         54.2615 bohr
 

     total cpu time spent up to now is      459.9 secs

     total energy              =   -7398.03158366 Ry
     estimated scf accuracy    <       0.02215900 Ry

     total magnetization       =    80.19 Bohr mag/cell
     absolute magnetization    =    81.67 Bohr mag/cell

     iteration # 36     ecut=    50.00 Ry     beta= 0.10
     Davidson diagonalization with overlap
     ethr =  1.88E-06,  avg # of iterations =  2.0

     negative rho (up, down):  8.079E-05 4.080E-05
 
     Adding external electric field

     Computed dipole along edir(3) : 
        Dipole               -0.3713 Ry au,         -0.9437 Debye
        Dipole field         -0.0002 Ry au, 
 
        Potential amp.        0.0249 Ry
        Total length         54.2615 bohr
 
 
     Adding external electric field

     Computed dipole along edir(3) : 
        Dipole               -0.3713 Ry au,         -0.9437 Debye
        Dipole field         -0.0002 Ry au, 
 
        Potential amp.        0.0249 Ry
        Total length         54.2615 bohr
 

     total cpu time spent up to now is      471.7 secs

     total energy              =   -7398.03148222 Ry
     estimated scf accuracy    <       0.02199992 Ry

     total magnetization       =    80.19 Bohr mag/cell
     absolute magnetization    =    81.63 Bohr mag/cell

     iteration # 37     ecut=    50.00 Ry     beta= 0.10
     Davidson diagonalization with overlap
     ethr =  1.88E-06,  avg # of iterations =  2.0

     negative rho (up, down):  2.493E-05 1.711E-05
 
     Adding external electric field

     Computed dipole along edir(3) : 
        Dipole               -0.3613 Ry au,         -0.9184 Debye
        Dipole field         -0.0002 Ry au, 
 
        Potential amp.        0.0242 Ry
        Total length         54.2615 bohr
 
 
     Adding external electric field

     Computed dipole along edir(3) : 
        Dipole               -0.3613 Ry au,         -0.9184 Debye
        Dipole field         -0.0002 Ry au, 
 
        Potential amp.        0.0242 Ry
        Total length         54.2615 bohr
 

     total cpu time spent up to now is      482.9 secs

     total energy              =   -7398.03273863 Ry
     estimated scf accuracy    <       0.02373727 Ry

     total magnetization       =    80.25 Bohr mag/cell
     absolute magnetization    =    81.65 Bohr mag/cell

     iteration # 38     ecut=    50.00 Ry     beta= 0.10
     Davidson diagonalization with overlap
     ethr =  1.88E-06,  avg # of iterations =  1.5

     negative rho (up, down):  6.868E-05 4.939E-05
 
     Adding external electric field

     Computed dipole along edir(3) : 
        Dipole               -0.3351 Ry au,         -0.8516 Debye
        Dipole field         -0.0002 Ry au, 
 
        Potential amp.        0.0225 Ry
        Total length         54.2615 bohr
 
 
     Adding external electric field

     Computed dipole along edir(3) : 
        Dipole               -0.3351 Ry au,         -0.8516 Debye
        Dipole field         -0.0002 Ry au, 
 
        Potential amp.        0.0225 Ry
        Total length         54.2615 bohr
 

     total cpu time spent up to now is      493.9 secs

     total energy              =   -7398.03245931 Ry
     estimated scf accuracy    <       0.02433081 Ry

     total magnetization       =    80.21 Bohr mag/cell
     absolute magnetization    =    81.68 Bohr mag/cell

     iteration # 39     ecut=    50.00 Ry     beta= 0.10
     Davidson diagonalization with overlap
     ethr =  1.88E-06,  avg # of iterations =  2.0

     negative rho (up, down):  1.514E-04 9.580E-05
 
     Adding external electric field

     Computed dipole along edir(3) : 
        Dipole               -0.2880 Ry au,         -0.7320 Debye
        Dipole field         -0.0002 Ry au, 
 
        Potential amp.        0.0193 Ry
        Total length         54.2615 bohr
 
 
     Adding external electric field

     Computed dipole along edir(3) : 
        Dipole               -0.2880 Ry au,         -0.7320 Debye
        Dipole field         -0.0002 Ry au, 
 
        Potential amp.        0.0193 Ry
        Total length         54.2615 bohr
 

     total cpu time spent up to now is      505.0 secs

     total energy              =   -7398.03152742 Ry
     estimated scf accuracy    <       0.02127165 Ry

     total magnetization       =    80.20 Bohr mag/cell
     absolute magnetization    =    81.66 Bohr mag/cell

     iteration # 40     ecut=    50.00 Ry     beta= 0.10
     Davidson diagonalization with overlap
     ethr =  1.88E-06,  avg # of iterations =  2.0

     negative rho (up, down):  7.614E-05 4.937E-05
 
     Adding external electric field

     Computed dipole along edir(3) : 
        Dipole               -0.3227 Ry au,         -0.8203 Debye
        Dipole field         -0.0002 Ry au, 
 
        Potential amp.        0.0217 Ry
        Total length         54.2615 bohr
 
 
     Adding external electric field

     Computed dipole along edir(3) : 
        Dipole               -0.3227 Ry au,         -0.8203 Debye
        Dipole field         -0.0002 Ry au, 
 
        Potential amp.        0.0217 Ry
        Total length         54.2615 bohr
 

     total cpu time spent up to now is      516.6 secs

     total energy              =   -7398.03199221 Ry
     estimated scf accuracy    <       0.02211045 Ry

     total magnetization       =    80.21 Bohr mag/cell
     absolute magnetization    =    81.72 Bohr mag/cell

     iteration # 41     ecut=    50.00 Ry     beta= 0.10
     Davidson diagonalization with overlap
     ethr =  1.88E-06,  avg # of iterations =  1.0

     negative rho (up, down):  1.157E-03 1.166E-03
 
     Adding external electric field

     Computed dipole along edir(3) : 
        Dipole               -0.1040 Ry au,         -0.2643 Debye
        Dipole field         -0.0001 Ry au, 
 
        Potential amp.        0.0070 Ry
        Total length         54.2615 bohr
 
 
     Adding external electric field

     Computed dipole along edir(3) : 
        Dipole               -0.1040 Ry au,         -0.2643 Debye
        Dipole field         -0.0001 Ry au, 
 
        Potential amp.        0.0070 Ry
        Total length         54.2615 bohr
 

     total cpu time spent up to now is      526.9 secs

     total energy              =   -7398.03026345 Ry
     estimated scf accuracy    <       0.02169702 Ry

     total magnetization       =    80.20 Bohr mag/cell
     absolute magnetization    =    81.68 Bohr mag/cell

     iteration # 42     ecut=    50.00 Ry     beta= 0.10
     Davidson diagonalization with overlap
     ethr =  1.88E-06,  avg # of iterations = 16.5

     negative rho (up, down):  8.732E-04 1.044E-03
 
     Adding external electric field

     Computed dipole along edir(3) : 
        Dipole               -0.0701 Ry au,         -0.1782 Debye
        Dipole field         -0.0000 Ry au, 
 
        Potential amp.        0.0047 Ry
        Total length         54.2615 bohr
 
 
     Adding external electric field

     Computed dipole along edir(3) : 
        Dipole               -0.0701 Ry au,         -0.1782 Debye
        Dipole field         -0.0000 Ry au, 
 
        Potential amp.        0.0047 Ry
        Total length         54.2615 bohr
 

     total cpu time spent up to now is      549.0 secs

     total energy              =   -7398.02975596 Ry
     estimated scf accuracy    <       0.01356395 Ry

     total magnetization       =    80.11 Bohr mag/cell
     absolute magnetization    =    81.53 Bohr mag/cell

     iteration # 43     ecut=    50.00 Ry     beta= 0.10
     Davidson diagonalization with overlap
     ethr =  1.26E-06,  avg # of iterations =  2.0

     negative rho (up, down):  9.704E-04 1.201E-03
 
     Adding external electric field

     Computed dipole along edir(3) : 
        Dipole               -0.0548 Ry au,         -0.1393 Debye
        Dipole field         -0.0000 Ry au, 
 
        Potential amp.        0.0037 Ry
        Total length         54.2615 bohr
 
 
     Adding external electric field

     Computed dipole along edir(3) : 
        Dipole               -0.0548 Ry au,         -0.1393 Debye
        Dipole field         -0.0000 Ry au, 
 
        Potential amp.        0.0037 Ry
        Total length         54.2615 bohr
 

     total cpu time spent up to now is      560.3 secs

     total energy              =   -7398.02962112 Ry
     estimated scf accuracy    <       0.01262866 Ry

     total magnetization       =    80.08 Bohr mag/cell
     absolute magnetization    =    81.47 Bohr mag/cell

     iteration # 44     ecut=    50.00 Ry     beta= 0.10
     Davidson diagonalization with overlap
     ethr =  1.17E-06,  avg # of iterations =  1.0

     negative rho (up, down):  5.108E-04 6.308E-04
 
     Adding external electric field

     Computed dipole along edir(3) : 
        Dipole               -0.0781 Ry au,         -0.1985 Debye
        Dipole field         -0.0000 Ry au, 
 
        Potential amp.        0.0052 Ry
        Total length         54.2615 bohr
 
 
     Adding external electric field

     Computed dipole along edir(3) : 
        Dipole               -0.0781 Ry au,         -0.1985 Debye
        Dipole field         -0.0000 Ry au, 
 
        Potential amp.        0.0052 Ry
        Total length         54.2615 bohr
 

     total cpu time spent up to now is      570.1 secs

     total energy              =   -7398.03004569 Ry
     estimated scf accuracy    <       0.01194990 Ry

     total magnetization       =    80.08 Bohr mag/cell
     absolute magnetization    =    81.47 Bohr mag/cell

     iteration # 45     ecut=    50.00 Ry     beta= 0.10
     Davidson diagonalization with overlap
     ethr =  1.11E-06,  avg # of iterations =  2.0

     negative rho (up, down):  6.360E-04 8.149E-04
 
     Adding external electric field

     Computed dipole along edir(3) : 
        Dipole               -0.0260 Ry au,         -0.0661 Debye
        Dipole field         -0.0000 Ry au, 
 
        Potential amp.        0.0017 Ry
        Total length         54.2615 bohr
 
 
     Adding external electric field

     Computed dipole along edir(3) : 
        Dipole               -0.0260 Ry au,         -0.0661 Debye
        Dipole field         -0.0000 Ry au, 
 
        Potential amp.        0.0017 Ry
        Total length         54.2615 bohr
 

     total cpu time spent up to now is      581.4 secs

     total energy              =   -7398.02953230 Ry
     estimated scf accuracy    <       0.01190487 Ry

     total magnetization       =    80.12 Bohr mag/cell
     absolute magnetization    =    81.53 Bohr mag/cell

     iteration # 46     ecut=    50.00 Ry     beta= 0.10
     Davidson diagonalization with overlap
     ethr =  1.10E-06,  avg # of iterations =  1.5

     negative rho (up, down):  1.021E-03 1.338E-03
 
     Adding external electric field

     Computed dipole along edir(3) : 
        Dipole                0.1487 Ry au,          0.3780 Debye
        Dipole field          0.0001 Ry au, 
 
        Potential amp.       -0.0100 Ry
        Total length         54.2615 bohr
 
 
     Adding external electric field

     Computed dipole along edir(3) : 
        Dipole                0.1487 Ry au,          0.3780 Debye
        Dipole field          0.0001 Ry au, 
 
        Potential amp.       -0.0100 Ry
        Total length         54.2615 bohr
 

     total cpu time spent up to now is      592.0 secs

     total energy              =   -7398.02885746 Ry
     estimated scf accuracy    <       0.01003592 Ry

     total magnetization       =    80.12 Bohr mag/cell
     absolute magnetization    =    81.52 Bohr mag/cell

     iteration # 47     ecut=    50.00 Ry     beta= 0.10
     Davidson diagonalization with overlap
     ethr =  9.31E-07,  avg # of iterations =  2.0

     negative rho (up, down):  1.705E-03 1.912E-03
 
     Adding external electric field

     Computed dipole along edir(3) : 
        Dipole                0.2300 Ry au,          0.5846 Debye
        Dipole field          0.0001 Ry au, 
 
        Potential amp.       -0.0154 Ry
        Total length         54.2615 bohr
 
 
     Adding external electric field

     Computed dipole along edir(3) : 
        Dipole                0.2300 Ry au,          0.5846 Debye
        Dipole field          0.0001 Ry au, 
 
        Potential amp.       -0.0154 Ry
        Total length         54.2615 bohr
 

     total cpu time spent up to now is      603.6 secs

     total energy              =   -7398.02904031 Ry
     estimated scf accuracy    <       0.00883650 Ry

     total magnetization       =    80.15 Bohr mag/cell
     absolute magnetization    =    81.55 Bohr mag/cell

     iteration # 48     ecut=    50.00 Ry     beta= 0.10
     Davidson diagonalization with overlap
     ethr =  8.20E-07,  avg # of iterations =  2.0

     negative rho (up, down):  1.801E-03 1.669E-03
 
     Adding external electric field

     Computed dipole along edir(3) : 
        Dipole                0.3033 Ry au,          0.7708 Debye
        Dipole field          0.0002 Ry au, 
 
        Potential amp.       -0.0204 Ry
        Total length         54.2615 bohr
 
 
     Adding external electric field

     Computed dipole along edir(3) : 
        Dipole                0.3033 Ry au,          0.7708 Debye
        Dipole field          0.0002 Ry au, 
 
        Potential amp.       -0.0204 Ry
        Total length         54.2615 bohr
 

     total cpu time spent up to now is      614.7 secs

     total energy              =   -7398.02923462 Ry
     estimated scf accuracy    <       0.00606101 Ry

     total magnetization       =    80.16 Bohr mag/cell
     absolute magnetization    =    81.54 Bohr mag/cell

     iteration # 49     ecut=    50.00 Ry     beta= 0.10
     Davidson diagonalization with overlap
     c_bands:  5 eigenvalues not converged
     ethr =  5.62E-07,  avg # of iterations = 11.0

     negative rho (up, down):  6.507E-04 5.648E-04
 
     Adding external electric field

     Computed dipole along edir(3) : 
        Dipole                0.2644 Ry au,          0.6719 Debye
        Dipole field          0.0002 Ry au, 
 
        Potential amp.       -0.0177 Ry
        Total length         54.2615 bohr
 
 
     Adding external electric field

     Computed dipole along edir(3) : 
        Dipole                0.2644 Ry au,          0.6719 Debye
        Dipole field          0.0002 Ry au, 
 
        Potential amp.       -0.0177 Ry
        Total length         54.2615 bohr
 

     total cpu time spent up to now is      632.0 secs

     total energy              =   -7398.02935240 Ry
     estimated scf accuracy    <       0.00353324 Ry

     total magnetization       =    80.19 Bohr mag/cell
     absolute magnetization    =    81.57 Bohr mag/cell

     iteration # 50     ecut=    50.00 Ry     beta= 0.10
     Davidson diagonalization with overlap
     ethr =  3.28E-07,  avg # of iterations =  8.5

     negative rho (up, down):  3.653E-04 3.113E-04
 
     Adding external electric field

     Computed dipole along edir(3) : 
        Dipole                0.2333 Ry au,          0.5929 Debye
        Dipole field          0.0001 Ry au, 
 
        Potential amp.       -0.0157 Ry
        Total length         54.2615 bohr
 
 
     Adding external electric field

     Computed dipole along edir(3) : 
        Dipole                0.2333 Ry au,          0.5929 Debye
        Dipole field          0.0001 Ry au, 
 
        Potential amp.       -0.0157 Ry
        Total length         54.2615 bohr
 

     total cpu time spent up to now is      646.8 secs

     total energy              =   -7398.02941274 Ry
     estimated scf accuracy    <       0.00214053 Ry

     total magnetization       =    80.19 Bohr mag/cell
     absolute magnetization    =    81.62 Bohr mag/cell

     iteration # 51     ecut=    50.00 Ry     beta= 0.10
     Davidson diagonalization with overlap
     ethr =  1.99E-07,  avg # of iterations =  2.0

     negative rho (up, down):  1.068E-04 8.919E-05
 
     Adding external electric field

     Computed dipole along edir(3) : 
        Dipole                0.2172 Ry au,          0.5520 Debye
        Dipole field          0.0001 Ry au, 
 
        Potential amp.       -0.0146 Ry
        Total length         54.2615 bohr
 
 
     Adding external electric field

     Computed dipole along edir(3) : 
        Dipole                0.2172 Ry au,          0.5520 Debye
        Dipole field          0.0001 Ry au, 
 
        Potential amp.       -0.0146 Ry
        Total length         54.2615 bohr
 

     total cpu time spent up to now is      658.2 secs

     total energy              =   -7398.02946052 Ry
     estimated scf accuracy    <       0.00185718 Ry

     total magnetization       =    80.17 Bohr mag/cell
     absolute magnetization    =    81.62 Bohr mag/cell

     iteration # 52     ecut=    50.00 Ry     beta= 0.10
     Davidson diagonalization with overlap
     c_bands:  1 eigenvalues not converged
     ethr =  1.72E-07,  avg # of iterations = 11.0

     negative rho (up, down):  1.340E-06 6.100E-07
 
     Adding external electric field

     Computed dipole along edir(3) : 
        Dipole                0.2300 Ry au,          0.5847 Debye
        Dipole field          0.0001 Ry au, 
 
        Potential amp.       -0.0154 Ry
        Total length         54.2615 bohr
 
 
     Adding external electric field

     Computed dipole along edir(3) : 
        Dipole                0.2300 Ry au,          0.5847 Debye
        Dipole field          0.0001 Ry au, 
 
        Potential amp.       -0.0154 Ry
        Total length         54.2615 bohr
 

     total cpu time spent up to now is      673.2 secs

     total energy              =   -7398.02958965 Ry
     estimated scf accuracy    <       0.00156659 Ry

     total magnetization       =    80.16 Bohr mag/cell
     absolute magnetization    =    81.62 Bohr mag/cell

     iteration # 53     ecut=    50.00 Ry     beta= 0.10
     Davidson diagonalization with overlap
     ethr =  1.45E-07,  avg # of iterations =  5.5

     negative rho (up, down):  8.508E-06 7.032E-06
 
     Adding external electric field

     Computed dipole along edir(3) : 
        Dipole                0.2705 Ry au,          0.6876 Debye
        Dipole field          0.0002 Ry au, 
 
        Potential amp.       -0.0182 Ry
        Total length         54.2615 bohr
 
 
     Adding external electric field

     Computed dipole along edir(3) : 
        Dipole                0.2705 Ry au,          0.6876 Debye
        Dipole field          0.0002 Ry au, 
 
        Potential amp.       -0.0182 Ry
        Total length         54.2615 bohr
 

     total cpu time spent up to now is      686.1 secs

     total energy              =   -7398.02967097 Ry
     estimated scf accuracy    <       0.00106889 Ry

     total magnetization       =    80.15 Bohr mag/cell
     absolute magnetization    =    81.64 Bohr mag/cell

     iteration # 54     ecut=    50.00 Ry     beta= 0.10
     Davidson diagonalization with overlap
     ethr =  9.92E-08,  avg # of iterations = 10.0

     negative rho (up, down):  1.654E-05 1.420E-05
 
     Adding external electric field

     Computed dipole along edir(3) : 
        Dipole                0.2648 Ry au,          0.6730 Debye
        Dipole field          0.0002 Ry au, 
 
        Potential amp.       -0.0178 Ry
        Total length         54.2615 bohr
 
 
     Adding external electric field

     Computed dipole along edir(3) : 
        Dipole                0.2648 Ry au,          0.6730 Debye
        Dipole field          0.0002 Ry au, 
 
        Potential amp.       -0.0178 Ry
        Total length         54.2615 bohr
 

     total cpu time spent up to now is      701.4 secs

     total energy              =   -7398.02970809 Ry
     estimated scf accuracy    <       0.00077156 Ry

     total magnetization       =    80.13 Bohr mag/cell
     absolute magnetization    =    81.64 Bohr mag/cell

     iteration # 55     ecut=    50.00 Ry     beta= 0.10
     Davidson diagonalization with overlap
     ethr =  7.16E-08,  avg # of iterations =  2.0

     negative rho (up, down):  1.125E-04 1.211E-04
 
     Adding external electric field

     Computed dipole along edir(3) : 
        Dipole                0.2497 Ry au,          0.6347 Debye
        Dipole field          0.0002 Ry au, 
 
        Potential amp.       -0.0168 Ry
        Total length         54.2615 bohr
 
 
     Adding external electric field

     Computed dipole along edir(3) : 
        Dipole                0.2497 Ry au,          0.6347 Debye
        Dipole field          0.0002 Ry au, 
 
        Potential amp.       -0.0168 Ry
        Total length         54.2615 bohr
 

     total cpu time spent up to now is      712.8 secs

     total energy              =   -7398.02971479 Ry
     estimated scf accuracy    <       0.00060815 Ry

     total magnetization       =    80.12 Bohr mag/cell
     absolute magnetization    =    81.63 Bohr mag/cell

     iteration # 56     ecut=    50.00 Ry     beta= 0.10
     Davidson diagonalization with overlap
     ethr =  5.64E-08,  avg # of iterations =  6.0

     negative rho (up, down):  3.536E-04 3.363E-04
 
     Adding external electric field

     Computed dipole along edir(3) : 
        Dipole                0.2428 Ry au,          0.6172 Debye
        Dipole field          0.0002 Ry au, 
 
        Potential amp.       -0.0163 Ry
        Total length         54.2615 bohr
 
 
     Adding external electric field

     Computed dipole along edir(3) : 
        Dipole                0.2428 Ry au,          0.6172 Debye
        Dipole field          0.0002 Ry au, 
 
        Potential amp.       -0.0163 Ry
        Total length         54.2615 bohr
 

     total cpu time spent up to now is      726.5 secs

     total energy              =   -7398.02976757 Ry
     estimated scf accuracy    <       0.00051314 Ry

     total magnetization       =    80.12 Bohr mag/cell
     absolute magnetization    =    81.64 Bohr mag/cell

     iteration # 57     ecut=    50.00 Ry     beta= 0.10
     Davidson diagonalization with overlap
     ethr =  4.76E-08,  avg # of iterations =  2.0

     negative rho (up, down):  8.416E-04 7.569E-04
 
     Adding external electric field

     Computed dipole along edir(3) : 
        Dipole                0.2546 Ry au,          0.6470 Debye
        Dipole field          0.0002 Ry au, 
 
        Potential amp.       -0.0171 Ry
        Total length         54.2615 bohr
 
 
     Adding external electric field

     Computed dipole along edir(3) : 
        Dipole                0.2546 Ry au,          0.6470 Debye
        Dipole field          0.0002 Ry au, 
 
        Potential amp.       -0.0171 Ry
        Total length         54.2615 bohr
 

     total cpu time spent up to now is      737.8 secs

     total energy              =   -7398.02979358 Ry
     estimated scf accuracy    <       0.00036771 Ry

     total magnetization       =    80.12 Bohr mag/cell
     absolute magnetization    =    81.63 Bohr mag/cell

     iteration # 58     ecut=    50.00 Ry     beta= 0.10
     Davidson diagonalization with overlap
     ethr =  3.41E-08,  avg # of iterations =  1.5

     negative rho (up, down):  1.065E-03 8.655E-04
 
     Adding external electric field

     Computed dipole along edir(3) : 
        Dipole                0.2739 Ry au,          0.6961 Debye
        Dipole field          0.0002 Ry au, 
 
[...]
    -5.9509  -5.9320  -5.9251  -5.9044  -5.8911  -5.8567  -5.8172  -5.8112
    -5.7783  -5.7702  -5.7371  -5.7351  -5.7236  -5.6817  -5.6714  -5.6503
    -5.6431  -5.6310  -5.6024  -5.5926  -5.5802  -5.5617  -5.5283  -5.4828
    -5.4646  -5.4310  -5.3979  -5.3861  -5.3690  -5.3432  -5.3127  -5.2555
    -5.2358  -5.2038  -5.1832  -5.1662  -5.0995  -5.0726  -5.0327  -5.0018
    -4.9950  -4.9616  -4.9286  -4.9197  -4.8890  -4.8778  -4.8468  -4.8399
    -4.7798  -4.7491  -4.6973  -4.6922  -4.6553  -4.6190  -4.5851  -4.5364
    -4.5048  -4.4851  -4.4523  -4.4333  -4.4076  -4.3835  -4.3523  -4.3314
    -4.3207  -4.2628  -4.2129  -4.1827  -4.1681  -4.1256  -4.1037  -4.0946
    -4.0447  -4.0039  -3.9904  -3.9701  -3.9539  -3.9268  -3.8982  -3.8789
    -3.8368  -3.8299  -3.8111  -3.7865  -3.7758  -3.7244  -3.7138  -3.7007
    -3.6733  -3.6681  -3.6403  -3.6317  -3.6177  -3.5987  -3.5905  -3.5195
    -3.5144  -3.5030  -3.4950  -3.4750  -3.4639  -3.4604  -3.4273  -3.4217
    -3.4008  -3.3704  -3.3572  -3.3413  -3.3072  -3.2975  -3.2704  -3.2450
    -3.2300  -3.2009  -3.1980  -3.1563  -3.1484  -3.1360  -3.1177  -3.1105
    -3.0850  -3.0665  -3.0478  -3.0136  -2.9964  -2.9768  -2.9630  -2.9288
    -2.9083  -2.8941  -2.8736  -2.8508  -2.8283  -2.8199  -2.7900  -2.7729
    -2.7621  -2.7512  -2.7443  -2.7299  -2.7279  -2.7116  -2.7060  -2.7010
    -2.6592  -2.6517  -2.6336  -2.6188  -2.6020  -2.5903  -2.5658  -2.5612
    -2.5381  -2.5205  -2.4982  -2.4726  -2.4642  -2.4496  -2.4466  -2.4332
    -2.3907  -2.3835  -2.3661  -2.3535  -2.3210  -2.3056  -2.2733  -2.2630
    -2.2538  -2.2164  -2.2137  -2.1858  -2.1697  -2.1492  -2.1319  -2.1191
    -2.0884  -2.0759  -2.0564  -2.0437  -2.0356  -2.0185  -1.9906  -1.9693
    -1.9533  -1.9439  -1.9406  -1.9259  -1.8961  -1.8725  -1.8650  -1.8369
    -1.8164  -1.7959  -1.7704  -1.7501  -1.7450  -1.7324  -1.7106  -1.6833
    -1.6615  -1.6485  -1.6362  -1.6220  -1.5914  -1.5729  -1.5560  -1.5247
    -1.5128  -1.4949  -1.4897  -1.4663  -1.4407  -1.4215  -1.3952  -1.3811
    -1.3746  -1.3499  -1.3119  -1.2828  -1.2698  -1.2371  -1.2247  -1.2111
    -1.1442  -1.1306  -1.0730  -0.9765  -0.9549  -0.9371  -0.8515  -0.8345
    -0.7942  -0.7397  -0.7034  -0.5033  -0.3613  -0.3210  -0.2906  -0.1862
     0.1355   0.1573   0.1875   0.2259   0.2509   0.2592   0.2769   0.2904
     0.3076   0.3125   0.3376   0.3464   0.3531   0.3579   0.3705   0.3751
     0.3844   0.3875   0.4055   0.4113   0.4185   0.4217   0.4311   0.4426
     0.4435   0.4520   0.4618   0.4657   0.4711   0.4799   0.4811   0.4841
     0.4975   0.5117   0.5145   0.5213   0.5275   0.5318   0.5334   0.5466
     0.5582   0.5668   0.5733   0.5783   0.5813   0.5881   0.5969   0.6026
     0.6120   0.6335   0.6354   0.6372   0.6421   0.6508   0.6567   0.6648
     0.6720   0.6817   0.6847   0.6943   0.7031   0.7039   0.7058   0.7226
     0.7274   0.7398   0.7425   0.7551   0.7575   0.7661   0.7726   0.7763
     0.7786   0.7964   0.8118   0.8208   0.8360   0.8420   0.8601   0.8646
     0.8724   0.8846   0.8890   0.8948   0.8977   0.9092   0.9180   0.9233
     0.9329   0.9395   0.9476   0.9712   0.9722   1.0290   1.0313   1.0439
     1.1541   1.1877   1.6318   1.7102   1.7134   1.7160   1.7352   1.7452
     1.7659   1.8358   1.8796   1.8979   1.9220   1.9558   1.9647   1.9807
     2.0080   2.0267   2.0522   2.0627   2.0756   2.0770   2.0800   2.1379
     2.1538   2.1753   2.1865   2.2015   2.2249   2.2417   2.2567   2.2683
     2.2798   2.2845   2.3101   2.3153   2.3185   2.3300   2.3516   2.3555
     2.3637   2.3793   2.3875   2.4112   2.4240   2.4283   2.4558   2.4760
     2.4844   2.5174   2.5213   2.5227   2.5514   2.5647   2.5794   2.6114
     2.6165   2.6330   2.6486   2.6620   2.7058   2.7390   2.7542   2.7995
     2.8251   2.8538   2.8786   2.9011   2.9415   3.2848   3.3196   3.4789
     3.5917   3.8207   3.8829   3.9653   4.0280   4.0490   4.1097   4.5167
     4.6652   4.7890   4.9163   4.9291   4.9730   5.0780   5.4337   6.3378
     6.3823   6.5312   6.6029   6.6988   6.7587   6.8450   6.9036   6.9953
     7.0219   7.1018   7.1555   7.1926   7.3139   7.3456   7.3898   7.4523
     7.5504   7.5848   7.6324   7.6883   7.7153   7.7508   7.8223   7.8549
     7.8882   7.9448   7.9759   7.9949   8.0312   8.0555   8.0888   8.1301
     8.1508   8.1628   8.1927   8.2219   8.2646   8.2821   8.3082   8.3375
     8.3649   8.3794   8.4340   8.4751   8.4867   8.5067   8.5389   8.5442
     8.5595   8.5710   8.6009   8.6081   8.6314   8.6497   8.6772   8.6884
     8.7332   8.7455   8.7877   8.8104   8.8681   8.8702   8.9467

     the Fermi energy is     1.6007 ev

!    total energy              =   -7398.02984081 Ry
     estimated scf accuracy    <       0.00000084 Ry
     smearing contrib. (-TS)   =      -0.01672452 Ry
     internal energy E=F+TS    =   -7398.01311628 Ry

     The total energy is F=E-TS. E is the sum of the following terms:
     one-electron contribution =  -91631.36556711 Ry
     hartree contribution      =   46463.97583842 Ry
     xc contribution           =   -2260.28247222 Ry
     ewald contribution        =   40031.49154169 Ry
     Dispersion Correction     =      -1.83251034 Ry
     electric field correction =       0.00005327 Ry

     total magnetization       =    80.12 Bohr mag/cell
     absolute magnetization    =    81.65 Bohr mag/cell

     convergence has been achieved in  69 iterations

     negative rho (up, down):  9.266E-04 5.469E-04

     Forces acting on atoms (cartesian axes, Ry/au):

     atom    1 type  2   force =     0.00004728   -0.00062791    0.00005217
     atom    2 type  1   force =    -0.00005673    0.00044213   -0.00052558
     atom    3 type  1   force =    -0.00015329   -0.00025000   -0.00020850
     atom    4 type  1   force =     0.00007337   -0.00035422    0.00054962
     atom    5 type  1   force =     0.00019874   -0.00039309   -0.00041088
     atom    6 type  1   force =     0.00032888    0.00052334    0.00014674
     atom    7 type  1   force =     0.00040489    0.00031897   -0.00069893
     atom    8 type  1   force =     0.00005239    0.00066536   -0.00002638
     atom    9 type  1   force =     0.00007275    0.00056635   -0.00024344
     atom   10 type  1   force =     0.00035905    0.00008384    0.00014653
     atom   11 type  1   force =     0.00006683    0.00012803   -0.00004440
     atom   12 type  1   force =     0.00017794   -0.00029329   -0.00020073
     atom   13 type  3   force =    -0.00052877   -0.00029382    0.00002272
     atom   14 type  3   force =    -0.00013109   -0.00016878    0.00036692
     atom   15 type  3   force =    -0.00004438   -0.00006504   -0.00021454
     atom   16 type  3   force =     0.00022140    0.00033639   -0.00007507
     atom   17 type  4   force =    -0.00015658   -0.00009342    0.00032225
     atom   18 type  4   force =    -0.00001755    0.00060830    0.00062426
     atom   19 type  4   force =     0.00022951    0.00084326   -0.00000056
     atom   20 type  4   force =    -0.00045982   -0.00024820   -0.00016694
     atom   21 type  4   force =    -0.00009389    0.00014057    0.00002966
     atom   22 type  4   force =     0.00020729    0.00028599   -0.00059019
     atom   23 type  4   force =     0.00006162   -0.00008696   -0.00023863
     atom   24 type  4   force =     0.00014412    0.00053569   -0.00032713
     atom   25 type  4   force =    -0.00008088    0.00045168   -0.00050893
     atom   26 type  4   force =     0.00026498   -0.00009878    0.00010767
     atom   27 type  4   force =     0.00010125   -0.00033346    0.00008451
     atom   28 type  4   force =    -0.00011956    0.00031822    0.00021133
     atom   29 type  4   force =    -0.00015034   -0.00020337    0.00009902
     atom   30 type  4   force =    -0.00078524   -0.00047335   -0.00040512
     atom   31 type  4   force =    -0.00002978   -0.00040518   -0.00008359
     atom   32 type  4   force =     0.00005541    0.00032114    0.00019186
     atom   33 type  3   force =    -0.00015154    0.00004397    0.00015325
     atom   34 type  3   force =    -0.00021837   -0.00022388   -0.00006227
     atom   35 type  3   force =    -0.00021532    0.00066187    0.00043035
     atom   36 type  3   force =    -0.00004170   -0.00019187   -0.00006387
     atom   37 type  4   force =    -0.00036591    0.00038542    0.00033692
     atom   38 type  4   force =     0.00015807    0.00046438    0.00026119
     atom   39 type  4   force =    -0.00019302    0.00009424   -0.00038716
     atom   40 type  4   force =    -0.00013835   -0.00025665   -0.00005806
     atom   41 type  4   force =    -0.00010401    0.00024315   -0.00007411
     atom   42 type  4   force =    -0.00013952    0.00070836   -0.00027521
     atom   43 type  4   force =     0.00022902    0.00001262   -0.00019168
     atom   44 type  4   force =     0.00054906    0.00010095    0.00004256
     atom   45 type  4   force =    -0.00018584    0.00027991    0.00047360
     atom   46 type  4   force =     0.00032063    0.00022633   -0.00007388
     atom   47 type  4   force =     0.00001926    0.00028815    0.00016304
     atom   48 type  4   force =    -0.00019611    0.00007470    0.00016774
     atom   49 type  4   force =    -0.00007352    0.00054996   -0.00020473
     atom   50 type  4   force =     0.00021931   -0.00005271   -0.00026606
     atom   51 type  4   force =    -0.00019905    0.00016286   -0.00017246
     atom   52 type  4   force =    -0.00038980   -0.00010635    0.00002005
     atom   53 type  2   force =     0.00219138   -0.00379883    0.00530600
     atom   54 type  1   force =     0.00501676   -0.00203438    0.00355358
     atom   55 type  1   force =     0.00736820   -0.00379666    0.00253034
     atom   56 type  1   force =    -0.00186965    0.01003963    0.00570849
     atom   57 type  1   force =     0.00031165    0.02291663    0.01442877
     atom   58 type  1   force =     0.00222641   -0.00315304   -0.00176694
     atom   59 type  1   force =     0.00135912   -0.00825585    0.00019275
     atom   60 type  1   force =    -0.00511634   -0.00172478    0.00442498
     atom   61 type  1   force =    -0.00120189   -0.00086781    0.00632072
     atom   62 type  1   force =    -0.00429034    0.00810477    0.00558367
     atom   63 type  1   force =    -0.01128634    0.02579082    0.01838178
     atom   64 type  1   force =    -0.00209499    0.00110603    0.00100353
     atom   65 type  3   force =     0.04607131   -0.11391599   -0.01081965
     atom   66 type  3   force =    -0.00013193   -0.00409489    0.00347093
     atom   67 type  3   force =    -0.03915128    0.12653958    0.01405102
     atom   68 type  3   force =     0.06278376   -0.00170487   -0.00345432
     atom   69 type  4   force =     0.01378387   -0.01824370    0.00378129
     atom   70 type  4   force =    -0.00092701    0.00288944   -0.00074773
     atom   71 type  4   force =    -0.00164692    0.00318953   -0.00589448
     atom   72 type  4   force =     0.00405661    0.00180053   -0.00051767
     atom   73 type  4   force =     0.00093436   -0.01140353    0.00301615
     atom   74 type  4   force =     0.00121515   -0.00089371   -0.00103513
     atom   75 type  4   force =    -0.00038672    0.01312766    0.00401785
     atom   76 type  4   force =     0.00827592    0.00528093    0.00929074
     atom   77 type  4   force =     0.00707923   -0.00257871    0.00163079
     atom   78 type  4   force =     0.04396739   -0.14229120   -0.00520882
     atom   79 type  4   force =     0.00177982    0.00196350    0.00141110
     atom   80 type  4   force =    -0.00007466    0.00222606   -0.00177534
     atom   81 type  4   force =     0.06712529    0.00050456   -0.00601967
     atom   82 type  4   force =     0.00058403    0.00111811   -0.00108033
     atom   83 type  4   force =    -0.03921589    0.13483211    0.00273728
     atom   84 type  4   force =    -0.00291155   -0.01101006   -0.00403092
     atom   85 type  3   force =     0.03998879   -0.12004250   -0.01843988
     atom   86 type  3   force =    -0.06274189   -0.00169746    0.00695847
     atom   87 type  3   force =    -0.04489049    0.12580406    0.01819174
     atom   88 type  3   force =    -0.00175460    0.00003804    0.00257527
     atom   89 type  4   force =     0.00904008   -0.01539896    0.00413925
     atom   90 type  4   force =    -0.00474688    0.00146629    0.00074692
     atom   91 type  4   force =    -0.00887707    0.00815095   -0.00647054
     atom   92 type  4   force =     0.00009952    0.00010786   -0.00043807
     atom   93 type  4   force =    -0.00171155   -0.00830828    0.00754893
     atom   94 type  4   force =    -0.00488461    0.00088763    0.00068637
     atom   95 type  4   force =    -0.00556149    0.01342790    0.00795736
     atom   96 type  4   force =     0.00410459    0.00521842    0.00967361
     atom   97 type  4   force =     0.00004859    0.00045582    0.00071085
     atom   98 type  4   force =     0.04040923   -0.14161090   -0.00479081
     atom   99 type  4   force =    -0.06676552    0.00006098    0.00640985
     atom  100 type  4   force =    -0.00190432    0.00324858   -0.00260489
     atom  101 type  4   force =     0.00018602    0.00093890   -0.00040967
     atom  102 type  4   force =    -0.00626710    0.00424258   -0.00070637
     atom  103 type  4   force =    -0.04025282    0.13335976    0.00433674
     atom  104 type  4   force =    -0.00700695   -0.00990280   -0.00513972
     atom  105 type  2   force =     0.00416558   -0.00661018   -0.01848652
     atom  106 type  1   force =     0.02817533    0.01426843    0.01174039
     atom  107 type  1   force =     0.00866693   -0.00621319   -0.01435536
     atom  108 type  1   force =    -0.02831489    0.02163693    0.01878448
     atom  109 type  1   force =     0.00491000    0.01621961    0.00939045
     atom  110 type  1   force =    -0.00248920   -0.00886845   -0.00691614
     atom  111 type  1   force =    -0.00088733   -0.00944295   -0.01175867
     atom  112 type  1   force =     0.02900920    0.01743727    0.01140366
     atom  113 type  1   force =    -0.00066919   -0.00500087   -0.01418227
     atom  114 type  1   force =    -0.02960129    0.02065914    0.01861307
     atom  115 type  1   force =    -0.00705701    0.01858834    0.01204243
     atom  116 type  1   force =    -0.00559334   -0.00434923   -0.00304235
     atom  117 type  3   force =     0.01424895   -0.17392375   -0.10879006
     atom  118 type  3   force =     0.00514008   -0.00849136   -0.01266504
     atom  119 type  3   force =    -0.04466885    0.12491899   -0.00187426
     atom  120 type  3   force =     0.09508003   -0.04105491   -0.07971684
     atom  121 type  4   force =     0.00615811   -0.01701668    0.03714484
     atom  122 type  4   force =    -0.00339098    0.00359367    0.00454716
     atom  123 type  4   force =    -0.00090421    0.00252146   -0.00276597
     atom  124 type  4   force =     0.00845007    0.00223119    0.02688005
     atom  125 type  4   force =     0.00991533   -0.01684595    0.01610751
     atom  126 type  4   force =    -0.00744361    0.00097204   -0.00308145
     atom  127 type  4   force =     0.00396216    0.00967094    0.00042627
     atom  128 type  4   force =    -0.00065008   -0.00103055    0.03035968
     atom  129 type  4   force =    -0.00773333    0.02538967    0.00123681
     atom  130 type  4   force =     0.04338792   -0.14584306   -0.00192158
     atom  131 type  4   force =    -0.01727185   -0.00041668    0.00290764
     atom  132 type  4   force =     0.00348132    0.00267530    0.00198993
     atom  133 type  4   force =     0.06963499    0.00366750   -0.00192214
     atom  134 type  4   force =     0.00100149    0.00371931    0.00270297
     atom  135 type  4   force =    -0.02748604    0.17212832    0.00612193
     atom  136 type  4   force =     0.01947533   -0.00861024    0.00405433
     atom  137 type  3   force =     0.00909773   -0.16688582   -0.09425226
     atom  138 type  3   force =    -0.06464186   -0.00210710   -0.00495301
     atom  139 type  3   force =    -0.04872664    0.11826008    0.00153798
     atom  140 type  3   force =     0.03144710   -0.04323582   -0.07368667
     atom  141 type  4   force =     0.00472239   -0.01323532    0.03203575
     atom  142 type  4   force =    -0.00539828   -0.00039646    0.00440368
     atom  143 type  4   force =    -0.00826196    0.00802175   -0.00341298
     atom  144 type  4   force =     0.00379596    0.00143565    0.02748135
     atom  145 type  4   force =     0.00694980   -0.01293926    0.03253238
     atom  146 type  4   force =    -0.00874205   -0.00178237   -0.00305962
     atom  147 type  4   force =     0.00028669    0.00985411    0.00258531
     atom  148 type  4   force =    -0.00794702    0.00128183    0.02927653
     atom  149 type  4   force =    -0.01322855    0.02929472    0.00056460
     atom  150 type  4   force =     0.03972490   -0.13819950   -0.00142494
     atom  151 type  4   force =    -0.08602137   -0.00174808    0.00920585
     atom  152 type  4   force =     0.00134708    0.00390583    0.00141216
     atom  153 type  4   force =    -0.00361657    0.00085770    0.00295838
     atom  154 type  4   force =    -0.00586472    0.00607257    0.00129589
     atom  155 type  4   force =    -0.02788059    0.16631207    0.00492100
     atom  156 type  4   force =     0.01041535   -0.00972581   -0.00131354
     atom  157 type  4   force =    -0.00716712    0.00588398   -0.00194140
     atom  158 type  5   force =     0.00752871   -0.00525935    0.00122751

     Total force =     0.671312     Total SCF correction =     0.004010
 
     init_run     :      7.08s CPU      7.80s WALL (       1 calls)
     electrons    :    823.12s CPU    862.23s WALL (       1 calls)
     forces       :      3.51s CPU      3.80s WALL (       1 calls)
     force_london :      0.09s CPU      0.09s WALL (       1 calls)

     Called by init_run:
     wfcinit      :      4.11s CPU      4.32s WALL (       1 calls)
     potinit      :      0.63s CPU      0.81s WALL (       1 calls)
     hinit0       :      1.40s CPU      1.53s WALL (       1 calls)

     Called by electrons:
     c_bands      :    646.25s CPU    668.81s WALL (      69 calls)
     sum_band     :    113.90s CPU    123.05s WALL (      69 calls)
     v_of_rho     :     12.04s CPU     12.81s WALL (      70 calls)
     newd         :     34.46s CPU     41.27s WALL (      70 calls)
     mix_rho      :     16.09s CPU     16.17s WALL (      69 calls)
     energy_londo :      0.08s CPU      0.08s WALL (       1 calls)

     Called by c_bands:
     init_us_2    :      1.42s CPU      1.48s WALL (     280 calls)
     init_us_2:cp :      1.42s CPU      1.48s WALL (     280 calls)
     regterg      :    633.77s CPU    656.20s WALL (     140 calls)

     Called by *egterg:
     rdiaghg      :    181.00s CPU    191.87s WALL (     604 calls)
     h_psi        :    237.97s CPU    243.21s WALL (     606 calls)
     s_psi        :     37.87s CPU     37.88s WALL (     606 calls)
     g_psi        :      0.28s CPU      0.28s WALL (     464 calls)

     Called by h_psi:
     h_psi:calbec :     69.68s CPU     74.06s WALL (     606 calls)
     vloc_psi     :    129.06s CPU    129.54s WALL (     606 calls)
     add_vuspsi   :     38.79s CPU     39.17s WALL (     606 calls)

     General routines
     calbec       :    103.61s CPU    109.97s WALL (     752 calls)
     fft          :     23.81s CPU     24.89s WALL (    1273 calls)
     ffts         :     10.27s CPU     10.28s WALL (    8573 calls)
     fftw         :    150.22s CPU    150.76s WALL (  233942 calls)
     interpolate  :      1.02s CPU      1.08s WALL (     140 calls)
 
     Parallel routines
 
     PWSCF        :  13m55.63s CPU  14m36.08s WALL

 
   This run was terminated on:  22:20:37  19Nov2025            

=------------------------------------------------------------------------------=
   JOB DONE.
=------------------------------------------------------------------------------=
