
     Program PWSCF v.7.2 starts on 19Nov2025 at 19:29:33 

     This program is part of the open-source Quantum ESPRESSO suite
     for quantum simulation of materials; please cite
         "P. Giannozzi et al., J. Phys.:Condens. Matter 21 395502 (2009);
         "P. Giannozzi et al., J. Phys.:Condens. Matter 29 465901 (2017);
         "P. Giannozzi et al., J. Chem. Phys. 152 154105 (2020);
          URL http://www.quantum-espresso.org", 
     in publications or presentations arising from this work. More details at
     http://www.quantum-espresso.org/quote

     Parallel version (MPI), running on    64 processors

     MPI processes distributed on     4 nodes
     463477 MiB available memory on the printing compute node when the environment starts
 
     Reading input from PWINPUT_atm157_xp

     Current dimensions of program PWSCF are:
     Max number of different atomic species (ntypx) = 10
     Max number of k-points (npk) =  40000
     Max angular momentum in pseudopotentials (lmaxx) =  4
     Presently no symmetry can be used with electric field

     file Ni.pbe-n-rrkjus_psl.1.0.0.UPF: wavefunction(s)  3D renormalized
     file Mn.pbe-spn-rrkjus_psl.0.3.1.UPF: wavefunction(s)  3D renormalized
     file O.pbe-rrkjus.UPF: wavefunction(s)  2S renormalized
     file H.pbe-rrkjus.UPF: wavefunction(s)  1S renormalized

     gamma-point specific algorithms are used
 
     R & G space division:  proc/nbgrp/npool/nimage =      64
     Subspace diagonalization in iterative solution of the eigenvalue problem:
     one sub-group per band group will be used
     custom distributed-memory algorithm (size of sub-group:  6*  6 procs)

 
     Parallelization info
     --------------------
     sticks:   dense  smooth     PW     G-vecs:    dense   smooth      PW
     Min         208      82     20                59912    15118    1876
     Max         210      84     22                59974    15196    1926
     Sum       13399    5355   1345              3836275   970529  121367
 
     Using Slab Decomposition
 


     bravais-lattice index     =            0
     lattice parameter (alat)  =      17.7004  a.u.
     unit-cell volume          =   20319.7251 (a.u.)^3
     number of atoms/cell      =          158
     number of atomic types    =            5
     number of electrons       =      1078.00
     number of Kohn-Sham states=          647
     kinetic-energy cutoff     =      50.0000  Ry
     charge density cutoff     =     500.0000  Ry
     scf convergence threshold =      1.0E-06
     mixing beta               =       0.1000
     number of iterations used =            8  local-TF  mixing
     Exchange-correlation=  SLA  PW   PBE  PBE
                           (   1   4   3   4   0   0   0)

     celldm(1)=  17.700384  celldm(2)=   0.000000  celldm(3)=   0.000000
     celldm(4)=   0.000000  celldm(5)=   0.000000  celldm(6)=   0.000000

     crystal axes: (cart. coord. in units of alat)
               a(1) = (   1.000000   0.000000   0.000000 )  
               a(2) = (   0.000000   1.075730   0.000000 )  
               a(3) = (   0.000000   0.000000   3.406172 )  

     reciprocal axes: (cart. coord. in units 2 pi/alat)
               b(1) = (  1.000000  0.000000  0.000000 )  
               b(2) = (  0.000000  0.929602  0.000000 )  
               b(3) = (  0.000000  0.000000  0.293585 )  


     PseudoPot. # 1 for Ni read from file:
     ~/PSEUDO/Ni.pbe-n-rrkjus_psl.1.0.0.UPF
     MD5 check sum: Not computed, couldn't open file
     Pseudo is Ultrasoft + core correction, Zval = 10.0
     Generated using "atomic" code by A. Dal Corso  v.5.1.2
     Using radial grid of 1195 points,  6 beta functions with: 
                l(1) =   0
                l(2) =   0
                l(3) =   1
                l(4) =   1
                l(5) =   2
                l(6) =   2
     Q(r) pseudized with 0 coefficients 


     PseudoPot. # 2 for Mn read from file:
     ~/PSEUDO/Mn.pbe-spn-rrkjus_psl.0.3.1.UPF
     MD5 check sum: Not computed, couldn't open file
     Pseudo is Ultrasoft + core correction, Zval = 15.0
     Generated using &quot;atomic&quot; code by A. Dal Corso  v.6.2.2
     Using radial grid of 1187 points,  6 beta functions with: 
                l(1) =   0
                l(2) =   0
                l(3) =   1
                l(4) =   1
                l(5) =   2
                l(6) =   2
     Q(r) pseudized with 0 coefficients 


     PseudoPot. # 3 for P  read from file:
     ~/PSEUDO/P.pbe-n-rrkjus_psl.1.0.0.UPF
     MD5 check sum: Not computed, couldn't open file
     Pseudo is Ultrasoft + core correction, Zval =  5.0
     Generated using "atomic" code by A. Dal Corso  v.5.1
     Using radial grid of 1147 points,  6 beta functions with: 
                l(1) =   0
                l(2) =   0
                l(3) =   1
                l(4) =   1
                l(5) =   2
                l(6) =   2
     Q(r) pseudized with 0 coefficients 


     PseudoPot. # 4 for O  read from file:
     ~/PSEUDO/O.pbe-rrkjus.UPF
     MD5 check sum: Not computed, couldn't open file
     Pseudo is Ultrasoft, Zval =  6.0
     Generated by new atomic code, or converted to UPF format
     Using radial grid of 1269 points,  4 beta functions with: 
                l(1) =   0
                l(2) =   0
                l(3) =   1
                l(4) =   1
     Q(r) pseudized with 0 coefficients 


     PseudoPot. # 5 for H  read from file:
     ~/PSEUDO/H.pbe-rrkjus.UPF
     MD5 check sum: Not computed, couldn't open file
     Pseudo is Ultrasoft, Zval =  1.0
     Generated by new atomic code, or converted to UPF format
     Using radial grid of 1061 points,  2 beta functions with: 
                l(1) =   0
                l(2) =   0
     Q(r) pseudized with 0 coefficients 


     atomic species   valence    mass     pseudopotential
     Ni               10.00    58.69300     Ni( 1.00)
     Mn               15.00    54.93800     Mn( 1.00)
     P                 5.00    30.97300     P ( 1.00)
     O                 6.00    15.99900     O ( 1.00)
     H                 1.00     1.00790     H ( 1.00)

     Starting magnetic structure 
     atomic species   magnetization
     Ni              1.000
     Mn              1.000
     P               1.000
     O               1.000
     H               0.000

     No symmetry found



   Cartesian axes

     site n.     atom                  positions (alat units)
         1        Mn     tau(   1) = (   0.2514725   0.8403621   1.6922649  )
         2        Ni     tau(   2) = (   0.4981613   0.7732174   1.3698899  )
         3        Ni     tau(   3) = (   0.0016400   0.2965188   1.6763153  )
         4        Ni     tau(   4) = (   0.2604917   0.2384823   1.3674854  )
         5        Ni     tau(   5) = (   0.9976394   1.0763275   1.5332471  )
         6        Ni     tau(   6) = (   0.2562433   0.5373049   1.5311374  )
         7        Ni     tau(   7) = (   0.7534975   0.8335100   1.6761660  )
         8        Ni     tau(   8) = (   0.9915982   0.7733775   1.3721323  )
         9        Ni     tau(   9) = (   0.5140351   0.3046720   1.7065963  )
        10        Ni     tau(  10) = (   0.7602191   0.2367081   1.3680604  )
        11        Ni     tau(  11) = (   0.5007003   1.0777795   1.5342653  )
        12        Ni     tau(  12) = (   0.7546321   0.5336828   1.5343376  )
        13        P      tau(  13) = (   0.2114324   0.9730718   1.3787149  )
        14        P      tau(  14) = (   0.4677209   0.6466717   1.6883849  )
        15        P      tau(  15) = (   0.2879347   0.1165823   1.6895124  )
        16        P      tau(  16) = (   0.0433043   0.4322061   1.3717573  )
        17        O      tau(  17) = (   0.1354319   0.9024246   1.5162361  )
        18        O      tau(  18) = (   0.3901476   0.7094618   1.5447118  )
        19        O      tau(  19) = (   0.3653522   0.1703016   1.5451332  )
        20        O      tau(  20) = (   0.1220603   0.3621553   1.5078476  )
        21        O      tau(  21) = (   0.1483602   0.8811988   1.2566198  )
        22        O      tau(  22) = (   0.4071019   0.7461546   1.8042590  )
        23        O      tau(  23) = (   0.3454364   0.2138238   1.8062783  )
        24        O      tau(  24) = (   0.1034528   0.3447440   1.2451229  )
        25        O      tau(  25) = (   0.1022912   0.5877007   1.3760419  )
        26        O      tau(  26) = (   0.3424242   1.0329279   1.6966988  )
        27        O      tau(  27) = (   0.3794667   0.4262365   1.3824156  )
        28        O      tau(  28) = (   0.1224475   0.1157300   1.6781663  )
        29        O      tau(  29) = (   0.1306686   0.6530965   1.6813924  )
        30        O      tau(  30) = (   0.4060763   0.4924401   1.6874378  )
        31        O      tau(  31) = (   0.1505415   0.0512368   1.3772435  )
        32        O      tau(  32) = (   0.3750906   0.9649156   1.3868523  )
        33        P      tau(  33) = (   0.7107969   0.9709559   1.3722571  )
        34        P      tau(  34) = (   0.9650128   0.6455956   1.6946891  )
        35        P      tau(  35) = (   0.7894270   0.1050360   1.6939332  )
        36        P      tau(  36) = (   0.5438507   0.4295248   1.3733739  )
        37        O      tau(  37) = (   0.6327050   0.9000346   1.5082036  )
        38        O      tau(  38) = (   0.8878570   0.7057763   1.5484453  )
        39        O      tau(  39) = (   0.8648281   0.1699114   1.5490065  )
        40        O      tau(  40) = (   0.6200951   0.3574703   1.5092594  )
        41        O      tau(  41) = (   0.6501234   0.8827865   1.2460499  )
        42        O      tau(  42) = (   0.9049968   0.7432969   1.8094969  )
        43        O      tau(  43) = (   0.8531982   0.1989439   1.8109223  )
        44        O      tau(  44) = (   0.6040842   0.3418719   1.2462640  )
        45        O      tau(  45) = (   0.6050226   0.5845474   1.3766490  )
        46        O      tau(  46) = (   0.8468877   1.0236478   1.6902311  )
        47        O      tau(  47) = (   0.8794716   0.4244841   1.3846896  )
        48        O      tau(  48) = (   0.6245466   0.1082359   1.6834857  )
        49        O      tau(  49) = (   0.6319549   0.6522194   1.6764679  )
        50        O      tau(  50) = (   0.9116309   0.4875625   1.6930196  )
        51        O      tau(  51) = (   0.6514964   0.0501678   1.3760815  )
        52        O      tau(  52) = (   0.8747806   0.9631357   1.3846982  )
        53        Mn     tau(  53) = (   0.2404744   0.8246335   1.0701417  )
        54        Ni     tau(  54) = (   0.4968126   0.7601755   0.7454373  )
        55        Ni     tau(  55) = (   0.0066150   0.2811828   1.0628866  )
        56        Ni     tau(  56) = (   0.2585722   0.2230943   0.7421070  )
        57        Ni     tau(  57) = (   0.9987350   1.0571496   0.9014992  )
        58        Ni     tau(  58) = (   0.2517397   0.5205596   0.9040596  )
        59        Ni     tau(  59) = (   0.7451645   0.8212628   1.0648168  )
        60        Ni     tau(  60) = (   0.9939181   0.7613889   0.7462324  )
        61        Ni     tau(  61) = (   0.5111533   0.2799173   1.0618053  )
        62        Ni     tau(  62) = (   0.7606326   0.2194352   0.7418547  )
        63        Ni     tau(  63) = (   0.5024065   1.0563218   0.8999416  )
        64        Ni     tau(  64) = (   0.7529977   0.5192985   0.9024691  )
        65        P      tau(  65) = (   0.2092944   0.9606182   0.7524883  )
        66        P      tau(  66) = (   0.4655727   0.6234620   1.0595283  )
        67        P      tau(  67) = (   0.2910699   0.0902448   1.0573821  )
        68        P      tau(  68) = (   0.0396216   0.4163480   0.7471080  )
        69        O      tau(  69) = (   0.1294378   0.8888345   0.8859300  )
        70        O      tau(  70) = (   0.3874505   0.6929859   0.9232915  )
        71        O      tau(  71) = (   0.3702540   0.1589885   0.9209891  )
        72        O      tau(  72) = (   0.1184398   0.3458043   0.8831565  )
        73        O      tau(  73) = (   0.1451572   0.8725966   0.6282341  )
        74        O      tau(  74) = (   0.4048762   0.7120670   1.1852426  )
        75        O      tau(  75) = (   0.3523506   0.1775664   1.1834175  )
        76        O      tau(  76) = (   0.1017610   0.3285569   0.6213347  )
        77        O      tau(  77) = (   0.0975396   0.5724373   0.7511996  )
        78        O      tau(  78) = (   0.3483552   1.0190030   1.0599597  )
        79        O      tau(  79) = (   0.3784305   0.4100203   0.7560991  )
        80        O      tau(  80) = (   0.1268237   0.0943029   1.0477175  )
        81        O      tau(  81) = (   0.1212267   0.6299255   1.0507023  )
        82        O      tau(  82) = (   0.4053315   0.4684472   1.0569297  )
        83        O      tau(  83) = (   0.1536621   0.0322003   0.7496532  )
        84        O      tau(  84) = (   0.3732349   0.9506802   0.7613277  )
        85        P      tau(  85) = (   0.7119823   0.9571059   0.7496908  )
        86        P      tau(  86) = (   0.9615208   0.6238477   1.0606987  )
        87        P      tau(  87) = (   0.7927710   0.0845145   1.0577754  )
        88        P      tau(  88) = (   0.5426404   0.4144760   0.7459181  )
        89        O      tau(  89) = (   0.6326879   0.8866267   0.8856678  )
        90        O      tau(  90) = (   0.8842163   0.6958291   0.9244764  )
        91        O      tau(  91) = (   0.8716178   0.1552836   0.9216415  )
        92        O      tau(  92) = (   0.6212010   0.3433751   0.8818834  )
        93        O      tau(  93) = (   0.6507714   0.8687427   0.6238197  )
        94        O      tau(  94) = (   0.9014054   0.7139543   1.1859242  )
        95        O      tau(  95) = (   0.8548963   0.1722994   1.1834447  )
        96        O      tau(  96) = (   0.6044469   0.3253792   0.6209553  )
        97        O      tau(  97) = (   0.6024424   0.5698225   0.7490903  )
        98        O      tau(  98) = (   0.8498940   1.0129567   1.0594762  )
        99        O      tau(  99) = (   0.8798395   0.4080910   0.7564148  )
       100        O      tau( 100) = (   0.6286921   0.0909721   1.0472573  )
       101        O      tau( 101) = (   0.6294973   0.6302838   1.0497366  )
       102        O      tau( 102) = (   0.9024339   0.4685397   1.0573501  )
       103        O      tau( 103) = (   0.6547812   0.0286072   0.7473283  )
       104        O      tau( 104) = (   0.8760507   0.9507690   0.7605412  )
       105        Mn     tau( 105) = (   0.2404744   0.8121420   0.4502541  )
       106        Ni     tau( 106) = (   0.4968126   0.7476840   0.1255496  )
       107        Ni     tau( 107) = (   0.0066150   0.2686914   0.4429989  )
       108        Ni     tau( 108) = (   0.2585722   0.2106028   0.1222194  )
       109        Ni     tau( 109) = (   0.9987350   1.0446581   0.2816116  )
       110        Ni     tau( 110) = (   0.2517397   0.5080681   0.2841720  )
       111        Ni     tau( 111) = (   0.7451645   0.8087713   0.4449291  )
       112        Ni     tau( 112) = (   0.9939181   0.7488974   0.1263448  )
       113        Ni     tau( 113) = (   0.5111533   0.2674258   0.4419177  )
       114        Ni     tau( 114) = (   0.7606326   0.2069438   0.1219670  )
       115        Ni     tau( 115) = (   0.5024065   1.0438304   0.2800540  )
       116        Ni     tau( 116) = (   0.7529977   0.5068070   0.2825815  )
       117        P      tau( 117) = (   0.2092944   0.9481267   0.1326007  )
       118        P      tau( 118) = (   0.4655727   0.6109705   0.4396407  )
       119        P      tau( 119) = (   0.2910699   0.0777534   0.4374945  )
       120        P      tau( 120) = (   0.0396216   0.4038566   0.1272204  )
       121        O      tau( 121) = (   0.1294378   0.8763430   0.2660424  )
       122        O      tau( 122) = (   0.3874505   0.6804944   0.3034039  )
       123        O      tau( 123) = (   0.3702540   0.1464970   0.3011014  )
       124        O      tau( 124) = (   0.1184398   0.3333129   0.2632689  )
       125        O      tau( 125) = (   0.1451572   0.8601051   0.0083464  )
       126        O      tau( 126) = (   0.4048762   0.6995756   0.5653550  )
       127        O      tau( 127) = (   0.3523506   0.1650749   0.5635298  )
       128        O      tau( 128) = (   0.1017610   0.3160655   0.0014470  )
       129        O      tau( 129) = (   0.0975396   0.5599458   0.1313120  )
       130        O      tau( 130) = (   0.3483552   1.0065115   0.4400720  )
       131        O      tau( 131) = (   0.3784305   0.3975288   0.1362114  )
       132        O      tau( 132) = (   0.1268237   0.0818115   0.4278298  )
       133        O      tau( 133) = (   0.1212267   0.6174340   0.4308146  )
       134        O      tau( 134) = (   0.4053315   0.4559557   0.4370420  )
       135        O      tau( 135) = (   0.1536621   0.0197088   0.1297656  )
       136        O      tau( 136) = (   0.3732349   0.9381887   0.1414400  )
       137        P      tau( 137) = (   0.7119823   0.9446144   0.1298032  )
       138        P      tau( 138) = (   0.9615208   0.6113562   0.4408111  )
       139        P      tau( 139) = (   0.7927710   0.0720230   0.4378878  )
       140        P      tau( 140) = (   0.5426404   0.4019845   0.1260304  )
       141        O      tau( 141) = (   0.6326879   0.8741353   0.2657802  )
       142        O      tau( 142) = (   0.8842163   0.6833376   0.3045887  )
       143        O      tau( 143) = (   0.8716178   0.1427921   0.3017538  )
       144        O      tau( 144) = (   0.6212010   0.3308836   0.2619957  )
       145        O      tau( 145) = (   0.6507714   0.8562512   0.0039320  )
       146        O      tau( 146) = (   0.9014054   0.7014628   0.5660366  )
       147        O      tau( 147) = (   0.8548963   0.1598079   0.5635571  )
       148        O      tau( 148) = (   0.6044469   0.3128877   0.0010676  )
       149        O      tau( 149) = (   0.6024424   0.5573310   0.1292027  )
       150        O      tau( 150) = (   0.8498940   1.0004653   0.4395886  )
       151        O      tau( 151) = (   0.8798395   0.3955995   0.1365272  )
       152        O      tau( 152) = (   0.6286921   0.0784807   0.4273696  )
       153        O      tau( 153) = (   0.6294973   0.6177923   0.4298489  )
       154        O      tau( 154) = (   0.9024339   0.4560482   0.4374624  )
       155        O      tau( 155) = (   0.6547812   0.0161158   0.1274406  )
       156        O      tau( 156) = (   0.8760507   0.9382775   0.1406535  )
       157        O      tau( 157) = (   0.6259712   0.3860534   1.8440900  )
       158        H      tau( 158) = (   0.7081905   0.3257877   1.8689877  )

     -------------------------------------------------
     Parameters for Dispersion (Grimme-D2) Correction:
     -------------------------------------------------
       atom      VdW radius       C_6     

        Ni         2.952        374.666
        Mn         2.952        374.666
        P          3.222        271.980
        O          2.536         24.284
        H          1.892          4.857

     number of k points=     1  Gaussian smearing, width (Ry)=  0.0100
                       cart. coord. in units 2pi/alat
        k(    1) = (   0.0000000   0.0000000   0.0000000), wk =   1.0000000

     Dense  grid:  1918138 G-vectors     FFT dimensions: ( 125, 135, 432)

     Smooth grid:   485265 G-vectors     FFT dimensions: (  80,  90, 288)

     Estimated max dynamical RAM per process >     320.12 MB

     Estimated total dynamical RAM >      20.01 GB
     Generating pointlists ...
     new r_m :   0.0805 (alat units)  1.4244 (a.u.) for type    1
     new r_m :   0.0869 (alat units)  1.5388 (a.u.) for type    2
     new r_m :   0.0650 (alat units)  1.1499 (a.u.) for type    3
     new r_m :   0.0433 (alat units)  0.7662 (a.u.) for type    4
     new r_m :   0.0433 (alat units)  0.7662 (a.u.) for type    5

     Initial potential from superposition of free atoms

     starting charge    1077.8900, renormalised to    1078.0000

     negative rho (up, down):  1.224E-03 4.542E-04
 
     Adding external electric field

     Computed dipole along edir(3) : 
        Dipole                1.6256 Ry au,          4.1319 Debye
        Dipole field          0.0010 Ry au, 
 
        Potential amp.       -0.1091 Ry
        Total length         54.2615 bohr
 
 
     Adding external electric field

     Computed dipole along edir(3) : 
        Dipole                1.6256 Ry au,          4.1319 Debye
        Dipole field          0.0010 Ry au, 
 
        Potential amp.       -0.1091 Ry
        Total length         54.2615 bohr
 
     Starting wfcs are  812 randomized atomic wfcs

     total cpu time spent up to now is       11.1 secs

     Self-consistent Calculation

     iteration #  1     ecut=    50.00 Ry     beta= 0.10
     Davidson diagonalization with overlap
     ethr =  1.00E-02,  avg # of iterations =  6.0

     negative rho (up, down):  3.527E-01 3.359E-06
 
     Adding external electric field

     Computed dipole along edir(3) : 
        Dipole               -3.1135 Ry au,         -7.9137 Debye
        Dipole field         -0.0019 Ry au, 
 
        Potential amp.        0.2090 Ry
        Total length         54.2615 bohr
 
 
     Adding external electric field

     Computed dipole along edir(3) : 
        Dipole               -3.1135 Ry au,         -7.9137 Debye
        Dipole field         -0.0019 Ry au, 
 
        Potential amp.        0.2090 Ry
        Total length         54.2615 bohr
 

     total cpu time spent up to now is       39.3 secs

     total energy              =   -7181.05122604 Ry
     estimated scf accuracy    <     749.98704992 Ry

     total magnetization       =   216.00 Bohr mag/cell
     absolute magnetization    =   296.82 Bohr mag/cell

     iteration #  2     ecut=    50.00 Ry     beta= 0.10
     Davidson diagonalization with overlap
     ethr =  1.00E-02,  avg # of iterations =  2.0

     negative rho (up, down):  3.212E-01 3.792E-06
 
     Adding external electric field

     Computed dipole along edir(3) : 
        Dipole               -2.3531 Ry au,         -5.9810 Debye
        Dipole field         -0.0015 Ry au, 
 
        Potential amp.        0.1579 Ry
        Total length         54.2615 bohr
 
 
     Adding external electric field

     Computed dipole along edir(3) : 
        Dipole               -2.3531 Ry au,         -5.9810 Debye
        Dipole field         -0.0015 Ry au, 
 
        Potential amp.        0.1579 Ry
        Total length         54.2615 bohr
 

     total cpu time spent up to now is       55.2 secs

     total energy              =   -7265.52728358 Ry
     estimated scf accuracy    <     149.40124688 Ry

     total magnetization       =   142.89 Bohr mag/cell
     absolute magnetization    =   195.46 Bohr mag/cell

     iteration #  3     ecut=    50.00 Ry     beta= 0.10
     Davidson diagonalization with overlap
     ethr =  1.00E-02,  avg # of iterations =  1.5

     negative rho (up, down):  2.749E-01 3.187E-06
 
     Adding external electric field

     Computed dipole along edir(3) : 
        Dipole               -1.9042 Ry au,         -4.8399 Debye
        Dipole field         -0.0012 Ry au, 
 
        Potential amp.        0.1278 Ry
        Total length         54.2615 bohr
 
 
     Adding external electric field

     Computed dipole along edir(3) : 
        Dipole               -1.9042 Ry au,         -4.8399 Debye
        Dipole field         -0.0012 Ry au, 
 
        Potential amp.        0.1278 Ry
        Total length         54.2615 bohr
 

     total cpu time spent up to now is       68.1 secs

     total energy              =   -7299.87571957 Ry
     estimated scf accuracy    <      96.75027919 Ry

     total magnetization       =   120.85 Bohr mag/cell
     absolute magnetization    =   175.73 Bohr mag/cell

     iteration #  4     ecut=    50.00 Ry     beta= 0.10
     Davidson diagonalization with overlap
     ethr =  8.97E-03,  avg # of iterations =  1.5

     negative rho (up, down):  2.019E-01 3.616E-07
 
     Adding external electric field

     Computed dipole along edir(3) : 
        Dipole               -1.9630 Ry au,         -4.9895 Debye
        Dipole field         -0.0012 Ry au, 
 
        Potential amp.        0.1317 Ry
        Total length         54.2615 bohr
 
 
     Adding external electric field

     Computed dipole along edir(3) : 
        Dipole               -1.9630 Ry au,         -4.9895 Debye
        Dipole field         -0.0012 Ry au, 
 
        Potential amp.        0.1317 Ry
        Total length         54.2615 bohr
 

     total cpu time spent up to now is       81.2 secs

     total energy              =   -7332.35010668 Ry
     estimated scf accuracy    <      75.65582482 Ry

     total magnetization       =   103.60 Bohr mag/cell
     absolute magnetization    =   160.40 Bohr mag/cell

     iteration #  5     ecut=    50.00 Ry     beta= 0.10
     Davidson diagonalization with overlap
     ethr =  7.02E-03,  avg # of iterations =  1.5

     negative rho (up, down):  2.797E-03 3.318E-09
 
     Adding external electric field

     Computed dipole along edir(3) : 
        Dipole               -1.3472 Ry au,         -3.4241 Debye
        Dipole field         -0.0008 Ry au, 
 
        Potential amp.        0.0904 Ry
        Total length         54.2615 bohr
 
 
     Adding external electric field

     Computed dipole along edir(3) : 
        Dipole               -1.3472 Ry au,         -3.4241 Debye
        Dipole field         -0.0008 Ry au, 
 
        Potential amp.        0.0904 Ry
        Total length         54.2615 bohr
 

     total cpu time spent up to now is       93.4 secs

     total energy              =   -7388.83201065 Ry
     estimated scf accuracy    <      57.91458541 Ry

     total magnetization       =    88.00 Bohr mag/cell
     absolute magnetization    =   143.76 Bohr mag/cell

     iteration #  6     ecut=    50.00 Ry     beta= 0.10
     Davidson diagonalization with overlap
     ethr =  5.37E-03,  avg # of iterations =  1.5

     negative rho (up, down):  9.875E-06 3.117E-05
 
     Adding external electric field

     Computed dipole along edir(3) : 
        Dipole               -0.9503 Ry au,         -2.4155 Debye
        Dipole field         -0.0006 Ry au, 
 
        Potential amp.        0.0638 Ry
        Total length         54.2615 bohr
 
 
     Adding external electric field

     Computed dipole along edir(3) : 
        Dipole               -0.9503 Ry au,         -2.4155 Debye
        Dipole field         -0.0006 Ry au, 
 
        Potential amp.        0.0638 Ry
        Total length         54.2615 bohr
 

     total cpu time spent up to now is      105.3 secs

     total energy              =   -7395.91333365 Ry
     estimated scf accuracy    <       9.73875899 Ry

     total magnetization       =    79.12 Bohr mag/cell
     absolute magnetization    =   110.32 Bohr mag/cell

     iteration #  7     ecut=    50.00 Ry     beta= 0.10
     Davidson diagonalization with overlap
     ethr =  9.03E-04,  avg # of iterations =  4.5

     negative rho (up, down):  1.041E-05 2.713E-05
 
     Adding external electric field

     Computed dipole along edir(3) : 
        Dipole               -0.9601 Ry au,         -2.4403 Debye
        Dipole field         -0.0006 Ry au, 
 
        Potential amp.        0.0644 Ry
        Total length         54.2615 bohr
 
 
     Adding external electric field

     Computed dipole along edir(3) : 
        Dipole               -0.9601 Ry au,         -2.4403 Debye
        Dipole field         -0.0006 Ry au, 
 
        Potential amp.        0.0644 Ry
        Total length         54.2615 bohr
 

     total cpu time spent up to now is      122.8 secs

     total energy              =   -7397.60527834 Ry
     estimated scf accuracy    <      11.67643776 Ry

     total magnetization       =    71.65 Bohr mag/cell
     absolute magnetization    =    89.04 Bohr mag/cell

     iteration #  8     ecut=    50.00 Ry     beta= 0.10
     Davidson diagonalization with overlap
     ethr =  9.03E-04,  avg # of iterations =  1.0

     negative rho (up, down):  2.094E-05 1.021E-04
 
     Adding external electric field

     Computed dipole along edir(3) : 
        Dipole               -0.7223 Ry au,         -1.8359 Debye
        Dipole field         -0.0004 Ry au, 
 
        Potential amp.        0.0485 Ry
        Total length         54.2615 bohr
 
 
     Adding external electric field

     Computed dipole along edir(3) : 
        Dipole               -0.7223 Ry au,         -1.8359 Debye
        Dipole field         -0.0004 Ry au, 
 
        Potential amp.        0.0485 Ry
        Total length         54.2615 bohr
 

     total cpu time spent up to now is      134.2 secs

     total energy              =   -7397.47388344 Ry
     estimated scf accuracy    <      12.18602517 Ry

     total magnetization       =    71.48 Bohr mag/cell
     absolute magnetization    =    88.80 Bohr mag/cell

     iteration #  9     ecut=    50.00 Ry     beta= 0.10
     Davidson diagonalization with overlap
     ethr =  9.03E-04,  avg # of iterations =  1.5

     negative rho (up, down):  4.253E-05 1.812E-04
 
     Adding external electric field

     Computed dipole along edir(3) : 
        Dipole               -0.6821 Ry au,         -1.7337 Debye
        Dipole field         -0.0004 Ry au, 
 
        Potential amp.        0.0458 Ry
        Total length         54.2615 bohr
 
 
     Adding external electric field

     Computed dipole along edir(3) : 
        Dipole               -0.6821 Ry au,         -1.7337 Debye
        Dipole field         -0.0004 Ry au, 
 
        Potential amp.        0.0458 Ry
        Total length         54.2615 bohr
 

     total cpu time spent up to now is      146.6 secs

     total energy              =   -7397.48828455 Ry
     estimated scf accuracy    <       5.94909155 Ry

     total magnetization       =    72.69 Bohr mag/cell
     absolute magnetization    =    87.53 Bohr mag/cell

     iteration # 10     ecut=    50.00 Ry     beta= 0.10
     Davidson diagonalization with overlap
     ethr =  5.52E-04,  avg # of iterations =  2.0

     negative rho (up, down):  5.483E-05 1.874E-04
 
     Adding external electric field

     Computed dipole along edir(3) : 
        Dipole               -0.6515 Ry au,         -1.6559 Debye
        Dipole field         -0.0004 Ry au, 
 
        Potential amp.        0.0437 Ry
        Total length         54.2615 bohr
 
 
     Adding external electric field

     Computed dipole along edir(3) : 
        Dipole               -0.6515 Ry au,         -1.6559 Debye
        Dipole field         -0.0004 Ry au, 
 
        Potential amp.        0.0437 Ry
        Total length         54.2615 bohr
 

     total cpu time spent up to now is      158.2 secs

     total energy              =   -7397.57122035 Ry
     estimated scf accuracy    <       3.10967708 Ry

     total magnetization       =    76.12 Bohr mag/cell
     absolute magnetization    =    89.16 Bohr mag/cell

     iteration # 11     ecut=    50.00 Ry     beta= 0.10
     Davidson diagonalization with overlap
     ethr =  2.88E-04,  avg # of iterations =  3.5

     negative rho (up, down):  5.246E-05 2.191E-04
 
     Adding external electric field

     Computed dipole along edir(3) : 
        Dipole               -0.6022 Ry au,         -1.5305 Debye
        Dipole field         -0.0004 Ry au, 
 
        Potential amp.        0.0404 Ry
        Total length         54.2615 bohr
 
 
     Adding external electric field

     Computed dipole along edir(3) : 
        Dipole               -0.6022 Ry au,         -1.5305 Debye
        Dipole field         -0.0004 Ry au, 
 
        Potential amp.        0.0404 Ry
        Total length         54.2615 bohr
 

     total cpu time spent up to now is      172.0 secs

     total energy              =   -7397.64068128 Ry
     estimated scf accuracy    <       1.26087558 Ry

     total magnetization       =    78.79 Bohr mag/cell
     absolute magnetization    =    90.57 Bohr mag/cell

     iteration # 12     ecut=    50.00 Ry     beta= 0.10
     Davidson diagonalization with overlap
     c_bands:  2 eigenvalues not converged
     ethr =  1.17E-04,  avg # of iterations = 21.0

     negative rho (up, down):  4.880E-05 1.558E-04
 
     Adding external electric field

     Computed dipole along edir(3) : 
        Dipole               -0.4707 Ry au,         -1.1965 Debye
        Dipole field         -0.0003 Ry au, 
 
        Potential amp.        0.0316 Ry
        Total length         54.2615 bohr
 
 
     Adding external electric field

     Computed dipole along edir(3) : 
        Dipole               -0.4707 Ry au,         -1.1965 Debye
        Dipole field         -0.0003 Ry au, 
 
        Potential amp.        0.0316 Ry
        Total length         54.2615 bohr
 

     total cpu time spent up to now is      204.9 secs

     total energy              =   -7397.81137965 Ry
     estimated scf accuracy    <       0.97474186 Ry

     total magnetization       =    79.33 Bohr mag/cell
     absolute magnetization    =    89.38 Bohr mag/cell

     iteration # 13     ecut=    50.00 Ry     beta= 0.10
     Davidson diagonalization with overlap
     ethr =  9.04E-05,  avg # of iterations =  1.5

     negative rho (up, down):  3.186E-05 1.264E-04
 
     Adding external electric field

     Computed dipole along edir(3) : 
        Dipole               -0.4928 Ry au,         -1.2527 Debye
        Dipole field         -0.0003 Ry au, 
 
        Potential amp.        0.0331 Ry
        Total length         54.2615 bohr
 
 
     Adding external electric field

     Computed dipole along edir(3) : 
        Dipole               -0.4928 Ry au,         -1.2527 Debye
        Dipole field         -0.0003 Ry au, 
 
        Potential amp.        0.0331 Ry
        Total length         54.2615 bohr
 

     total cpu time spent up to now is      216.9 secs

     total energy              =   -7397.80913359 Ry
     estimated scf accuracy    <       1.16298326 Ry

     total magnetization       =    81.25 Bohr mag/cell
     absolute magnetization    =    89.04 Bohr mag/cell

     iteration # 14     ecut=    50.00 Ry     beta= 0.10
     Davidson diagonalization with overlap
     ethr =  9.04E-05,  avg # of iterations =  1.0

     negative rho (up, down):  3.176E-06 1.356E-05
 
     Adding external electric field

     Computed dipole along edir(3) : 
        Dipole               -0.4224 Ry au,         -1.0736 Debye
        Dipole field         -0.0003 Ry au, 
 
        Potential amp.        0.0283 Ry
        Total length         54.2615 bohr
 
 
     Adding external electric field

     Computed dipole along edir(3) : 
        Dipole               -0.4224 Ry au,         -1.0736 Debye
        Dipole field         -0.0003 Ry au, 
 
        Potential amp.        0.0283 Ry
        Total length         54.2615 bohr
 

     total cpu time spent up to now is      228.2 secs

     total energy              =   -7397.92725669 Ry
     estimated scf accuracy    <       0.81404470 Ry

     total magnetization       =    80.29 Bohr mag/cell
     absolute magnetization    =    88.00 Bohr mag/cell

     iteration # 15     ecut=    50.00 Ry     beta= 0.10
     Davidson diagonalization with overlap
     ethr =  7.55E-05,  avg # of iterations =  1.0

     negative rho (up, down):  5.213E-08 4.768E-05
 
     Adding external electric field

     Computed dipole along edir(3) : 
        Dipole               -0.4972 Ry au,         -1.2638 Debye
        Dipole field         -0.0003 Ry au, 
 
        Potential amp.        0.0334 Ry
        Total length         54.2615 bohr
 
 
     Adding external electric field

     Computed dipole along edir(3) : 
        Dipole               -0.4972 Ry au,         -1.2638 Debye
        Dipole field         -0.0003 Ry au, 
 
        Potential amp.        0.0334 Ry
        Total length         54.2615 bohr
 

     total cpu time spent up to now is      239.7 secs

     total energy              =   -7397.97221809 Ry
     estimated scf accuracy    <       1.25007080 Ry

     total magnetization       =    79.79 Bohr mag/cell
     absolute magnetization    =    85.03 Bohr mag/cell

     iteration # 16     ecut=    50.00 Ry     beta= 0.10
     Davidson diagonalization with overlap
     ethr =  7.55E-05,  avg # of iterations =  1.0

     negative rho (up, down):  1.075E-06 1.263E-04
 
     Adding external electric field

     Computed dipole along edir(3) : 
        Dipole               -0.6383 Ry au,         -1.6224 Debye
        Dipole field         -0.0004 Ry au, 
 
        Potential amp.        0.0428 Ry
        Total length         54.2615 bohr
 
 
     Adding external electric field

     Computed dipole along edir(3) : 
        Dipole               -0.6383 Ry au,         -1.6224 Debye
        Dipole field         -0.0004 Ry au, 
 
        Potential amp.        0.0428 Ry
        Total length         54.2615 bohr
 

     total cpu time spent up to now is      251.1 secs

     total energy              =   -7398.00484143 Ry
     estimated scf accuracy    <       1.29689502 Ry

     total magnetization       =    78.73 Bohr mag/cell
     absolute magnetization    =    82.56 Bohr mag/cell

     iteration # 17     ecut=    50.00 Ry     beta= 0.10
     Davidson diagonalization with overlap
     ethr =  7.55E-05,  avg # of iterations =  1.0

     negative rho (up, down):  3.491E-06 2.475E-04
 
     Adding external electric field

     Computed dipole along edir(3) : 
        Dipole               -0.6162 Ry au,         -1.5663 Debye
        Dipole field         -0.0004 Ry au, 
 
        Potential amp.        0.0414 Ry
        Total length         54.2615 bohr
 
 
     Adding external electric field

     Computed dipole along edir(3) : 
        Dipole               -0.6162 Ry au,         -1.5663 Debye
        Dipole field         -0.0004 Ry au, 
 
        Potential amp.        0.0414 Ry
        Total length         54.2615 bohr
 

     total cpu time spent up to now is      262.6 secs

     total energy              =   -7398.00495757 Ry
     estimated scf accuracy    <       1.58467790 Ry

     total magnetization       =    77.92 Bohr mag/cell
     absolute magnetization    =    81.34 Bohr mag/cell

     iteration # 18     ecut=    50.00 Ry     beta= 0.10
     Davidson diagonalization with overlap
     ethr =  7.55E-05,  avg # of iterations =  1.0

     negative rho (up, down):  8.545E-06 1.434E-04
 
     Adding external electric field

     Computed dipole along edir(3) : 
        Dipole               -0.5549 Ry au,         -1.4105 Debye
        Dipole field         -0.0003 Ry au, 
 
        Potential amp.        0.0372 Ry
        Total length         54.2615 bohr
 
 
     Adding external electric field

     Computed dipole along edir(3) : 
        Dipole               -0.5549 Ry au,         -1.4105 Debye
        Dipole field         -0.0003 Ry au, 
 
        Potential amp.        0.0372 Ry
        Total length         54.2615 bohr
 

     total cpu time spent up to now is      274.0 secs

     total energy              =   -7398.01942676 Ry
     estimated scf accuracy    <       0.56011223 Ry

     total magnetization       =    79.29 Bohr mag/cell
     absolute magnetization    =    81.90 Bohr mag/cell

     iteration # 19     ecut=    50.00 Ry     beta= 0.10
     Davidson diagonalization with overlap
     ethr =  5.20E-05,  avg # of iterations =  1.0

     negative rho (up, down):  7.004E-05 1.406E-04
 
     Adding external electric field

     Computed dipole along edir(3) : 
        Dipole               -0.5090 Ry au,         -1.2937 Debye
        Dipole field         -0.0003 Ry au, 
 
        Potential amp.        0.0342 Ry
        Total length         54.2615 bohr
 
 
     Adding external electric field

     Computed dipole along edir(3) : 
        Dipole               -0.5090 Ry au,         -1.2937 Debye
        Dipole field         -0.0003 Ry au, 
 
        Potential amp.        0.0342 Ry
        Total length         54.2615 bohr
 

     total cpu time spent up to now is      285.1 secs

     total energy              =   -7398.03096933 Ry
     estimated scf accuracy    <       0.07863050 Ry

     total magnetization       =    79.89 Bohr mag/cell
     absolute magnetization    =    82.20 Bohr mag/cell

     iteration # 20     ecut=    50.00 Ry     beta= 0.10
     Davidson diagonalization with overlap
     c_bands:  5 eigenvalues not converged
     ethr =  7.29E-06,  avg # of iterations = 18.5

     negative rho (up, down):  3.639E-05 3.451E-05
 
     Adding external electric field

     Computed dipole along edir(3) : 
        Dipole               -0.4492 Ry au,         -1.1418 Debye
        Dipole field         -0.0003 Ry au, 
 
        Potential amp.        0.0301 Ry
        Total length         54.2615 bohr
 
 
     Adding external electric field

     Computed dipole along edir(3) : 
        Dipole               -0.4492 Ry au,         -1.1418 Debye
        Dipole field         -0.0003 Ry au, 
 
        Potential amp.        0.0301 Ry
        Total length         54.2615 bohr
 

     total cpu time spent up to now is      310.5 secs

     total energy              =   -7398.03307594 Ry
     estimated scf accuracy    <       0.05575155 Ry

     total magnetization       =    80.00 Bohr mag/cell
     absolute magnetization    =    81.75 Bohr mag/cell

     iteration # 21     ecut=    50.00 Ry     beta= 0.10
     Davidson diagonalization with overlap
     ethr =  5.17E-06,  avg # of iterations =  7.5

     negative rho (up, down):  1.475E-05 9.132E-06
 
     Adding external electric field

     Computed dipole along edir(3) : 
        Dipole               -0.3867 Ry au,         -0.9829 Debye
        Dipole field         -0.0002 Ry au, 
 
        Potential amp.        0.0260 Ry
        Total length         54.2615 bohr
 
 
     Adding external electric field

     Computed dipole along edir(3) : 
        Dipole               -0.3867 Ry au,         -0.9829 Debye
        Dipole field         -0.0002 Ry au, 
 
        Potential amp.        0.0260 Ry
        Total length         54.2615 bohr
 

     total cpu time spent up to now is      324.7 secs

     total energy              =   -7398.03235436 Ry
     estimated scf accuracy    <       0.09229382 Ry

     total magnetization       =    80.54 Bohr mag/cell
     absolute magnetization    =    82.16 Bohr mag/cell

     iteration # 22     ecut=    50.00 Ry     beta= 0.10
     Davidson diagonalization with overlap
     ethr =  5.17E-06,  avg # of iterations =  2.0

     negative rho (up, down):  1.327E-05 9.342E-06
 
     Adding external electric field

     Computed dipole along edir(3) : 
        Dipole               -0.3696 Ry au,         -0.9394 Debye
        Dipole field         -0.0002 Ry au, 
 
        Potential amp.        0.0248 Ry
        Total length         54.2615 bohr
 
 
     Adding external electric field

     Computed dipole along edir(3) : 
        Dipole               -0.3696 Ry au,         -0.9394 Debye
        Dipole field         -0.0002 Ry au, 
 
        Potential amp.        0.0248 Ry
        Total length         54.2615 bohr
 

     total cpu time spent up to now is      337.6 secs

     total energy              =   -7398.03397684 Ry
     estimated scf accuracy    <       0.12908500 Ry

     total magnetization       =    79.95 Bohr mag/cell
     absolute magnetization    =    81.45 Bohr mag/cell

     iteration # 23     ecut=    50.00 Ry     beta= 0.10
     Davidson diagonalization with overlap
     ethr =  5.17E-06,  avg # of iterations =  1.5

     negative rho (up, down):  1.225E-05 8.623E-06
 
     Adding external electric field

     Computed dipole along edir(3) : 
        Dipole               -0.3588 Ry au,         -0.9119 Debye
        Dipole field         -0.0002 Ry au, 
 
        Potential amp.        0.0241 Ry
        Total length         54.2615 bohr
 
 
     Adding external electric field

     Computed dipole along edir(3) : 
        Dipole               -0.3588 Ry au,         -0.9119 Debye
        Dipole field         -0.0002 Ry au, 
 
        Potential amp.        0.0241 Ry
        Total length         54.2615 bohr
 

     total cpu time spent up to now is      348.7 secs

     total energy              =   -7398.03434766 Ry
     estimated scf accuracy    <       0.09926664 Ry

     total magnetization       =    80.20 Bohr mag/cell
     absolute magnetization    =    81.68 Bohr mag/cell

     iteration # 24     ecut=    50.00 Ry     beta= 0.10
     Davidson diagonalization with overlap
     ethr =  5.17E-06,  avg # of iterations =  1.0

     negative rho (up, down):  3.028E-05 1.220E-05
 
     Adding external electric field

     Computed dipole along edir(3) : 
        Dipole               -0.3479 Ry au,         -0.8842 Debye
        Dipole field         -0.0002 Ry au, 
 
        Potential amp.        0.0233 Ry
        Total length         54.2615 bohr
 
 
     Adding external electric field

     Computed dipole along edir(3) : 
        Dipole               -0.3479 Ry au,         -0.8842 Debye
        Dipole field         -0.0002 Ry au, 
 
        Potential amp.        0.0233 Ry
        Total length         54.2615 bohr
 

     total cpu time spent up to now is      359.3 secs

     total energy              =   -7398.03296970 Ry
     estimated scf accuracy    <       0.10029603 Ry

     total magnetization       =    80.21 Bohr mag/cell
     absolute magnetization    =    81.70 Bohr mag/cell

     iteration # 25     ecut=    50.00 Ry     beta= 0.10
     Davidson diagonalization with overlap
     ethr =  5.17E-06,  avg # of iterations =  1.5

     negative rho (up, down):  1.084E-04 5.067E-05
 
     Adding external electric field

     Computed dipole along edir(3) : 
        Dipole               -0.2733 Ry au,         -0.6947 Debye
        Dipole field         -0.0002 Ry au, 
 
        Potential amp.        0.0183 Ry
        Total length         54.2615 bohr
 
 
     Adding external electric field

     Computed dipole along edir(3) : 
        Dipole               -0.2733 Ry au,         -0.6947 Debye
        Dipole field         -0.0002 Ry au, 
 
        Potential amp.        0.0183 Ry
        Total length         54.2615 bohr
 

     total cpu time spent up to now is      370.5 secs

     total energy              =   -7398.03114834 Ry
     estimated scf accuracy    <       0.05556354 Ry

     total magnetization       =    80.19 Bohr mag/cell
     absolute magnetization    =    81.70 Bohr mag/cell

     iteration # 26     ecut=    50.00 Ry     beta= 0.10
     Davidson diagonalization with overlap
     ethr =  5.15E-06,  avg # of iterations =  2.0

     negative rho (up, down):  3.602E-04 3.020E-04
 
     Adding external electric field

     Computed dipole along edir(3) : 
        Dipole               -0.2195 Ry au,         -0.5579 Debye
        Dipole field         -0.0001 Ry au, 
 
        Potential amp.        0.0147 Ry
        Total length         54.2615 bohr
 
 
     Adding external electric field

     Computed dipole along edir(3) : 
        Dipole               -0.2195 Ry au,         -0.5579 Debye
        Dipole field         -0.0001 Ry au, 
 
        Potential amp.        0.0147 Ry
        Total length         54.2615 bohr
 

     total cpu time spent up to now is      382.7 secs

     total energy              =   -7398.03138736 Ry
     estimated scf accuracy    <       0.03973060 Ry

     total magnetization       =    80.19 Bohr mag/cell
     absolute magnetization    =    81.77 Bohr mag/cell

     iteration # 27     ecut=    50.00 Ry     beta= 0.10
     Davidson diagonalization with overlap
     ethr =  3.69E-06,  avg # of iterations =  2.0

     negative rho (up, down):  3.167E-04 1.724E-04
 
     Adding external electric field

     Computed dipole along edir(3) : 
        Dipole               -0.1851 Ry au,         -0.4706 Debye
        Dipole field         -0.0001 Ry au, 
 
        Potential amp.        0.0124 Ry
        Total length         54.2615 bohr
 
 
     Adding external electric field

     Computed dipole along edir(3) : 
        Dipole               -0.1851 Ry au,         -0.4706 Debye
        Dipole field         -0.0001 Ry au, 
 
        Potential amp.        0.0124 Ry
        Total length         54.2615 bohr
 

     total cpu time spent up to now is      395.3 secs

     total energy              =   -7398.03087268 Ry
     estimated scf accuracy    <       0.02670164 Ry

     total magnetization       =    79.98 Bohr mag/cell
     absolute magnetization    =    81.58 Bohr mag/cell

     iteration # 28     ecut=    50.00 Ry     beta= 0.10
     Davidson diagonalization with overlap
     ethr =  2.48E-06,  avg # of iterations =  3.0

     negative rho (up, down):  3.445E-04 2.029E-04
 
     Adding external electric field

     Computed dipole along edir(3) : 
        Dipole               -0.1821 Ry au,         -0.4629 Debye
        Dipole field         -0.0001 Ry au, 
 
        Potential amp.        0.0122 Ry
        Total length         54.2615 bohr
 
 
     Adding external electric field

     Computed dipole along edir(3) : 
        Dipole               -0.1821 Ry au,         -0.4629 Debye
        Dipole field         -0.0001 Ry au, 
 
        Potential amp.        0.0122 Ry
        Total length         54.2615 bohr
 

     total cpu time spent up to now is      408.7 secs

     total energy              =   -7398.03130611 Ry
     estimated scf accuracy    <       0.04006372 Ry

     total magnetization       =    80.25 Bohr mag/cell
     absolute magnetization    =    81.77 Bohr mag/cell

     iteration # 29     ecut=    50.00 Ry     beta= 0.10
     Davidson diagonalization with overlap
     ethr =  2.48E-06,  avg # of iterations =  1.5

     negative rho (up, down):  1.115E-03 1.172E-03
 
     Adding external electric field

     Computed dipole along edir(3) : 
        Dipole               -0.1406 Ry au,         -0.3573 Debye
        Dipole field         -0.0001 Ry au, 
 
        Potential amp.        0.0094 Ry
        Total length         54.2615 bohr
 
 
     Adding external electric field

     Computed dipole along edir(3) : 
        Dipole               -0.1406 Ry au,         -0.3573 Debye
        Dipole field         -0.0001 Ry au, 
 
        Potential amp.        0.0094 Ry
        Total length         54.2615 bohr
 

     total cpu time spent up to now is      420.9 secs

     total energy              =   -7398.03108566 Ry
     estimated scf accuracy    <       0.03892167 Ry

     total magnetization       =    80.23 Bohr mag/cell
     absolute magnetization    =    81.77 Bohr mag/cell

     iteration # 30     ecut=    50.00 Ry     beta= 0.10
     Davidson diagonalization with overlap
     ethr =  2.48E-06,  avg # of iterations =  2.0

     negative rho (up, down):  2.749E-03 2.975E-03
 
     Adding external electric field

     Computed dipole along edir(3) : 
        Dipole               -0.0617 Ry au,         -0.1568 Debye
        Dipole field         -0.0000 Ry au, 
 
        Potential amp.        0.0041 Ry
        Total length         54.2615 bohr
 
 
     Adding external electric field

     Computed dipole along edir(3) : 
        Dipole               -0.0617 Ry au,         -0.1568 Debye
        Dipole field         -0.0000 Ry au, 
 
        Potential amp.        0.0041 Ry
        Total length         54.2615 bohr
 

     total cpu time spent up to now is      433.9 secs

     total energy              =   -7398.03078576 Ry
     estimated scf accuracy    <       0.02754971 Ry

     total magnetization       =    80.03 Bohr mag/cell
     absolute magnetization    =    81.66 Bohr mag/cell

     iteration # 31     ecut=    50.00 Ry     beta= 0.10
     Davidson diagonalization with overlap
     ethr =  2.48E-06,  avg # of iterations =  2.0

     negative rho (up, down):  5.670E-03 6.029E-03
 
     Adding external electric field

     Computed dipole along edir(3) : 
        Dipole                0.0523 Ry au,          0.1328 Debye
        Dipole field          0.0000 Ry au, 
 
        Potential amp.       -0.0035 Ry
        Total length         54.2615 bohr
 
 
     Adding external electric field

     Computed dipole along edir(3) : 
        Dipole                0.0523 Ry au,          0.1328 Debye
        Dipole field          0.0000 Ry au, 
 
        Potential amp.       -0.0035 Ry
        Total length         54.2615 bohr
 

     total cpu time spent up to now is      446.5 secs

     total energy              =   -7398.03018356 Ry
     estimated scf accuracy    <       0.02297156 Ry

     total magnetization       =    80.05 Bohr mag/cell
     absolute magnetization    =    81.68 Bohr mag/cell

     iteration # 32     ecut=    50.00 Ry     beta= 0.10
     Davidson diagonalization with overlap
     ethr =  2.13E-06,  avg # of iterations = 28.5

     negative rho (up, down):  9.298E-03 9.974E-03
 
     Adding external electric field

     Computed dipole along edir(3) : 
        Dipole                0.1872 Ry au,          0.4757 Debye
        Dipole field          0.0001 Ry au, 
 
        Potential amp.       -0.0126 Ry
        Total length         54.2615 bohr
 
 
     Adding external electric field

     Computed dipole along edir(3) : 
        Dipole                0.1872 Ry au,          0.4757 Debye
        Dipole field          0.0001 Ry au, 
 
        Potential amp.       -0.0126 Ry
        Total length         54.2615 bohr
 

     total cpu time spent up to now is      478.1 secs

     total energy              =   -7398.02951118 Ry
     estimated scf accuracy    <       0.01766765 Ry

     total magnetization       =    80.12 Bohr mag/cell
     absolute magnetization    =    81.75 Bohr mag/cell

     iteration # 33     ecut=    50.00 Ry     beta= 0.10
     Davidson diagonalization with overlap
     ethr =  1.64E-06,  avg # of iterations =  4.0

     negative rho (up, down):  7.861E-03 8.232E-03
 
     Adding external electric field

     Computed dipole along edir(3) : 
        Dipole                0.2818 Ry au,          0.7163 Debye
        Dipole field          0.0002 Ry au, 
 
        Potential amp.       -0.0189 Ry
        Total length         54.2615 bohr
 
 
     Adding external electric field

     Computed dipole along edir(3) : 
        Dipole                0.2818 Ry au,          0.7163 Debye
        Dipole field          0.0002 Ry au, 
 
        Potential amp.       -0.0189 Ry
        Total length         54.2615 bohr
 

     total cpu time spent up to now is      491.2 secs

     total energy              =   -7398.02951622 Ry
     estimated scf accuracy    <       0.00903385 Ry

     total magnetization       =    80.09 Bohr mag/cell
     absolute magnetization    =    81.68 Bohr mag/cell

     iteration # 34     ecut=    50.00 Ry     beta= 0.10
     Davidson diagonalization with overlap
     c_bands:  1 eigenvalues not converged
     ethr =  8.38E-07,  avg # of iterations = 11.0

     negative rho (up, down):  4.748E-03 4.875E-03
 
     Adding external electric field

     Computed dipole along edir(3) : 
        Dipole                0.2984 Ry au,          0.7583 Debye
        Dipole field          0.0002 Ry au, 
 
        Potential amp.       -0.0200 Ry
        Total length         54.2615 bohr
 
 
     Adding external electric field

     Computed dipole along edir(3) : 
        Dipole                0.2984 Ry au,          0.7583 Debye
        Dipole field          0.0002 Ry au, 
 
        Potential amp.       -0.0200 Ry
        Total length         54.2615 bohr
 

     total cpu time spent up to now is      507.2 secs

     total energy              =   -7398.02956237 Ry
     estimated scf accuracy    <       0.00575452 Ry

     total magnetization       =    80.16 Bohr mag/cell
     absolute magnetization    =    81.73 Bohr mag/cell

     iteration # 35     ecut=    50.00 Ry     beta= 0.10
     Davidson diagonalization with overlap
     ethr =  5.34E-07,  avg # of iterations =  2.0

     negative rho (up, down):  2.265E-03 2.432E-03
 
     Adding external electric field

     Computed dipole along edir(3) : 
        Dipole                0.2892 Ry au,          0.7352 Debye
        Dipole field          0.0002 Ry au, 
 
        Potential amp.       -0.0194 Ry
        Total length         54.2615 bohr
 
 
     Adding external electric field

     Computed dipole along edir(3) : 
        Dipole                0.2892 Ry au,          0.7352 Debye
        Dipole field          0.0002 Ry au, 
 
        Potential amp.       -0.0194 Ry
        Total length         54.2615 bohr
 

     total cpu time spent up to now is      519.1 secs

     total energy              =   -7398.02952945 Ry
     estimated scf accuracy    <       0.00385926 Ry

     total magnetization       =    80.16 Bohr mag/cell
     absolute magnetization    =    81.71 Bohr mag/cell

     iteration # 36     ecut=    50.00 Ry     beta= 0.10
     Davidson diagonalization with overlap
     ethr =  3.58E-07,  avg # of iterations =  2.0

     negative rho (up, down):  9.414E-04 1.028E-03
 
     Adding external electric field

     Computed dipole along edir(3) : 
        Dipole                0.2758 Ry au,          0.7011 Debye
        Dipole field          0.0002 Ry au, 
 
        Potential amp.       -0.0185 Ry
        Total length         54.2615 bohr
 
 
     Adding external electric field

     Computed dipole along edir(3) : 
        Dipole                0.2758 Ry au,          0.7011 Debye
        Dipole field          0.0002 Ry au, 
 
        Potential amp.       -0.0185 Ry
        Total length         54.2615 bohr
 

     total cpu time spent up to now is      532.6 secs

     total energy              =   -7398.02951928 Ry
     estimated scf accuracy    <       0.00244002 Ry

     total magnetization       =    80.12 Bohr mag/cell
     absolute magnetization    =    81.66 Bohr mag/cell

     iteration # 37     ecut=    50.00 Ry     beta= 0.10
     Davidson diagonalization with overlap
     ethr =  2.26E-07,  avg # of iterations =  2.0

     negative rho (up, down):  9.130E-05 7.364E-05
 
     Adding external electric field

     Computed dipole along edir(3) : 
        Dipole                0.2781 Ry au,          0.7068 Debye
        Dipole field          0.0002 Ry au, 
 
        Potential amp.       -0.0187 Ry
        Total length         54.2615 bohr
 
 
     Adding external electric field

     Computed dipole along edir(3) : 
        Dipole                0.2781 Ry au,          0.7068 Debye
        Dipole field          0.0002 Ry au, 
 
        Potential amp.       -0.0187 Ry
        Total length         54.2615 bohr
 

     total cpu time spent up to now is      544.5 secs

     total energy              =   -7398.02941702 Ry
     estimated scf accuracy    <       0.00195980 Ry

     total magnetization       =    80.13 Bohr mag/cell
     absolute magnetization    =    81.70 Bohr mag/cell

     iteration # 38     ecut=    50.00 Ry     beta= 0.10
     Davidson diagonalization with overlap
     c_bands:  1 eigenvalues not converged
     ethr =  1.82E-07,  avg # of iterations = 11.0

     negative rho (up, down):  2.122E-05 1.228E-05
 
     Adding external electric field

     Computed dipole along edir(3) : 
        Dipole                0.2563 Ry au,          0.6516 Debye
        Dipole field          0.0002 Ry au, 
 
        Potential amp.       -0.0172 Ry
        Total length         54.2615 bohr
 
 
     Adding external electric field

     Computed dipole along edir(3) : 
        Dipole                0.2563 Ry au,          0.6516 Debye
        Dipole field          0.0002 Ry au, 
 
        Potential amp.       -0.0172 Ry
        Total length         54.2615 bohr
 

     total cpu time spent up to now is      560.3 secs

     total energy              =   -7398.02946042 Ry
     estimated scf accuracy    <       0.00121326 Ry

     total magnetization       =    80.14 Bohr mag/cell
     absolute magnetization    =    81.75 Bohr mag/cell

     iteration # 39     ecut=    50.00 Ry     beta= 0.10
     Davidson diagonalization with overlap
     ethr =  1.13E-07,  avg # of iterations =  2.0

     negative rho (up, down):  2.878E-05 1.455E-05
 
     Adding external electric field

     Computed dipole along edir(3) : 
        Dipole                0.2445 Ry au,          0.6213 Debye
        Dipole field          0.0002 Ry au, 
 
        Potential amp.       -0.0164 Ry
        Total length         54.2615 bohr
 
 
     Adding external electric field

     Computed dipole along edir(3) : 
        Dipole                0.2445 Ry au,          0.6213 Debye
        Dipole field          0.0002 Ry au, 
 
        Potential amp.       -0.0164 Ry
        Total length         54.2615 bohr
 

     total cpu time spent up to now is      573.1 secs

     total energy              =   -7398.02955389 Ry
     estimated scf accuracy    <       0.00108196 Ry

     total magnetization       =    80.14 Bohr mag/cell
     absolute magnetization    =    81.76 Bohr mag/cell

     iteration # 40     ecut=    50.00 Ry     beta= 0.10
     Davidson diagonalization with overlap
     ethr =  1.00E-07,  avg # of iterations =  2.0

     negative rho (up, down):  1.463E-04 1.050E-04
 
     Adding external electric field

     Computed dipole along edir(3) : 
        Dipole                0.2481 Ry au,          0.6305 Debye
        Dipole field          0.0002 Ry au, 
 
        Potential amp.       -0.0166 Ry
        Total length         54.2615 bohr
 
 
     Adding external electric field

     Computed dipole along edir(3) : 
        Dipole                0.2481 Ry au,          0.6305 Debye
        Dipole field          0.0002 Ry au, 
 
        Potential amp.       -0.0166 Ry
        Total length         54.2615 bohr
 

     total cpu time spent up to now is      586.0 secs

     total energy              =   -7398.02964847 Ry
     estimated scf accuracy    <       0.00078974 Ry

     total magnetization       =    80.14 Bohr mag/cell
     absolute magnetization    =    81.72 Bohr mag/cell

     iteration # 41     ecut=    50.00 Ry     beta= 0.10
     Davidson diagonalization with overlap
     ethr =  7.33E-08,  avg # of iterations =  2.0

     negative rho (up, down):  9.504E-05 6.382E-05
 
     Adding external electric field

     Computed dipole along edir(3) : 
        Dipole                0.2476 Ry au,          0.6292 Debye
        Dipole field          0.0002 Ry au, 
 
        Potential amp.       -0.0166 Ry
        Total length         54.2615 bohr
 
 
     Adding external electric field

     Computed dipole along edir(3) : 
        Dipole                0.2476 Ry au,          0.6292 Debye
        Dipole field          0.0002 Ry au, 
 
        Potential amp.       -0.0166 Ry
        Total length         54.2615 bohr
 

     total cpu time spent up to now is      599.2 secs

     total energy              =   -7398.02970125 Ry
     estimated scf accuracy    <       0.00056191 Ry

     total magnetization       =    80.13 Bohr mag/cell
     absolute magnetization    =    81.67 Bohr mag/cell

     iteration # 42     ecut=    50.00 Ry     beta= 0.10
     Davidson diagonalization with overlap
     ethr =  5.21E-08,  avg # of iterations =  2.0

     negative rho (up, down):  2.174E-04 1.635E-04
 
     Adding external electric field

     Computed dipole along edir(3) : 
        Dipole                0.2602 Ry au,          0.6613 Debye
        Dipole field          0.0002 Ry au, 
 
        Potential amp.       -0.0175 Ry
        Total length         54.2615 bohr
 
 
     Adding external electric field

     Computed dipole along edir(3) : 
        Dipole                0.2602 Ry au,          0.6613 Debye
        Dipole field          0.0002 Ry au, 
 
        Potential amp.       -0.0175 Ry
        Total length         54.2615 bohr
 

     total cpu time spent up to now is      612.6 secs

     total energy              =   -7398.02972781 Ry
     estimated scf accuracy    <       0.00040575 Ry

     total magnetization       =    80.12 Bohr mag/cell
     absolute magnetization    =    81.64 Bohr mag/cell

     iteration # 43     ecut=    50.00 Ry     beta= 0.10
     Davidson diagonalization with overlap
     ethr =  3.76E-08,  avg # of iterations =  2.0

     negative rho (up, down):  1.550E-04 8.081E-05
 
     Adding external electric field

     Computed dipole along edir(3) : 
        Dipole                0.2561 Ry au,          0.6508 Debye
        Dipole field          0.0002 Ry au, 
 
        Potential amp.       -0.0172 Ry
        Total length         54.2615 bohr
 
 
     Adding external electric field

     Computed dipole along edir(3) : 
        Dipole                0.2561 Ry au,          0.6508 Debye
        Dipole field          0.0002 Ry au, 
 
        Potential amp.       -0.0172 Ry
        Total length         54.2615 bohr
 

     total cpu time spent up to now is      625.4 secs

     total energy              =   -7398.02972026 Ry
     estimated scf accuracy    <       0.00035488 Ry

     total magnetization       =    80.12 Bohr mag/cell
     absolute magnetization    =    81.63 Bohr mag/cell

     iteration # 44     ecut=    50.00 Ry     beta= 0.10
     Davidson diagonalization with overlap
     ethr =  3.29E-08,  avg # of iterations =  2.0

     negative rho (up, down):  8.675E-04 7.187E-04
 
     Adding external electric field

     Computed dipole along edir(3) : 
        Dipole                0.2658 Ry au,          0.6755 Debye
        Dipole field          0.0002 Ry au, 
 
        Potential amp.       -0.0178 Ry
        Total length         54.2615 bohr
 
 
     Adding external electric field

     Computed dipole along edir(3) : 
        Dipole                0.2658 Ry au,          0.6755 Debye
        Dipole field          0.0002 Ry au, 
 
        Potential amp.       -0.0178 Ry
        Total length         54.2615 bohr
 

     total cpu time spent up to now is      638.4 secs

     total energy              =   -7398.02973974 Ry
     estimated scf accuracy    <       0.00025748 Ry

     total magnetization       =    80.12 Bohr mag/cell
     absolute magnetization    =    81.62 Bohr mag/cell

     iteration # 45     ecut=    50.00 Ry     beta= 0.10
     Davidson diagonalization with overlap
     ethr =  2.39E-08,  avg # of iterations =  2.0

     negative rho (up, down):  1.424E-03 1.254E-03
 
     Adding external electric field

     Computed dipole along edir(3) : 
        Dipole                0.2855 Ry au,          0.7258 Debye
        Dipole field          0.0002 Ry au, 
 
        Potential amp.       -0.0192 Ry
        Total length         54.2615 bohr
 
 
     Adding external electric field

     Computed dipole along edir(3) : 
        Dipole                0.2855 Ry au,          0.7258 Debye
        Dipole field          0.0002 Ry au, 
 
        Potential amp.       -0.0192 Ry
        Total length         54.2615 bohr
 

     total cpu time spent up to now is      651.7 secs

     total energy              =   -7398.02976798 Ry
     estimated scf accuracy    <       0.00015468 Ry

     total magnetization       =    80.11 Bohr mag/cell
     absolute magnetization    =    81.63 Bohr mag/cell

     iteration # 46     ecut=    50.00 Ry     beta= 0.10
     Davidson diagonalization with overlap
     ethr =  1.43E-08,  avg # of iterations =  2.0

     negative rho (up, down):  2.013E-03 1.787E-03
 
     Adding external electric field

     Computed dipole along edir(3) : 
        Dipole                0.2980 Ry au,          0.7576 Debye
        Dipole field          0.0002 Ry au, 
 
        Potential amp.       -0.0200 Ry
        Total length         54.2615 bohr
 
 
     Adding external electric field

     Computed dipole along edir(3) : 
        Dipole                0.2980 Ry au,          0.7576 Debye
        Dipole field          0.0002 Ry au, 
 
        Potential amp.       -0.0200 Ry
        Total length         54.2615 bohr
 

     total cpu time spent up to now is      664.4 secs

     total energy              =   -7398.02977643 Ry
     estimated scf accuracy    <       0.00010860 Ry

     total magnetization       =    80.12 Bohr mag/cell
     absolute magnetization    =    81.64 Bohr mag/cell

     iteration # 47     ecut=    50.00 Ry     beta= 0.10
     Davidson diagonalization with overlap
     ethr =  1.01E-08,  avg # of iterations =  2.0

     negative rho (up, down):  2.629E-03 2.407E-03
 
     Adding external electric field

     Computed dipole along edir(3) : 
        Dipole                0.3063 Ry au,          0.7785 Debye
        Dipole field          0.0002 Ry au, 
 
        Potential amp.       -0.0206 Ry
        Total length         54.2615 bohr
 
 
     Adding external electric field

     Computed dipole along edir(3) : 
        Dipole                0.3063 Ry au,          0.7785 Debye
        Dipole field          0.0002 Ry au, 
 
        Potential amp.       -0.0206 Ry
        Total length         54.2615 bohr
 

     total cpu time spent up to now is      676.6 secs

     total energy              =   -7398.02978252 Ry
     estimated scf accuracy    <       0.00007612 Ry

     total magnetization       =    80.12 Bohr mag/cell
     absolute magnetization    =    81.64 Bohr mag/cell

     iteration # 48     ecut=    50.00 Ry     beta= 0.10
     Davidson diagonalization with overlap
     ethr =  7.06E-09,  avg # of iterations =  1.0

     negative rho (up, down):  2.227E-03 1.959E-03
 
     Adding external electric field

     Computed dipole along edir(3) : 
        Dipole                0.2997 Ry au,          0.7617 Debye
        Dipole field          0.0002 Ry au, 
 
        Potential amp.       -0.0201 Ry
        Total length         54.2615 bohr
 
 
     Adding external electric field

     Computed dipole along edir(3) : 
        Dipole                0.2997 Ry au,          0.7617 Debye
        Dipole field          0.0002 Ry au, 
 
        Potential amp.       -0.0201 Ry
        Total length         54.2615 bohr
 

     total cpu time spent up to now is      687.2 secs

     total energy              =   -7398.02977419 Ry
     estimated scf accuracy    <       0.00006259 Ry

     total magnetization       =    80.12 Bohr mag/cell
     absolute magnetization    =    81.65 Bohr mag/cell

     iteration # 49     ecut=    50.00 Ry     beta= 0.10
     Davidson diagonalization with overlap
     ethr =  5.81E-09,  avg # of iterations =  2.0

     negative rho (up, down):  2.014E-03 1.725E-03
 
     Adding external electric field

     Computed dipole along edir(3) : 
        Dipole                0.3035 Ry au,          0.7714 Debye
        Dipole field          0.0002 Ry au, 
 
        Potential amp.       -0.0204 Ry
        Total length         54.2615 bohr
 
 
     Adding external electric field

     Computed dipole along edir(3) : 
        Dipole                0.3035 Ry au,          0.7714 Debye
        Dipole field          0.0002 Ry au, 
 
        Potential amp.       -0.0204 Ry
        Total length         54.2615 bohr
 

     total cpu time spent up to now is      699.0 secs

     total energy              =   -7398.02977358 Ry
     estimated scf accuracy    <       0.00003707 Ry

     total magnetization       =    80.12 Bohr mag/cell
     absolute magnetization    =    81.66 Bohr mag/cell

     iteration # 50     ecut=    50.00 Ry     beta= 0.10
     Davidson diagonalization with overlap
     ethr =  3.44E-09,  avg # of iterations =  2.0

     negative rho (up, down):  1.760E-03 1.466E-03
 
     Adding external electric field

     Computed dipole along edir(3) : 
        Dipole                0.3021 Ry au,          0.7678 Debye
        Dipole field          0.0002 Ry au, 
 
        Potential amp.       -0.0203 Ry
        Total length         54.2615 bohr
 
 
     Adding external electric field

     Computed dipole along edir(3) : 
        Dipole                0.3021 Ry au,          0.7678 Debye
        Dipole field          0.0002 Ry au, 
 
        Potential amp.       -0.0203 Ry
        Total length         54.2615 bohr
 

     total cpu time spent up to now is      711.8 secs

     total energy              =   -7398.02977287 Ry
     estimated scf accuracy    <       0.00002140 Ry

     total magnetization       =    80.12 Bohr mag/cell
     absolute magnetization    =    81.66 Bohr mag/cell

     iteration # 51     ecut=    50.00 Ry     beta= 0.10
     Davidson diagonalization with overlap
     ethr =  1.98E-09,  avg # of iterations =  2.0

     negative rho (up, down):  1.296E-03 9.456E-04
 
     Adding external electric field

     Computed dipole along edir(3) : 
        Dipole                0.3004 Ry au,          0.7635 Debye
        Dipole field          0.0002 Ry au, 
 
        Potential amp.       -0.0202 Ry
        Total length         54.2615 bohr
 
 
     Adding external electric field

     Computed dipole along edir(3) : 
        Dipole                0.3004 Ry au,          0.7635 Debye
        Dipole field          0.0002 Ry au, 
 
        Potential amp.       -0.0202 Ry
        Total length         54.2615 bohr
 

     total cpu time spent up to now is      724.9 secs

     total energy              =   -7398.02976888 Ry
     estimated scf accuracy    <       0.00001383 Ry

     total magnetization       =    80.12 Bohr mag/cell
     absolute magnetization    =    81.65 Bohr mag/cell

     iteration # 52     ecut=    50.00 Ry     beta= 0.10
     Davidson diagonalization with overlap
     ethr =  1.28E-09,  avg # of iterations =  2.0

     negative rho (up, down):  1.122E-03 7.557E-04
 
     Adding external electric field

     Computed dipole along edir(3) : 
        Dipole                0.2998 Ry au,          0.7621 Debye
        Dipole field          0.0002 Ry au, 
 
        Potential amp.       -0.0201 Ry
        Total length         54.2615 bohr
 
 
     Adding external electric field

     Computed dipole along edir(3) : 
        Dipole                0.2998 Ry au,          0.7621 Debye
        Dipole field          0.0002 Ry au, 
 
        Potential amp.       -0.0201 Ry
        Total length         54.2615 bohr
 

     total cpu time spent up to now is      737.1 secs

     total energy              =   -7398.02976818 Ry
     estimated scf accuracy    <       0.00000647 Ry

     total magnetization       =    80.12 Bohr mag/cell
     absolute magnetization    =    81.65 Bohr mag/cell

     iteration # 53     ecut=    50.00 Ry     beta= 0.10
     Davidson diagonalization with overlap
     ethr =  6.00E-10,  avg # of iterations =  3.0

     negative rho (up, down):  1.204E-03 8.362E-04
 
     Adding external electric field

     Computed dipole along edir(3) : 
        Dipole                0.3023 Ry au,          0.7683 Debye
        Dipole field          0.0002 Ry au, 
 
        Potential amp.       -0.0203 Ry
        Total length         54.2615 bohr
 
 
     Adding external electric field

     Computed dipole along edir(3) : 
        Dipole                0.3023 Ry au,          0.7683 Debye
        Dipole field          0.0002 Ry au, 
 
        Potential amp.       -0.0203 Ry
        Total length         54.2615 bohr
 

     total cpu time spent up to now is      749.7 secs

     total energy              =   -7398.02976931 Ry
     estimated scf accuracy    <       0.00000455 Ry

     total magnetization       =    80.12 Bohr mag/cell
     absolute magnetization    =    81.65 Bohr mag/cell

     iteration # 54     ecut=    50.00 Ry     beta= 0.10
     Davidson diagonalization with overlap
     ethr =  4.22E-10,  avg # of iterations =  2.0

     negative rho (up, down):  1.184E-03 8.103E-04
 
     Adding external electric field

     Computed dipole along edir(3) : 
        Dipole                0.3019 Ry au,          0.7673 Debye
        Dipole field          0.0002 Ry au, 
 
        Potential amp.       -0.0203 Ry
        Total length         54.2615 bohr
 
 
     Adding external electric field

     Computed dipole along edir(3) : 
        Dipole                0.3019 Ry au,          0.7673 Debye
        Dipole field          0.0002 Ry au, 
 
        Potential amp.       -0.0203 Ry
        Total length         54.2615 bohr
 

     total cpu time spent up to now is      762.3 secs

     total energy              =   -7398.02976950 Ry
     estimated scf accuracy    <       0.00000274 Ry

     total magnetization       =    80.12 Bohr mag/cell
     absolute magnetization    =    81.65 Bohr mag/cell

     iteration # 55     ecut=    50.00 Ry     beta= 0.10
     Davidson diagonalization with overlap
     ethr =  2.54E-10,  avg # of iterations =  2.0

     negative rho (up, down):  1.069E-03 6.856E-04
 
     Adding external electric field

     Computed dipole along edir(3) : 
        Dipole                0.3022 Ry au,          0.7682 Debye
        Dipole field          0.0002 Ry au, 
 
        Potential amp.       -0.0203 Ry
        Total length         54.2615 bohr
 
 
     Adding external electric field

     Computed dipole along edir(3) : 
        Dipole                0.3022 Ry au,          0.7682 Debye
        Dipole field          0.0002 Ry au, 
 
        Potential amp.       -0.0203 Ry
        Total length         54.2615 bohr
 

     total cpu time spent up to now is      775.4 secs

     total energy              =   -7398.02976882 Ry
     estimated scf accuracy    <       0.00000174 Ry

     total magnetization       =    80.12 Bohr mag/cell
     absolute magnetization    =    81.65 Bohr mag/cell

     iteration # 56     ecut=    50.00 Ry     beta= 0.10
     Davidson diagonalization with overlap
     ethr =  1.61E-10,  avg # of iterations =  2.0

     negative rho (up, down):  9.266E-04 5.469E-04
 
     Adding external electric field

     Computed dipole along edir(3) : 
        Dipole                0.3009 Ry au,          0.7647 Debye
        Dipole field          0.0002 Ry au, 
 
        Potential amp.       -0.0202 Ry
        Total length         54.2615 bohr
 
 
     Adding external electric field

     Computed dipole along edir(3) : 
        Dipole                0.3009 Ry au,          0.7647 Debye
        Dipole field          0.0002 Ry au, 
 
        Potential amp.       -0.0202 Ry
        Total length         54.2615 bohr
 
 
     Magnetic moment per site  (integrated on atomic sphere of radius R)
     atom   1 (R=0.087)  charge= 12.0071  magn=  3.6809
     atom   2 (R=0.080)  charge=  7.1403  magn=  1.5400
     atom   3 (R=0.080)  charge=  7.1604  magn=  1.4497
     atom   4 (R=0.080)  charge=  7.1386  magn=  1.5427
     atom   5 (R=0.080)  charge=  7.1617  magn=  1.4972
     atom   6 (R=0.080)  charge=  7.1569  magn=  1.5059
     atom   7 (R=0.080)  charge=  7.1613  magn=  1.4519
     atom   8 (R=0.080)  charge=  7.1410  magn=  1.5330
     atom   9 (R=0.080)  charge=  7.1062  magn=  1.6531
     atom  10 (R=0.080)  charge=  7.1396  magn=  1.5479
     atom  11 (R=0.080)  charge=  7.1559  magn=  1.5030
     atom  12 (R=0.080)  charge=  7.1574  magn=  1.4959
     atom  13 (R=0.065)  charge=  0.7300  magn=  0.0074
     atom  14 (R=0.065)  charge=  0.7266  magn=  0.0056
     atom  15 (R=0.065)  charge=  0.7274  magn=  0.0054
     atom  16 (R=0.065)  charge=  0.7279  magn=  0.0052
     atom  17 (R=0.043)  charge=  1.9492  magn=  0.0520
     atom  18 (R=0.043)  charge=  1.9454  magn=  0.0799
     atom  19 (R=0.043)  charge=  1.9462  magn=  0.0707
     atom  20 (R=0.043)  charge=  1.9455  magn=  0.0777
     atom  21 (R=0.043)  charge=  1.9537  magn=  0.0416
     atom  22 (R=0.043)  charge=  1.9471  magn=  0.0291
     atom  23 (R=0.043)  charge=  1.9424  magn=  0.0516
     atom  24 (R=0.043)  charge=  1.9505  magn=  0.0538
     atom  25 (R=0.043)  charge=  1.9500  magn=  0.0563
     atom  26 (R=0.043)  charge=  1.9510  magn=  0.0427
     atom  27 (R=0.043)  charge=  1.9476  magn=  0.0501
     atom  28 (R=0.043)  charge=  1.9501  magn=  0.0493
     atom  29 (R=0.043)  charge=  1.9510  magn=  0.0348
[...]
    -5.9505  -5.9316  -5.9246  -5.9039  -5.8904  -5.8562  -5.8168  -5.8107
    -5.7779  -5.7696  -5.7366  -5.7344  -5.7232  -5.6812  -5.6709  -5.6498
    -5.6426  -5.6305  -5.6017  -5.5921  -5.5800  -5.5613  -5.5275  -5.4816
    -5.4639  -5.4305  -5.3975  -5.3854  -5.3683  -5.3429  -5.3125  -5.2547
    -5.2352  -5.2034  -5.1825  -5.1653  -5.0992  -5.0724  -5.0323  -5.0012
    -4.9947  -4.9609  -4.9275  -4.9192  -4.8882  -4.8768  -4.8460  -4.8394
    -4.7791  -4.7483  -4.6963  -4.6920  -4.6549  -4.6186  -4.5831  -4.5338
    -4.5042  -4.4845  -4.4516  -4.4321  -4.4069  -4.3811  -4.3511  -4.3301
    -4.3163  -4.2618  -4.2125  -4.1821  -4.1675  -4.1252  -4.1029  -4.0934
    -4.0444  -4.0033  -3.9896  -3.9696  -3.9534  -3.9263  -3.8977  -3.8785
    -3.8364  -3.8289  -3.8106  -3.7861  -3.7746  -3.7238  -3.7133  -3.7001
    -3.6728  -3.6676  -3.6399  -3.6314  -3.6171  -3.5982  -3.5900  -3.5189
    -3.5136  -3.5015  -3.4945  -3.4740  -3.4635  -3.4601  -3.4268  -3.4213
    -3.4003  -3.3700  -3.3563  -3.3409  -3.3065  -3.2961  -3.2695  -3.2446
    -3.2294  -3.2003  -3.1971  -3.1559  -3.1480  -3.1355  -3.1173  -3.1102
    -3.0843  -3.0661  -3.0470  -3.0131  -2.9955  -2.9763  -2.9624  -2.9282
    -2.9078  -2.8936  -2.8731  -2.8497  -2.8277  -2.8194  -2.7895  -2.7725
    -2.7615  -2.7505  -2.7439  -2.7294  -2.7275  -2.7109  -2.7056  -2.7004
    -2.6586  -2.6513  -2.6326  -2.6181  -2.6015  -2.5898  -2.5651  -2.5603
    -2.5377  -2.5201  -2.4978  -2.4721  -2.4634  -2.4491  -2.4461  -2.4327
    -2.3900  -2.3830  -2.3656  -2.3527  -2.3205  -2.3049  -2.2728  -2.2617
    -2.2531  -2.2161  -2.2130  -2.1853  -2.1693  -2.1484  -2.1311  -2.1183
    -2.0879  -2.0752  -2.0559  -2.0432  -2.0352  -2.0182  -1.9901  -1.9683
    -1.9528  -1.9433  -1.9402  -1.9250  -1.8950  -1.8721  -1.8646  -1.8366
    -1.8160  -1.7954  -1.7700  -1.7492  -1.7444  -1.7316  -1.7097  -1.6827
    -1.6611  -1.6476  -1.6358  -1.6209  -1.5909  -1.5719  -1.5546  -1.5235
    -1.5126  -1.4944  -1.4892  -1.4658  -1.4397  -1.4211  -1.3949  -1.3807
    -1.3735  -1.3494  -1.3116  -1.2821  -1.2690  -1.2367  -1.2232  -1.2098
    -1.1437  -1.1292  -1.0725  -0.9705  -0.9547  -0.9369  -0.8513  -0.8333
    -0.7940  -0.7387  -0.6976  -0.5032  -0.3610  -0.2993  -0.2904  -0.1859
     0.1359   0.1576   0.1879   0.2262   0.2515   0.2595   0.2773   0.2910
     0.3079   0.3131   0.3380   0.3468   0.3538   0.3587   0.3710   0.3754
     0.3846   0.3877   0.4060   0.4116   0.4191   0.4221   0.4313   0.4432
     0.4442   0.4524   0.4624   0.4661   0.4717   0.4804   0.4814   0.4844
     0.4983   0.5121   0.5149   0.5217   0.5279   0.5321   0.5339   0.5473
     0.5588   0.5671   0.5738   0.5786   0.5818   0.5884   0.5980   0.6035
     0.6123   0.6339   0.6358   0.6378   0.6428   0.6513   0.6572   0.6654
     0.6722   0.6820   0.6852   0.6952   0.7034   0.7042   0.7063   0.7229
     0.7279   0.7405   0.7431   0.7554   0.7582   0.7666   0.7731   0.7765
     0.7789   0.7965   0.8124   0.8215   0.8364   0.8422   0.8602   0.8652
     0.8731   0.8849   0.8895   0.8954   0.8981   0.9096   0.9186   0.9235
     0.9334   0.9405   0.9479   0.9713   0.9723   1.0292   1.0316   1.0441
     1.1544   1.1881   1.6317   1.7103   1.7137   1.7160   1.7353   1.7452
     1.7660   1.8363   1.8801   1.8984   1.9226   1.9572   1.9652   1.9814
     2.0090   2.0271   2.0526   2.0632   2.0762   2.0776   2.0807   2.1384
     2.1546   2.1760   2.1870   2.2020   2.2254   2.2422   2.2572   2.2686
     2.2801   2.2848   2.3105   2.3158   2.3191   2.3305   2.3523   2.3559
     2.3639   2.3797   2.3880   2.4117   2.4243   2.4289   2.4561   2.4769
     2.4847   2.5178   2.5216   2.5233   2.5519   2.5649   2.5798   2.6116
     2.6168   2.6333   2.6492   2.6627   2.7064   2.7391   2.7544   2.7996
     2.8253   2.8540   2.8789   2.9015   2.9418   3.2843   3.3190   3.4782
     3.5911   3.8204   3.8827   3.9650   4.0274   4.0486   4.1093   4.5156
     4.6657   4.7887   4.9160   4.9294   4.9729   5.0772   5.4342   6.3384
     6.3824   6.5312   6.6035   6.6994   6.7588   6.8455   6.9041   6.9959
     7.0224   7.1024   7.1558   7.1930   7.3144   7.3462   7.3904   7.4529
     7.5512   7.5861   7.6327   7.6888   7.7158   7.7514   7.8228   7.8557
     7.8888   7.9455   7.9767   7.9955   8.0321   8.0564   8.0892   8.1306
     8.1511   8.1636   8.1933   8.2224   8.2653   8.2826   8.3086   8.3384
     8.3654   8.3801   8.4345   8.4762   8.4876   8.5071   8.5396   8.5447
     8.5606   8.5716   8.6013   8.6086   8.6318   8.6503   8.6781   8.6892
     8.7333   8.7464   8.7890   8.8128   8.8694   8.8772   8.9172

     the Fermi energy is     1.6009 ev

!    total energy              =   -7398.02976746 Ry
     estimated scf accuracy    <       0.00000076 Ry
     smearing contrib. (-TS)   =      -0.01672936 Ry
     internal energy E=F+TS    =   -7398.01303810 Ry

     The total energy is F=E-TS. E is the sum of the following terms:
     one-electron contribution =  -91631.16026700 Ry
     hartree contribution      =   46463.82788920 Ry
     xc contribution           =   -2260.28234275 Ry
     ewald contribution        =   40031.43414079 Ry
     Dispersion Correction     =      -1.83251431 Ry
     electric field correction =       0.00005598 Ry

     total magnetization       =    80.12 Bohr mag/cell
     absolute magnetization    =    81.65 Bohr mag/cell

     convergence has been achieved in  56 iterations

     negative rho (up, down):  9.266E-04 5.469E-04

     Forces acting on atoms (cartesian axes, Ry/au):

     atom    1 type  2   force =     0.00024612   -0.00071031   -0.00029671
     atom    2 type  1   force =    -0.00004672    0.00045476   -0.00043557
     atom    3 type  1   force =    -0.00014719   -0.00011592   -0.00026128
     atom    4 type  1   force =     0.00010654   -0.00037318    0.00054879
     atom    5 type  1   force =     0.00032348   -0.00046712   -0.00057458
     atom    6 type  1   force =     0.00040295    0.00057658    0.00008490
     atom    7 type  1   force =     0.00028665    0.00026652   -0.00083880
     atom    8 type  1   force =     0.00004295    0.00071845    0.00001843
     atom    9 type  1   force =     0.00196570    0.00205613    0.00172576
     atom   10 type  1   force =     0.00028880    0.00011298    0.00010183
     atom   11 type  1   force =    -0.00005503    0.00010767   -0.00012232
     atom   12 type  1   force =     0.00004995   -0.00033660   -0.00015688
     atom   13 type  3   force =    -0.00050572   -0.00026901   -0.00000491
     atom   14 type  3   force =     0.00000988   -0.00013139    0.00026104
     atom   15 type  3   force =     0.00000794    0.00002235   -0.00021661
     atom   16 type  3   force =     0.00020172    0.00033447   -0.00009068
     atom   17 type  4   force =    -0.00008078   -0.00003993    0.00022744
     atom   18 type  4   force =     0.00002581    0.00052014    0.00074179
     atom   19 type  4   force =     0.00012044    0.00073685    0.00006865
     atom   20 type  4   force =    -0.00050528   -0.00019174   -0.00030559
     atom   21 type  4   force =    -0.00005518    0.00019086    0.00011869
     atom   22 type  4   force =     0.00018698    0.00021835   -0.00079987
     atom   23 type  4   force =     0.00011734   -0.00010793   -0.00040055
     atom   24 type  4   force =     0.00007609    0.00060514   -0.00020637
     atom   25 type  4   force =    -0.00015168    0.00031884   -0.00049659
     atom   26 type  4   force =     0.00019448   -0.00002771    0.00003356
     atom   27 type  4   force =     0.00026375   -0.00034800    0.00008765
     atom   28 type  4   force =    -0.00000113    0.00033048    0.00015599
     atom   29 type  4   force =    -0.00018260   -0.00014280    0.00004795
     atom   30 type  4   force =    -0.00032639   -0.00049266   -0.00018022
     atom   31 type  4   force =     0.00004778   -0.00056133   -0.00005705
     atom   32 type  4   force =    -0.00012389    0.00031898    0.00021286
     atom   33 type  3   force =    -0.00015667    0.00004189    0.00013043
     atom   34 type  3   force =    -0.00032001   -0.00039034   -0.00002744
     atom   35 type  3   force =    -0.00014025    0.00054594    0.00023933
     atom   36 type  3   force =    -0.00001153   -0.00022471   -0.00001521
     atom   37 type  4   force =    -0.00030983    0.00045653    0.00019366
     atom   38 type  4   force =     0.00017635    0.00047588    0.00029491
     atom   39 type  4   force =    -0.00021589    0.00005306   -0.00030879
     atom   40 type  4   force =    -0.00022519   -0.00013497   -0.00024500
     atom   41 type  4   force =    -0.00001990    0.00031927    0.00005235
     atom   42 type  4   force =    -0.00010348    0.00068263   -0.00044724
     atom   43 type  4   force =     0.00039559   -0.00046214   -0.00037803
     atom   44 type  4   force =     0.00048257    0.00016071    0.00013492
     atom   45 type  4   force =    -0.00027924    0.00013614    0.00047796
     atom   46 type  4   force =     0.00026323    0.00030722   -0.00013850
     atom   47 type  4   force =     0.00016708    0.00027952    0.00013728
     atom   48 type  4   force =    -0.00008230    0.00013863    0.00018650
     atom   49 type  4   force =    -0.00035401    0.00057331   -0.00025321
     atom   50 type  4   force =     0.00039233    0.00012271   -0.00041751
     atom   51 type  4   force =    -0.00012809    0.00001247   -0.00016591
     atom   52 type  4   force =    -0.00054227   -0.00011621    0.00001652
     atom   53 type  2   force =     0.00217083   -0.00380243    0.00554049
     atom   54 type  1   force =     0.00498516   -0.00207684    0.00370403
     atom   55 type  1   force =     0.00737620   -0.00376263    0.00271179
     atom   56 type  1   force =    -0.00188719    0.01004025    0.00599868
     atom   57 type  1   force =     0.00025729    0.02298048    0.01467510
     atom   58 type  1   force =     0.00225672   -0.00321749   -0.00154967
     atom   59 type  1   force =     0.00133959   -0.00833997    0.00037871
     atom   60 type  1   force =    -0.00509105   -0.00175807    0.00455812
     atom   61 type  1   force =    -0.00125747   -0.00081667    0.00652183
     atom   62 type  1   force =    -0.00429087    0.00814722    0.00592848
     atom   63 type  1   force =    -0.01123733    0.02580672    0.01859486
     atom   64 type  1   force =    -0.00210217    0.00117824    0.00131298
     atom   65 type  3   force =     0.04607421   -0.11391236   -0.01086263
     atom   66 type  3   force =    -0.00012149   -0.00410584    0.00344227
     atom   67 type  3   force =    -0.03915689    0.12656734    0.01402511
     atom   68 type  3   force =     0.06278439   -0.00170443   -0.00348759
     atom   69 type  4   force =     0.01379621   -0.01823024    0.00375866
     atom   70 type  4   force =    -0.00089656    0.00285636   -0.00071194
     atom   71 type  4   force =    -0.00167628    0.00316881   -0.00583783
     atom   72 type  4   force =     0.00402618    0.00182863   -0.00055755
     atom   73 type  4   force =     0.00093680   -0.01139930    0.00302022
     atom   74 type  4   force =     0.00127056   -0.00094954   -0.00112897
     atom   75 type  4   force =    -0.00046071    0.01306034    0.00389092
     atom   76 type  4   force =     0.00828778    0.00527905    0.00928210
     atom   77 type  4   force =     0.00705917   -0.00260634    0.00162666
     atom   78 type  4   force =     0.04394400   -0.14222119   -0.00521618
     atom   79 type  4   force =     0.00179466    0.00195994    0.00141641
     atom   80 type  4   force =     0.00001872    0.00224456   -0.00177681
     atom   81 type  4   force =     0.06704762    0.00049911   -0.00602452
     atom   82 type  4   force =     0.00064258    0.00121547   -0.00109617
     atom   83 type  4   force =    -0.03920590    0.13481475    0.00273763
     atom   84 type  4   force =    -0.00293608   -0.01101061   -0.00403948
     atom   85 type  3   force =     0.03998708   -0.12004799   -0.01847328
     atom   86 type  3   force =    -0.06276435   -0.00170295    0.00693116
     atom   87 type  3   force =    -0.04489713    0.12581658    0.01816901
     atom   88 type  3   force =    -0.00175131    0.00003860    0.00254472
     atom   89 type  4   force =     0.00907829   -0.01537125    0.00409780
     atom   90 type  4   force =    -0.00472823    0.00142269    0.00081211
     atom   91 type  4   force =    -0.00890816    0.00812512   -0.00640888
     atom   92 type  4   force =     0.00007476    0.00014048   -0.00047455
     atom   93 type  4   force =    -0.00172619   -0.00831528    0.00754748
     atom   94 type  4   force =    -0.00483560    0.00081972    0.00057581
     atom   95 type  4   force =    -0.00563650    0.01336058    0.00782604
     atom   96 type  4   force =     0.00412361    0.00520853    0.00965304
     atom   97 type  4   force =     0.00003242    0.00042927    0.00072336
     atom   98 type  4   force =     0.04033892   -0.14148870   -0.00480934
     atom   99 type  4   force =    -0.06673790    0.00006487    0.00642138
     atom  100 type  4   force =    -0.00178734    0.00325961   -0.00260672
     atom  101 type  4   force =     0.00006745    0.00094232   -0.00041833
     atom  102 type  4   force =    -0.00621580    0.00435927   -0.00072461
     atom  103 type  4   force =    -0.04025074    0.13335596    0.00435072
     atom  104 type  4   force =    -0.00702997   -0.00990585   -0.00513467
     atom  105 type  2   force =     0.00409825   -0.00650772   -0.01826700
     atom  106 type  1   force =     0.02806924    0.01425555    0.01179481
     atom  107 type  1   force =     0.00872915   -0.00614063   -0.01427633
     atom  108 type  1   force =    -0.02830839    0.02160607    0.01879190
     atom  109 type  1   force =     0.00506485    0.01609474    0.00941349
     atom  110 type  1   force =    -0.00252175   -0.00873220   -0.00679851
     atom  111 type  1   force =    -0.00087621   -0.00951504   -0.01164554
     atom  112 type  1   force =     0.02908116    0.01750765    0.01149818
     atom  113 type  1   force =    -0.00072640   -0.00499959   -0.01410814
     atom  114 type  1   force =    -0.02956717    0.02065718    0.01857711
     atom  115 type  1   force =    -0.00721042    0.01849930    0.01213575
     atom  116 type  1   force =    -0.00555756   -0.00430891   -0.00297315
     atom  117 type  3   force =     0.01425668   -0.17391667   -0.10882051
     atom  118 type  3   force =     0.00514029   -0.00849128   -0.01270226
     atom  119 type  3   force =    -0.04467137    0.12492380   -0.00190812
     atom  120 type  3   force =     0.09507918   -0.04105381   -0.07974206
     atom  121 type  4   force =     0.00614289   -0.01704843    0.03719400
     atom  122 type  4   force =    -0.00342047    0.00361953    0.00452459
     atom  123 type  4   force =    -0.00087738    0.00254634   -0.00281609
     atom  124 type  4   force =     0.00847490    0.00219637    0.02694594
     atom  125 type  4   force =     0.00988462   -0.01689109    0.01597140
     atom  126 type  4   force =    -0.00745299    0.00097637   -0.00308656
     atom  127 type  4   force =     0.00397061    0.00968098    0.00046440
     atom  128 type  4   force =    -0.00062189   -0.00108966    0.03019092
     atom  129 type  4   force =    -0.00767555    0.02547307    0.00121377
     atom  130 type  4   force =     0.04339670   -0.14587241   -0.00191705
     atom  131 type  4   force =    -0.01738406   -0.00039603    0.00288266
     atom  132 type  4   force =     0.00343181    0.00265817    0.00199701
     atom  133 type  4   force =     0.06966192    0.00366818   -0.00191679
     atom  134 type  4   force =     0.00096373    0.00367429    0.00271309
     atom  135 type  4   force =    -0.02754009    0.17219831    0.00609239
     atom  136 type  4   force =     0.01953896   -0.00861118    0.00403693
     atom  137 type  3   force =     0.00909470   -0.16688274   -0.09427858
     atom  138 type  3   force =    -0.06464434   -0.00209984   -0.00498503
     atom  139 type  3   force =    -0.04872325    0.11825603    0.00150099
     atom  140 type  3   force =     0.03144672   -0.04324025   -0.07371504
     atom  141 type  4   force =     0.00468391   -0.01327985    0.03209239
     atom  142 type  4   force =    -0.00541432   -0.00036786    0.00436802
     atom  143 type  4   force =    -0.00821783    0.00806896   -0.00348006
     atom  144 type  4   force =     0.00382360    0.00139512    0.02754777
     atom  145 type  4   force =     0.00691386   -0.01299178    0.03236688
     atom  146 type  4   force =    -0.00874106   -0.00178056   -0.00304639
     atom  147 type  4   force =     0.00032173    0.00987805    0.00265143
     atom  148 type  4   force =    -0.00791644    0.00122086    0.02910502
     atom  149 type  4   force =    -0.01317509    0.02938310    0.00053171
     atom  150 type  4   force =     0.03977340   -0.13828261   -0.00140518
     atom  151 type  4   force =    -0.08612986   -0.00173507    0.00917993
     atom  152 type  4   force =     0.00124695    0.00388829    0.00142670
     atom  153 type  4   force =    -0.00356143    0.00085551    0.00296994
     atom  154 type  4   force =    -0.00588594    0.00603242    0.00130349
     atom  155 type  4   force =    -0.02795120    0.16640693    0.00487540
     atom  156 type  4   force =     0.01052225   -0.00971922   -0.00134272
     atom  157 type  4   force =    -0.01293407    0.00661121   -0.00545338
     atom  158 type  5   force =     0.01094023   -0.00707432    0.00243079

     Total force =     0.671555     Total SCF correction =     0.003444
 
     init_run     :      8.23s CPU      8.81s WALL (       1 calls)
     electrons    :    744.31s CPU    777.32s WALL (       1 calls)
     forces       :      4.02s CPU      4.34s WALL (       1 calls)
     force_london :      0.10s CPU      0.10s WALL (       1 calls)

     Called by init_run:
     wfcinit      :      4.84s CPU      4.97s WALL (       1 calls)
     potinit      :      0.77s CPU      0.96s WALL (       1 calls)
     hinit0       :      1.43s CPU      1.52s WALL (       1 calls)

     Called by electrons:
     c_bands      :    589.97s CPU    608.76s WALL (      56 calls)
     sum_band     :     99.10s CPU    106.73s WALL (      56 calls)
     v_of_rho     :     11.25s CPU     12.09s WALL (      57 calls)
     newd         :     29.41s CPU     35.34s WALL (      57 calls)
     mix_rho      :     14.56s CPU     14.62s WALL (      56 calls)
     energy_londo :      0.08s CPU      0.08s WALL (       1 calls)

     Called by c_bands:
     init_us_2    :      1.23s CPU      1.27s WALL (     228 calls)
     init_us_2:cp :      1.23s CPU      1.27s WALL (     228 calls)
     regterg      :    579.08s CPU    597.57s WALL (     114 calls)

     Called by *egterg:
     rdiaghg      :    166.22s CPU    175.18s WALL (     506 calls)
     h_psi        :    211.53s CPU    215.17s WALL (     508 calls)
     s_psi        :     32.17s CPU     32.18s WALL (     508 calls)
     g_psi        :      0.23s CPU      0.23s WALL (     392 calls)

     Called by h_psi:
     h_psi:calbec :     59.87s CPU     62.76s WALL (     508 calls)
     vloc_psi     :    117.15s CPU    117.56s WALL (     508 calls)
     add_vuspsi   :     34.12s CPU     34.46s WALL (     508 calls)

     General routines
     calbec       :     88.83s CPU     93.32s WALL (     628 calls)
     fft          :     22.59s CPU     23.70s WALL (    1039 calls)
     ffts         :      8.97s CPU      8.99s WALL (    6935 calls)
     fftw         :    136.77s CPU    137.23s WALL (  191594 calls)
     interpolate  :      0.97s CPU      1.02s WALL (     114 calls)
 
     Parallel routines
 
     PWSCF        :  12m38.73s CPU  13m12.94s WALL

 
   This run was terminated on:  19:42:46  19Nov2025            

=------------------------------------------------------------------------------=
   JOB DONE.
=------------------------------------------------------------------------------=
