
     Program PWSCF v.7.2 starts on 19Nov2025 at 22:20:41 

     This program is part of the open-source Quantum ESPRESSO suite
     for quantum simulation of materials; please cite
         "P. Giannozzi et al., J. Phys.:Condens. Matter 21 395502 (2009);
         "P. Giannozzi et al., J. Phys.:Condens. Matter 29 465901 (2017);
         "P. Giannozzi et al., J. Chem. Phys. 152 154105 (2020);
          URL http://www.quantum-espresso.org", 
     in publications or presentations arising from this work. More details at
     http://www.quantum-espresso.org/quote

     Parallel version (MPI), running on    64 processors

     MPI processes distributed on     4 nodes
     474188 MiB available memory on the printing compute node when the environment starts
 
     Reading input from PWINPUT_atm158_ym

     Current dimensions of program PWSCF are:
     Max number of different atomic species (ntypx) = 10
     Max number of k-points (npk) =  40000
     Max angular momentum in pseudopotentials (lmaxx) =  4
     Presently no symmetry can be used with electric field

     file Ni.pbe-n-rrkjus_psl.1.0.0.UPF: wavefunction(s)  3D renormalized
     file Mn.pbe-spn-rrkjus_psl.0.3.1.UPF: wavefunction(s)  3D renormalized
     file O.pbe-rrkjus.UPF: wavefunction(s)  2S renormalized
     file H.pbe-rrkjus.UPF: wavefunction(s)  1S renormalized

     gamma-point specific algorithms are used
 
     R & G space division:  proc/nbgrp/npool/nimage =      64
     Subspace diagonalization in iterative solution of the eigenvalue problem:
     one sub-group per band group will be used
     custom distributed-memory algorithm (size of sub-group:  6*  6 procs)

 
     Parallelization info
     --------------------
     sticks:   dense  smooth     PW     G-vecs:    dense   smooth      PW
     Min         208      82     20                59912    15118    1876
     Max         210      84     22                59974    15196    1926
     Sum       13399    5355   1345              3836275   970529  121367
 
     Using Slab Decomposition
 


     bravais-lattice index     =            0
     lattice parameter (alat)  =      17.7004  a.u.
     unit-cell volume          =   20319.7251 (a.u.)^3
     number of atoms/cell      =          158
     number of atomic types    =            5
     number of electrons       =      1078.00
     number of Kohn-Sham states=          647
     kinetic-energy cutoff     =      50.0000  Ry
     charge density cutoff     =     500.0000  Ry
     scf convergence threshold =      1.0E-06
     mixing beta               =       0.1000
     number of iterations used =            8  local-TF  mixing
     Exchange-correlation=  SLA  PW   PBE  PBE
                           (   1   4   3   4   0   0   0)

     celldm(1)=  17.700384  celldm(2)=   0.000000  celldm(3)=   0.000000
     celldm(4)=   0.000000  celldm(5)=   0.000000  celldm(6)=   0.000000

     crystal axes: (cart. coord. in units of alat)
               a(1) = (   1.000000   0.000000   0.000000 )  
               a(2) = (   0.000000   1.075730   0.000000 )  
               a(3) = (   0.000000   0.000000   3.406172 )  

     reciprocal axes: (cart. coord. in units 2 pi/alat)
               b(1) = (  1.000000  0.000000  0.000000 )  
               b(2) = (  0.000000  0.929602  0.000000 )  
               b(3) = (  0.000000  0.000000  0.293585 )  


     PseudoPot. # 1 for Ni read from file:
     ~/PSEUDO/Ni.pbe-n-rrkjus_psl.1.0.0.UPF
     MD5 check sum: Not computed, couldn't open file
     Pseudo is Ultrasoft + core correction, Zval = 10.0
     Generated using "atomic" code by A. Dal Corso  v.5.1.2
     Using radial grid of 1195 points,  6 beta functions with: 
                l(1) =   0
                l(2) =   0
                l(3) =   1
                l(4) =   1
                l(5) =   2
                l(6) =   2
     Q(r) pseudized with 0 coefficients 


     PseudoPot. # 2 for Mn read from file:
     ~/PSEUDO/Mn.pbe-spn-rrkjus_psl.0.3.1.UPF
     MD5 check sum: Not computed, couldn't open file
     Pseudo is Ultrasoft + core correction, Zval = 15.0
     Generated using &quot;atomic&quot; code by A. Dal Corso  v.6.2.2
     Using radial grid of 1187 points,  6 beta functions with: 
                l(1) =   0
                l(2) =   0
                l(3) =   1
                l(4) =   1
                l(5) =   2
                l(6) =   2
     Q(r) pseudized with 0 coefficients 


     PseudoPot. # 3 for P  read from file:
     ~/PSEUDO/P.pbe-n-rrkjus_psl.1.0.0.UPF
     MD5 check sum: Not computed, couldn't open file
     Pseudo is Ultrasoft + core correction, Zval =  5.0
     Generated using "atomic" code by A. Dal Corso  v.5.1
     Using radial grid of 1147 points,  6 beta functions with: 
                l(1) =   0
                l(2) =   0
                l(3) =   1
                l(4) =   1
                l(5) =   2
                l(6) =   2
     Q(r) pseudized with 0 coefficients 


     PseudoPot. # 4 for O  read from file:
     ~/PSEUDO/O.pbe-rrkjus.UPF
     MD5 check sum: Not computed, couldn't open file
     Pseudo is Ultrasoft, Zval =  6.0
     Generated by new atomic code, or converted to UPF format
     Using radial grid of 1269 points,  4 beta functions with: 
                l(1) =   0
                l(2) =   0
                l(3) =   1
                l(4) =   1
     Q(r) pseudized with 0 coefficients 


     PseudoPot. # 5 for H  read from file:
     ~/PSEUDO/H.pbe-rrkjus.UPF
     MD5 check sum: Not computed, couldn't open file
     Pseudo is Ultrasoft, Zval =  1.0
     Generated by new atomic code, or converted to UPF format
     Using radial grid of 1061 points,  2 beta functions with: 
                l(1) =   0
                l(2) =   0
     Q(r) pseudized with 0 coefficients 


     atomic species   valence    mass     pseudopotential
     Ni               10.00    58.69300     Ni( 1.00)
     Mn               15.00    54.93800     Mn( 1.00)
     P                 5.00    30.97300     P ( 1.00)
     O                 6.00    15.99900     O ( 1.00)
     H                 1.00     1.00790     H ( 1.00)

     Starting magnetic structure 
     atomic species   magnetization
     Ni              1.000
     Mn              1.000
     P               1.000
     O               1.000
     H               0.000

     No symmetry found



   Cartesian axes

     site n.     atom                  positions (alat units)
         1        Mn     tau(   1) = (   0.2514725   0.8403621   1.6922649  )
         2        Ni     tau(   2) = (   0.4981613   0.7732174   1.3698899  )
         3        Ni     tau(   3) = (   0.0016400   0.2965188   1.6763153  )
         4        Ni     tau(   4) = (   0.2604917   0.2384823   1.3674854  )
         5        Ni     tau(   5) = (   0.9976394   1.0763275   1.5332471  )
         6        Ni     tau(   6) = (   0.2562433   0.5373049   1.5311374  )
         7        Ni     tau(   7) = (   0.7534975   0.8335100   1.6761660  )
         8        Ni     tau(   8) = (   0.9915982   0.7733775   1.3721323  )
         9        Ni     tau(   9) = (   0.5140351   0.3046720   1.7065963  )
        10        Ni     tau(  10) = (   0.7602191   0.2367081   1.3680604  )
        11        Ni     tau(  11) = (   0.5007003   1.0777795   1.5342653  )
        12        Ni     tau(  12) = (   0.7546321   0.5336828   1.5343376  )
        13        P      tau(  13) = (   0.2114324   0.9730718   1.3787149  )
        14        P      tau(  14) = (   0.4677209   0.6466717   1.6883849  )
        15        P      tau(  15) = (   0.2879347   0.1165823   1.6895124  )
        16        P      tau(  16) = (   0.0433043   0.4322061   1.3717573  )
        17        O      tau(  17) = (   0.1354319   0.9024246   1.5162361  )
        18        O      tau(  18) = (   0.3901476   0.7094618   1.5447118  )
        19        O      tau(  19) = (   0.3653522   0.1703016   1.5451332  )
        20        O      tau(  20) = (   0.1220603   0.3621553   1.5078476  )
        21        O      tau(  21) = (   0.1483602   0.8811988   1.2566198  )
        22        O      tau(  22) = (   0.4071019   0.7461546   1.8042590  )
        23        O      tau(  23) = (   0.3454364   0.2138238   1.8062783  )
        24        O      tau(  24) = (   0.1034528   0.3447440   1.2451229  )
        25        O      tau(  25) = (   0.1022912   0.5877007   1.3760419  )
        26        O      tau(  26) = (   0.3424242   1.0329279   1.6966988  )
        27        O      tau(  27) = (   0.3794667   0.4262365   1.3824156  )
        28        O      tau(  28) = (   0.1224475   0.1157300   1.6781663  )
        29        O      tau(  29) = (   0.1306686   0.6530965   1.6813924  )
        30        O      tau(  30) = (   0.4060763   0.4924401   1.6874378  )
        31        O      tau(  31) = (   0.1505415   0.0512368   1.3772435  )
        32        O      tau(  32) = (   0.3750906   0.9649156   1.3868523  )
        33        P      tau(  33) = (   0.7107969   0.9709559   1.3722571  )
        34        P      tau(  34) = (   0.9650128   0.6455956   1.6946891  )
        35        P      tau(  35) = (   0.7894270   0.1050360   1.6939332  )
        36        P      tau(  36) = (   0.5438507   0.4295248   1.3733739  )
        37        O      tau(  37) = (   0.6327050   0.9000346   1.5082036  )
        38        O      tau(  38) = (   0.8878570   0.7057763   1.5484453  )
        39        O      tau(  39) = (   0.8648281   0.1699114   1.5490065  )
        40        O      tau(  40) = (   0.6200951   0.3574703   1.5092594  )
        41        O      tau(  41) = (   0.6501234   0.8827865   1.2460499  )
        42        O      tau(  42) = (   0.9049968   0.7432969   1.8094969  )
        43        O      tau(  43) = (   0.8531982   0.1989439   1.8109223  )
        44        O      tau(  44) = (   0.6040842   0.3418719   1.2462640  )
        45        O      tau(  45) = (   0.6050226   0.5845474   1.3766490  )
        46        O      tau(  46) = (   0.8468877   1.0236478   1.6902311  )
        47        O      tau(  47) = (   0.8794716   0.4244841   1.3846896  )
        48        O      tau(  48) = (   0.6245466   0.1082359   1.6834857  )
        49        O      tau(  49) = (   0.6319549   0.6522194   1.6764679  )
        50        O      tau(  50) = (   0.9116309   0.4875625   1.6930196  )
        51        O      tau(  51) = (   0.6514964   0.0501678   1.3760815  )
        52        O      tau(  52) = (   0.8747806   0.9631357   1.3846982  )
        53        Mn     tau(  53) = (   0.2404744   0.8246335   1.0701417  )
        54        Ni     tau(  54) = (   0.4968126   0.7601755   0.7454373  )
        55        Ni     tau(  55) = (   0.0066150   0.2811828   1.0628866  )
        56        Ni     tau(  56) = (   0.2585722   0.2230943   0.7421070  )
        57        Ni     tau(  57) = (   0.9987350   1.0571496   0.9014992  )
        58        Ni     tau(  58) = (   0.2517397   0.5205596   0.9040596  )
        59        Ni     tau(  59) = (   0.7451645   0.8212628   1.0648168  )
        60        Ni     tau(  60) = (   0.9939181   0.7613889   0.7462324  )
        61        Ni     tau(  61) = (   0.5111533   0.2799173   1.0618053  )
        62        Ni     tau(  62) = (   0.7606326   0.2194352   0.7418547  )
        63        Ni     tau(  63) = (   0.5024065   1.0563218   0.8999416  )
        64        Ni     tau(  64) = (   0.7529977   0.5192985   0.9024691  )
        65        P      tau(  65) = (   0.2092944   0.9606182   0.7524883  )
        66        P      tau(  66) = (   0.4655727   0.6234620   1.0595283  )
        67        P      tau(  67) = (   0.2910699   0.0902448   1.0573821  )
        68        P      tau(  68) = (   0.0396216   0.4163480   0.7471080  )
        69        O      tau(  69) = (   0.1294378   0.8888345   0.8859300  )
        70        O      tau(  70) = (   0.3874505   0.6929859   0.9232915  )
        71        O      tau(  71) = (   0.3702540   0.1589885   0.9209891  )
        72        O      tau(  72) = (   0.1184398   0.3458043   0.8831565  )
        73        O      tau(  73) = (   0.1451572   0.8725966   0.6282341  )
        74        O      tau(  74) = (   0.4048762   0.7120670   1.1852426  )
        75        O      tau(  75) = (   0.3523506   0.1775664   1.1834175  )
        76        O      tau(  76) = (   0.1017610   0.3285569   0.6213347  )
        77        O      tau(  77) = (   0.0975396   0.5724373   0.7511996  )
        78        O      tau(  78) = (   0.3483552   1.0190030   1.0599597  )
        79        O      tau(  79) = (   0.3784305   0.4100203   0.7560991  )
        80        O      tau(  80) = (   0.1268237   0.0943029   1.0477175  )
        81        O      tau(  81) = (   0.1212267   0.6299255   1.0507023  )
        82        O      tau(  82) = (   0.4053315   0.4684472   1.0569297  )
        83        O      tau(  83) = (   0.1536621   0.0322003   0.7496532  )
        84        O      tau(  84) = (   0.3732349   0.9506802   0.7613277  )
        85        P      tau(  85) = (   0.7119823   0.9571059   0.7496908  )
        86        P      tau(  86) = (   0.9615208   0.6238477   1.0606987  )
        87        P      tau(  87) = (   0.7927710   0.0845145   1.0577754  )
        88        P      tau(  88) = (   0.5426404   0.4144760   0.7459181  )
        89        O      tau(  89) = (   0.6326879   0.8866267   0.8856678  )
        90        O      tau(  90) = (   0.8842163   0.6958291   0.9244764  )
        91        O      tau(  91) = (   0.8716178   0.1552836   0.9216415  )
        92        O      tau(  92) = (   0.6212010   0.3433751   0.8818834  )
        93        O      tau(  93) = (   0.6507714   0.8687427   0.6238197  )
        94        O      tau(  94) = (   0.9014054   0.7139543   1.1859242  )
        95        O      tau(  95) = (   0.8548963   0.1722994   1.1834447  )
        96        O      tau(  96) = (   0.6044469   0.3253792   0.6209553  )
        97        O      tau(  97) = (   0.6024424   0.5698225   0.7490903  )
        98        O      tau(  98) = (   0.8498940   1.0129567   1.0594762  )
        99        O      tau(  99) = (   0.8798395   0.4080910   0.7564148  )
       100        O      tau( 100) = (   0.6286921   0.0909721   1.0472573  )
       101        O      tau( 101) = (   0.6294973   0.6302838   1.0497366  )
       102        O      tau( 102) = (   0.9024339   0.4685397   1.0573501  )
       103        O      tau( 103) = (   0.6547812   0.0286072   0.7473283  )
       104        O      tau( 104) = (   0.8760507   0.9507690   0.7605412  )
       105        Mn     tau( 105) = (   0.2404744   0.8121420   0.4502541  )
       106        Ni     tau( 106) = (   0.4968126   0.7476840   0.1255496  )
       107        Ni     tau( 107) = (   0.0066150   0.2686914   0.4429989  )
       108        Ni     tau( 108) = (   0.2585722   0.2106028   0.1222194  )
       109        Ni     tau( 109) = (   0.9987350   1.0446581   0.2816116  )
       110        Ni     tau( 110) = (   0.2517397   0.5080681   0.2841720  )
       111        Ni     tau( 111) = (   0.7451645   0.8087713   0.4449291  )
       112        Ni     tau( 112) = (   0.9939181   0.7488974   0.1263448  )
       113        Ni     tau( 113) = (   0.5111533   0.2674258   0.4419177  )
       114        Ni     tau( 114) = (   0.7606326   0.2069438   0.1219670  )
       115        Ni     tau( 115) = (   0.5024065   1.0438304   0.2800540  )
       116        Ni     tau( 116) = (   0.7529977   0.5068070   0.2825815  )
       117        P      tau( 117) = (   0.2092944   0.9481267   0.1326007  )
       118        P      tau( 118) = (   0.4655727   0.6109705   0.4396407  )
       119        P      tau( 119) = (   0.2910699   0.0777534   0.4374945  )
       120        P      tau( 120) = (   0.0396216   0.4038566   0.1272204  )
       121        O      tau( 121) = (   0.1294378   0.8763430   0.2660424  )
       122        O      tau( 122) = (   0.3874505   0.6804944   0.3034039  )
       123        O      tau( 123) = (   0.3702540   0.1464970   0.3011014  )
       124        O      tau( 124) = (   0.1184398   0.3333129   0.2632689  )
       125        O      tau( 125) = (   0.1451572   0.8601051   0.0083464  )
       126        O      tau( 126) = (   0.4048762   0.6995756   0.5653550  )
       127        O      tau( 127) = (   0.3523506   0.1650749   0.5635298  )
       128        O      tau( 128) = (   0.1017610   0.3160655   0.0014470  )
       129        O      tau( 129) = (   0.0975396   0.5599458   0.1313120  )
       130        O      tau( 130) = (   0.3483552   1.0065115   0.4400720  )
       131        O      tau( 131) = (   0.3784305   0.3975288   0.1362114  )
       132        O      tau( 132) = (   0.1268237   0.0818115   0.4278298  )
       133        O      tau( 133) = (   0.1212267   0.6174340   0.4308146  )
       134        O      tau( 134) = (   0.4053315   0.4559557   0.4370420  )
       135        O      tau( 135) = (   0.1536621   0.0197088   0.1297656  )
       136        O      tau( 136) = (   0.3732349   0.9381887   0.1414400  )
       137        P      tau( 137) = (   0.7119823   0.9446144   0.1298032  )
       138        P      tau( 138) = (   0.9615208   0.6113562   0.4408111  )
       139        P      tau( 139) = (   0.7927710   0.0720230   0.4378878  )
       140        P      tau( 140) = (   0.5426404   0.4019845   0.1260304  )
       141        O      tau( 141) = (   0.6326879   0.8741353   0.2657802  )
       142        O      tau( 142) = (   0.8842163   0.6833376   0.3045887  )
       143        O      tau( 143) = (   0.8716178   0.1427921   0.3017538  )
       144        O      tau( 144) = (   0.6212010   0.3308836   0.2619957  )
       145        O      tau( 145) = (   0.6507714   0.8562512   0.0039320  )
       146        O      tau( 146) = (   0.9014054   0.7014628   0.5660366  )
       147        O      tau( 147) = (   0.8548963   0.1598079   0.5635571  )
       148        O      tau( 148) = (   0.6044469   0.3128877   0.0010676  )
       149        O      tau( 149) = (   0.6024424   0.5573310   0.1292027  )
       150        O      tau( 150) = (   0.8498940   1.0004653   0.4395886  )
       151        O      tau( 151) = (   0.8798395   0.3955995   0.1365272  )
       152        O      tau( 152) = (   0.6286921   0.0784807   0.4273696  )
       153        O      tau( 153) = (   0.6294973   0.6177923   0.4298489  )
       154        O      tau( 154) = (   0.9024339   0.4560482   0.4374624  )
       155        O      tau( 155) = (   0.6547812   0.0161158   0.1274406  )
       156        O      tau( 156) = (   0.8760507   0.9382775   0.1406535  )
       157        O      tau( 157) = (   0.6249036   0.3860534   1.8440900  )
       158        H      tau( 158) = (   0.7081905   0.3247201   1.8689877  )

     -------------------------------------------------
     Parameters for Dispersion (Grimme-D2) Correction:
     -------------------------------------------------
       atom      VdW radius       C_6     

        Ni         2.952        374.666
        Mn         2.952        374.666
        P          3.222        271.980
        O          2.536         24.284
        H          1.892          4.857

     number of k points=     1  Gaussian smearing, width (Ry)=  0.0100
                       cart. coord. in units 2pi/alat
        k(    1) = (   0.0000000   0.0000000   0.0000000), wk =   1.0000000

     Dense  grid:  1918138 G-vectors     FFT dimensions: ( 125, 135, 432)

     Smooth grid:   485265 G-vectors     FFT dimensions: (  80,  90, 288)

     Estimated max dynamical RAM per process >     320.12 MB

     Estimated total dynamical RAM >      20.01 GB
     Generating pointlists ...
     new r_m :   0.0802 (alat units)  1.4199 (a.u.) for type    1
     new r_m :   0.0869 (alat units)  1.5388 (a.u.) for type    2
     new r_m :   0.0650 (alat units)  1.1499 (a.u.) for type    3
     new r_m :   0.0439 (alat units)  0.7768 (a.u.) for type    4
     new r_m :   0.0439 (alat units)  0.7768 (a.u.) for type    5

     Initial potential from superposition of free atoms

     starting charge    1077.8900, renormalised to    1078.0000

     negative rho (up, down):  1.223E-03 4.565E-04
 
     Adding external electric field

     Computed dipole along edir(3) : 
        Dipole                1.6256 Ry au,          4.1319 Debye
        Dipole field          0.0010 Ry au, 
 
        Potential amp.       -0.1091 Ry
        Total length         54.2615 bohr
 
 
     Adding external electric field

     Computed dipole along edir(3) : 
        Dipole                1.6256 Ry au,          4.1319 Debye
        Dipole field          0.0010 Ry au, 
 
        Potential amp.       -0.1091 Ry
        Total length         54.2615 bohr
 
     Starting wfcs are  812 randomized atomic wfcs

     total cpu time spent up to now is        9.5 secs

     Self-consistent Calculation

     iteration #  1     ecut=    50.00 Ry     beta= 0.10
     Davidson diagonalization with overlap
     ethr =  1.00E-02,  avg # of iterations =  6.0

     negative rho (up, down):  3.495E-01 2.911E-06
 
     Adding external electric field

     Computed dipole along edir(3) : 
        Dipole               -3.2036 Ry au,         -8.1428 Debye
        Dipole field         -0.0020 Ry au, 
 
        Potential amp.        0.2150 Ry
        Total length         54.2615 bohr
 
 
     Adding external electric field

     Computed dipole along edir(3) : 
        Dipole               -3.2036 Ry au,         -8.1428 Debye
        Dipole field         -0.0020 Ry au, 
 
        Potential amp.        0.2150 Ry
        Total length         54.2615 bohr
 

     total cpu time spent up to now is       33.9 secs

     total energy              =   -7180.58897115 Ry
     estimated scf accuracy    <     750.07563100 Ry

     total magnetization       =   216.00 Bohr mag/cell
     absolute magnetization    =   296.86 Bohr mag/cell

     iteration #  2     ecut=    50.00 Ry     beta= 0.10
     Davidson diagonalization with overlap
     ethr =  1.00E-02,  avg # of iterations =  2.0

     negative rho (up, down):  3.201E-01 2.748E-06
 
     Adding external electric field

     Computed dipole along edir(3) : 
        Dipole               -2.3636 Ry au,         -6.0077 Debye
        Dipole field         -0.0015 Ry au, 
 
        Potential amp.        0.1586 Ry
        Total length         54.2615 bohr
 
 
     Adding external electric field

     Computed dipole along edir(3) : 
        Dipole               -2.3636 Ry au,         -6.0077 Debye
        Dipole field         -0.0015 Ry au, 
 
        Potential amp.        0.1586 Ry
        Total length         54.2615 bohr
 

     total cpu time spent up to now is       48.1 secs

     total energy              =   -7264.92386599 Ry
     estimated scf accuracy    <     157.32555793 Ry

     total magnetization       =   144.11 Bohr mag/cell
     absolute magnetization    =   196.09 Bohr mag/cell

     iteration #  3     ecut=    50.00 Ry     beta= 0.10
     Davidson diagonalization with overlap
     ethr =  1.00E-02,  avg # of iterations =  1.5

     negative rho (up, down):  2.752E-01 2.482E-06
 
     Adding external electric field

     Computed dipole along edir(3) : 
        Dipole               -1.9284 Ry au,         -4.9016 Debye
        Dipole field         -0.0012 Ry au, 
 
        Potential amp.        0.1294 Ry
        Total length         54.2615 bohr
 
 
     Adding external electric field

     Computed dipole along edir(3) : 
        Dipole               -1.9284 Ry au,         -4.9016 Debye
        Dipole field         -0.0012 Ry au, 
 
        Potential amp.        0.1294 Ry
        Total length         54.2615 bohr
 

     total cpu time spent up to now is       59.3 secs

     total energy              =   -7298.66148665 Ry
     estimated scf accuracy    <      97.04288299 Ry

     total magnetization       =   121.55 Bohr mag/cell
     absolute magnetization    =   176.33 Bohr mag/cell

     iteration #  4     ecut=    50.00 Ry     beta= 0.10
     Davidson diagonalization with overlap
     ethr =  9.00E-03,  avg # of iterations =  1.5

     negative rho (up, down):  2.020E-01 9.400E-07
 
     Adding external electric field

     Computed dipole along edir(3) : 
        Dipole               -1.9863 Ry au,         -5.0488 Debye
        Dipole field         -0.0012 Ry au, 
 
        Potential amp.        0.1333 Ry
        Total length         54.2615 bohr
 
 
     Adding external electric field

     Computed dipole along edir(3) : 
        Dipole               -1.9863 Ry au,         -5.0488 Debye
        Dipole field         -0.0012 Ry au, 
 
        Potential amp.        0.1333 Ry
        Total length         54.2615 bohr
 

     total cpu time spent up to now is       70.7 secs

     total energy              =   -7331.49572868 Ry
     estimated scf accuracy    <      76.02238015 Ry

     total magnetization       =   104.84 Bohr mag/cell
     absolute magnetization    =   161.20 Bohr mag/cell

     iteration #  5     ecut=    50.00 Ry     beta= 0.10
     Davidson diagonalization with overlap
     ethr =  7.05E-03,  avg # of iterations =  1.5

     negative rho (up, down):  3.407E-03 4.174E-08
 
     Adding external electric field

     Computed dipole along edir(3) : 
        Dipole               -1.3358 Ry au,         -3.3954 Debye
        Dipole field         -0.0008 Ry au, 
 
        Potential amp.        0.0897 Ry
        Total length         54.2615 bohr
 
 
     Adding external electric field

     Computed dipole along edir(3) : 
        Dipole               -1.3358 Ry au,         -3.3954 Debye
        Dipole field         -0.0008 Ry au, 
 
        Potential amp.        0.0897 Ry
        Total length         54.2615 bohr
 

     total cpu time spent up to now is       81.9 secs

     total energy              =   -7388.44033582 Ry
     estimated scf accuracy    <      58.41748448 Ry

     total magnetization       =    88.00 Bohr mag/cell
     absolute magnetization    =   144.12 Bohr mag/cell

     iteration #  6     ecut=    50.00 Ry     beta= 0.10
     Davidson diagonalization with overlap
     ethr =  5.42E-03,  avg # of iterations =  1.5

     negative rho (up, down):  1.019E-05 2.176E-05
 
     Adding external electric field

     Computed dipole along edir(3) : 
        Dipole               -0.9149 Ry au,         -2.3253 Debye
        Dipole field         -0.0006 Ry au, 
 
        Potential amp.        0.0614 Ry
        Total length         54.2615 bohr
 
 
     Adding external electric field

     Computed dipole along edir(3) : 
        Dipole               -0.9149 Ry au,         -2.3253 Debye
        Dipole field         -0.0006 Ry au, 
 
        Potential amp.        0.0614 Ry
        Total length         54.2615 bohr
 

     total cpu time spent up to now is       92.9 secs

     total energy              =   -7395.86193769 Ry
     estimated scf accuracy    <       9.60510116 Ry

     total magnetization       =    79.55 Bohr mag/cell
     absolute magnetization    =   111.02 Bohr mag/cell

     iteration #  7     ecut=    50.00 Ry     beta= 0.10
     Davidson diagonalization with overlap
     ethr =  8.91E-04,  avg # of iterations =  4.5

     negative rho (up, down):  9.293E-06 1.844E-05
 
     Adding external electric field

     Computed dipole along edir(3) : 
        Dipole               -0.9180 Ry au,         -2.3333 Debye
        Dipole field         -0.0006 Ry au, 
 
        Potential amp.        0.0616 Ry
        Total length         54.2615 bohr
 
 
     Adding external electric field

     Computed dipole along edir(3) : 
        Dipole               -0.9180 Ry au,         -2.3333 Debye
        Dipole field         -0.0006 Ry au, 
 
        Potential amp.        0.0616 Ry
        Total length         54.2615 bohr
 

     total cpu time spent up to now is      109.6 secs

     total energy              =   -7397.60365247 Ry
     estimated scf accuracy    <      12.01329457 Ry

     total magnetization       =    71.40 Bohr mag/cell
     absolute magnetization    =    88.85 Bohr mag/cell

     iteration #  8     ecut=    50.00 Ry     beta= 0.10
     Davidson diagonalization with overlap
     ethr =  8.91E-04,  avg # of iterations =  1.0

     negative rho (up, down):  3.118E-04 1.813E-04
 
     Adding external electric field

     Computed dipole along edir(3) : 
        Dipole               -0.8045 Ry au,         -2.0448 Debye
        Dipole field         -0.0005 Ry au, 
 
        Potential amp.        0.0540 Ry
        Total length         54.2615 bohr
 
 
     Adding external electric field

     Computed dipole along edir(3) : 
        Dipole               -0.8045 Ry au,         -2.0448 Debye
        Dipole field         -0.0005 Ry au, 
 
        Potential amp.        0.0540 Ry
        Total length         54.2615 bohr
 

     total cpu time spent up to now is      119.8 secs

     total energy              =   -7397.60236851 Ry
     estimated scf accuracy    <      12.25263127 Ry

     total magnetization       =    71.32 Bohr mag/cell
     absolute magnetization    =    88.63 Bohr mag/cell

     iteration #  9     ecut=    50.00 Ry     beta= 0.10
     Davidson diagonalization with overlap
     ethr =  8.91E-04,  avg # of iterations =  1.0

     negative rho (up, down):  1.026E-02 7.598E-03
 
     Adding external electric field

     Computed dipole along edir(3) : 
        Dipole               -0.6819 Ry au,         -1.7333 Debye
        Dipole field         -0.0004 Ry au, 
 
        Potential amp.        0.0458 Ry
        Total length         54.2615 bohr
 
 
     Adding external electric field

     Computed dipole along edir(3) : 
        Dipole               -0.6819 Ry au,         -1.7333 Debye
        Dipole field         -0.0004 Ry au, 
 
        Potential amp.        0.0458 Ry
        Total length         54.2615 bohr
 

     total cpu time spent up to now is      130.0 secs

     total energy              =   -7397.55672078 Ry
     estimated scf accuracy    <       8.84941333 Ry

     total magnetization       =    71.98 Bohr mag/cell
     absolute magnetization    =    87.82 Bohr mag/cell

     iteration # 10     ecut=    50.00 Ry     beta= 0.10
     Davidson diagonalization with overlap
     ethr =  8.21E-04,  avg # of iterations =  1.5

     negative rho (up, down):  2.521E-02 2.160E-02
 
     Adding external electric field

     Computed dipole along edir(3) : 
        Dipole               -0.6227 Ry au,         -1.5827 Debye
        Dipole field         -0.0004 Ry au, 
 
        Potential amp.        0.0418 Ry
        Total length         54.2615 bohr
 
 
     Adding external electric field

     Computed dipole along edir(3) : 
        Dipole               -0.6227 Ry au,         -1.5827 Debye
        Dipole field         -0.0004 Ry au, 
 
        Potential amp.        0.0418 Ry
        Total length         54.2615 bohr
 

     total cpu time spent up to now is      140.7 secs

     total energy              =   -7397.60574862 Ry
     estimated scf accuracy    <       4.10234890 Ry

     total magnetization       =    74.37 Bohr mag/cell
     absolute magnetization    =    88.32 Bohr mag/cell

     iteration # 11     ecut=    50.00 Ry     beta= 0.10
     Davidson diagonalization with overlap
     ethr =  3.81E-04,  avg # of iterations =  2.0

     negative rho (up, down):  3.785E-02 3.569E-02
 
     Adding external electric field

     Computed dipole along edir(3) : 
        Dipole               -0.5210 Ry au,         -1.3243 Debye
        Dipole field         -0.0003 Ry au, 
 
        Potential amp.        0.0350 Ry
        Total length         54.2615 bohr
 
 
     Adding external electric field

     Computed dipole along edir(3) : 
        Dipole               -0.5210 Ry au,         -1.3243 Debye
        Dipole field         -0.0003 Ry au, 
 
        Potential amp.        0.0350 Ry
        Total length         54.2615 bohr
 

     total cpu time spent up to now is      151.6 secs

     total energy              =   -7397.73979859 Ry
     estimated scf accuracy    <       1.89067921 Ry

     total magnetization       =    77.65 Bohr mag/cell
     absolute magnetization    =    89.84 Bohr mag/cell

     iteration # 12     ecut=    50.00 Ry     beta= 0.10
     Davidson diagonalization with overlap
     ethr =  1.75E-04,  avg # of iterations =  6.5

     negative rho (up, down):  3.946E-02 3.820E-02
 
     Adding external electric field

     Computed dipole along edir(3) : 
        Dipole               -0.3951 Ry au,         -1.0042 Debye
        Dipole field         -0.0002 Ry au, 
 
        Potential amp.        0.0265 Ry
        Total length         54.2615 bohr
 
 
     Adding external electric field

     Computed dipole along edir(3) : 
        Dipole               -0.3951 Ry au,         -1.0042 Debye
        Dipole field         -0.0002 Ry au, 
 
        Potential amp.        0.0265 Ry
        Total length         54.2615 bohr
 

     total cpu time spent up to now is      164.8 secs

     total energy              =   -7397.86136706 Ry
     estimated scf accuracy    <       1.21048859 Ry

     total magnetization       =    79.95 Bohr mag/cell
     absolute magnetization    =    89.86 Bohr mag/cell

     iteration # 13     ecut=    50.00 Ry     beta= 0.10
     Davidson diagonalization with overlap
     ethr =  1.12E-04,  avg # of iterations = 20.5

     negative rho (up, down):  2.548E-02 2.570E-02
 
     Adding external electric field

     Computed dipole along edir(3) : 
        Dipole               -0.2647 Ry au,         -0.6727 Debye
        Dipole field         -0.0002 Ry au, 
 
        Potential amp.        0.0178 Ry
        Total length         54.2615 bohr
 
 
     Adding external electric field

     Computed dipole along edir(3) : 
        Dipole               -0.2647 Ry au,         -0.6727 Debye
        Dipole field         -0.0002 Ry au, 
 
        Potential amp.        0.0178 Ry
        Total length         54.2615 bohr
 

     total cpu time spent up to now is      193.4 secs

     total energy              =   -7397.91560046 Ry
     estimated scf accuracy    <       1.14046366 Ry

     total magnetization       =    79.99 Bohr mag/cell
     absolute magnetization    =    88.09 Bohr mag/cell

     iteration # 14     ecut=    50.00 Ry     beta= 0.10
     Davidson diagonalization with overlap
     ethr =  1.06E-04,  avg # of iterations =  1.0

     negative rho (up, down):  1.720E-02 1.695E-02
 
     Adding external electric field

     Computed dipole along edir(3) : 
        Dipole               -0.3548 Ry au,         -0.9018 Debye
        Dipole field         -0.0002 Ry au, 
 
        Potential amp.        0.0238 Ry
        Total length         54.2615 bohr
 
 
     Adding external electric field

     Computed dipole along edir(3) : 
        Dipole               -0.3548 Ry au,         -0.9018 Debye
        Dipole field         -0.0002 Ry au, 
 
        Potential amp.        0.0238 Ry
        Total length         54.2615 bohr
 

     total cpu time spent up to now is      203.1 secs

     total energy              =   -7397.86422070 Ry
     estimated scf accuracy    <       2.11510955 Ry

     total magnetization       =    80.88 Bohr mag/cell
     absolute magnetization    =    87.37 Bohr mag/cell

     iteration # 15     ecut=    50.00 Ry     beta= 0.10
     Davidson diagonalization with overlap
     ethr =  1.06E-04,  avg # of iterations =  1.0

     negative rho (up, down):  5.397E-03 5.840E-03
 
     Adding external electric field

     Computed dipole along edir(3) : 
        Dipole               -0.3820 Ry au,         -0.9709 Debye
        Dipole field         -0.0002 Ry au, 
 
        Potential amp.        0.0256 Ry
        Total length         54.2615 bohr
 
 
     Adding external electric field

     Computed dipole along edir(3) : 
        Dipole               -0.3820 Ry au,         -0.9709 Debye
        Dipole field         -0.0002 Ry au, 
 
        Potential amp.        0.0256 Ry
        Total length         54.2615 bohr
 

     total cpu time spent up to now is      212.8 secs

     total energy              =   -7397.86338010 Ry
     estimated scf accuracy    <       0.83645772 Ry

     total magnetization       =    79.79 Bohr mag/cell
     absolute magnetization    =    86.66 Bohr mag/cell

     iteration # 16     ecut=    50.00 Ry     beta= 0.10
     Davidson diagonalization with overlap
     ethr =  7.76E-05,  avg # of iterations =  1.0

     negative rho (up, down):  3.635E-03 4.016E-03
 
     Adding external electric field

     Computed dipole along edir(3) : 
        Dipole               -0.4037 Ry au,         -1.0261 Debye
        Dipole field         -0.0002 Ry au, 
 
        Potential amp.        0.0271 Ry
        Total length         54.2615 bohr
 
 
     Adding external electric field

     Computed dipole along edir(3) : 
        Dipole               -0.4037 Ry au,         -1.0261 Debye
        Dipole field         -0.0002 Ry au, 
 
        Potential amp.        0.0271 Ry
        Total length         54.2615 bohr
 

     total cpu time spent up to now is      222.5 secs

     total energy              =   -7397.95489145 Ry
     estimated scf accuracy    <       1.71768263 Ry

     total magnetization       =    78.36 Bohr mag/cell
     absolute magnetization    =    84.61 Bohr mag/cell

     iteration # 17     ecut=    50.00 Ry     beta= 0.10
     Davidson diagonalization with overlap
     ethr =  7.76E-05,  avg # of iterations =  1.0

     negative rho (up, down):  1.800E-03 2.186E-03
 
     Adding external electric field

     Computed dipole along edir(3) : 
        Dipole               -0.5241 Ry au,         -1.3322 Debye
        Dipole field         -0.0003 Ry au, 
 
        Potential amp.        0.0352 Ry
        Total length         54.2615 bohr
 
 
     Adding external electric field

     Computed dipole along edir(3) : 
        Dipole               -0.5241 Ry au,         -1.3322 Debye
        Dipole field         -0.0003 Ry au, 
 
        Potential amp.        0.0352 Ry
        Total length         54.2615 bohr
 

     total cpu time spent up to now is      232.6 secs

     total energy              =   -7398.00619669 Ry
     estimated scf accuracy    <       0.66364747 Ry

     total magnetization       =    80.31 Bohr mag/cell
     absolute magnetization    =    84.87 Bohr mag/cell

     iteration # 18     ecut=    50.00 Ry     beta= 0.10
     Davidson diagonalization with overlap
     ethr =  6.16E-05,  avg # of iterations =  1.0

     negative rho (up, down):  3.562E-04 5.356E-04
 
     Adding external electric field

     Computed dipole along edir(3) : 
        Dipole               -0.6602 Ry au,         -1.6781 Debye
        Dipole field         -0.0004 Ry au, 
 
        Potential amp.        0.0443 Ry
        Total length         54.2615 bohr
 
 
     Adding external electric field

     Computed dipole along edir(3) : 
        Dipole               -0.6602 Ry au,         -1.6781 Debye
        Dipole field         -0.0004 Ry au, 
 
        Potential amp.        0.0443 Ry
        Total length         54.2615 bohr
 

     total cpu time spent up to now is      242.6 secs

     total energy              =   -7398.02380028 Ry
     estimated scf accuracy    <       0.53650193 Ry

     total magnetization       =    80.04 Bohr mag/cell
     absolute magnetization    =    83.64 Bohr mag/cell

     iteration # 19     ecut=    50.00 Ry     beta= 0.10
     Davidson diagonalization with overlap
     ethr =  4.98E-05,  avg # of iterations =  1.5

     negative rho (up, down):  4.574E-03 4.962E-03
 
     Adding external electric field

     Computed dipole along edir(3) : 
        Dipole               -0.3990 Ry au,         -1.0141 Debye
        Dipole field         -0.0002 Ry au, 
 
        Potential amp.        0.0268 Ry
        Total length         54.2615 bohr
 
 
     Adding external electric field

     Computed dipole along edir(3) : 
        Dipole               -0.3990 Ry au,         -1.0141 Debye
        Dipole field         -0.0002 Ry au, 
 
        Potential amp.        0.0268 Ry
        Total length         54.2615 bohr
 

     total cpu time spent up to now is      253.0 secs

     total energy              =   -7397.88788585 Ry
     estimated scf accuracy    <       2.29382169 Ry

     total magnetization       =    78.48 Bohr mag/cell
     absolute magnetization    =    81.58 Bohr mag/cell

     iteration # 20     ecut=    50.00 Ry     beta= 0.10
     Davidson diagonalization with overlap
     ethr =  4.98E-05,  avg # of iterations =  2.0

     negative rho (up, down):  7.276E-04 1.170E-03
 
     Adding external electric field

     Computed dipole along edir(3) : 
        Dipole               -0.3922 Ry au,         -0.9970 Debye
        Dipole field         -0.0002 Ry au, 
 
        Potential amp.        0.0263 Ry
        Total length         54.2615 bohr
 
 
     Adding external electric field

     Computed dipole along edir(3) : 
        Dipole               -0.3922 Ry au,         -0.9970 Debye
        Dipole field         -0.0002 Ry au, 
 
        Potential amp.        0.0263 Ry
        Total length         54.2615 bohr
 

     total cpu time spent up to now is      264.2 secs

     total energy              =   -7398.00274894 Ry
     estimated scf accuracy    <       0.57297644 Ry

     total magnetization       =    79.99 Bohr mag/cell
     absolute magnetization    =    84.35 Bohr mag/cell

     iteration # 21     ecut=    50.00 Ry     beta= 0.10
     Davidson diagonalization with overlap
     ethr =  4.98E-05,  avg # of iterations =  1.5

     negative rho (up, down):  7.682E-05 2.682E-04
 
     Adding external electric field

     Computed dipole along edir(3) : 
        Dipole               -0.3874 Ry au,         -0.9846 Debye
        Dipole field         -0.0002 Ry au, 
 
        Potential amp.        0.0260 Ry
        Total length         54.2615 bohr
 
 
     Adding external electric field

     Computed dipole along edir(3) : 
        Dipole               -0.3874 Ry au,         -0.9846 Debye
        Dipole field         -0.0002 Ry au, 
 
        Potential amp.        0.0260 Ry
        Total length         54.2615 bohr
 

     total cpu time spent up to now is      274.5 secs

     total energy              =   -7398.02447278 Ry
     estimated scf accuracy    <       0.26634354 Ry

     total magnetization       =    81.16 Bohr mag/cell
     absolute magnetization    =    83.23 Bohr mag/cell

     iteration # 22     ecut=    50.00 Ry     beta= 0.10
     Davidson diagonalization with overlap
     ethr =  2.47E-05,  avg # of iterations =  1.0

     negative rho (up, down):  2.457E-04 3.643E-04
 
     Adding external electric field

     Computed dipole along edir(3) : 
        Dipole               -0.4325 Ry au,         -1.0993 Debye
        Dipole field         -0.0003 Ry au, 
 
        Potential amp.        0.0290 Ry
        Total length         54.2615 bohr
 
 
     Adding external electric field

     Computed dipole along edir(3) : 
        Dipole               -0.4325 Ry au,         -1.0993 Debye
        Dipole field         -0.0003 Ry au, 
 
        Potential amp.        0.0290 Ry
        Total length         54.2615 bohr
 

     total cpu time spent up to now is      284.3 secs

     total energy              =   -7398.02624118 Ry
     estimated scf accuracy    <       0.36627880 Ry

     total magnetization       =    80.16 Bohr mag/cell
     absolute magnetization    =    82.17 Bohr mag/cell

     iteration # 23     ecut=    50.00 Ry     beta= 0.10
     Davidson diagonalization with overlap
     ethr =  2.47E-05,  avg # of iterations =  1.0

     negative rho (up, down):  2.836E-04 2.760E-04
 
     Adding external electric field

     Computed dipole along edir(3) : 
        Dipole               -0.4064 Ry au,         -1.0329 Debye
        Dipole field         -0.0003 Ry au, 
 
        Potential amp.        0.0273 Ry
        Total length         54.2615 bohr
 
 
     Adding external electric field

     Computed dipole along edir(3) : 
        Dipole               -0.4064 Ry au,         -1.0329 Debye
        Dipole field         -0.0003 Ry au, 
 
        Potential amp.        0.0273 Ry
        Total length         54.2615 bohr
 

     total cpu time spent up to now is      294.5 secs

     total energy              =   -7398.03238244 Ry
     estimated scf accuracy    <       0.08709339 Ry

     total magnetization       =    79.69 Bohr mag/cell
     absolute magnetization    =    81.35 Bohr mag/cell

     iteration # 24     ecut=    50.00 Ry     beta= 0.10
     Davidson diagonalization with overlap
     ethr =  8.08E-06,  avg # of iterations =  2.0

     negative rho (up, down):  1.977E-04 1.229E-04
 
     Adding external electric field

     Computed dipole along edir(3) : 
        Dipole               -0.3851 Ry au,         -0.9787 Debye
        Dipole field         -0.0002 Ry au, 
 
        Potential amp.        0.0258 Ry
        Total length         54.2615 bohr
 
 
     Adding external electric field

     Computed dipole along edir(3) : 
        Dipole               -0.3851 Ry au,         -0.9787 Debye
        Dipole field         -0.0002 Ry au, 
 
        Potential amp.        0.0258 Ry
        Total length         54.2615 bohr
 

     total cpu time spent up to now is      306.0 secs

     total energy              =   -7398.03272090 Ry
     estimated scf accuracy    <       0.12586789 Ry

     total magnetization       =    80.25 Bohr mag/cell
     absolute magnetization    =    81.88 Bohr mag/cell

     iteration # 25     ecut=    50.00 Ry     beta= 0.10
     Davidson diagonalization with overlap
     ethr =  8.08E-06,  avg # of iterations =  2.0

     negative rho (up, down):  8.109E-05 2.427E-05
 
     Adding external electric field

     Computed dipole along edir(3) : 
        Dipole               -0.3555 Ry au,         -0.9035 Debye
        Dipole field         -0.0002 Ry au, 
 
        Potential amp.        0.0239 Ry
        Total length         54.2615 bohr
 
 
     Adding external electric field

     Computed dipole along edir(3) : 
        Dipole               -0.3555 Ry au,         -0.9035 Debye
        Dipole field         -0.0002 Ry au, 
 
        Potential amp.        0.0239 Ry
        Total length         54.2615 bohr
 

     total cpu time spent up to now is      317.1 secs

     total energy              =   -7398.03220876 Ry
     estimated scf accuracy    <       0.10430748 Ry

     total magnetization       =    80.26 Bohr mag/cell
     absolute magnetization    =    81.86 Bohr mag/cell

     iteration # 26     ecut=    50.00 Ry     beta= 0.10
     Davidson diagonalization with overlap
     ethr =  8.08E-06,  avg # of iterations =  2.0

     negative rho (up, down):  2.381E-05 6.699E-07
 
     Adding external electric field

     Computed dipole along edir(3) : 
        Dipole               -0.3383 Ry au,         -0.8599 Debye
        Dipole field         -0.0002 Ry au, 
 
        Potential amp.        0.0227 Ry
        Total length         54.2615 bohr
 
 
     Adding external electric field

     Computed dipole along edir(3) : 
        Dipole               -0.3383 Ry au,         -0.8599 Debye
        Dipole field         -0.0002 Ry au, 
 
        Potential amp.        0.0227 Ry
        Total length         54.2615 bohr
 

     total cpu time spent up to now is      328.5 secs

     total energy              =   -7398.02966317 Ry
     estimated scf accuracy    <       0.10482329 Ry

     total magnetization       =    80.45 Bohr mag/cell
     absolute magnetization    =    82.01 Bohr mag/cell

     iteration # 27     ecut=    50.00 Ry     beta= 0.10
     Davidson diagonalization with overlap
     ethr =  8.08E-06,  avg # of iterations =  2.0

     negative rho (up, down):  3.930E-05 1.642E-06
 
     Adding external electric field

     Computed dipole along edir(3) : 
        Dipole               -0.3226 Ry au,         -0.8201 Debye
        Dipole field         -0.0002 Ry au, 
 
        Potential amp.        0.0217 Ry
        Total length         54.2615 bohr
 
 
     Adding external electric field

     Computed dipole along edir(3) : 
        Dipole               -0.3226 Ry au,         -0.8201 Debye
        Dipole field         -0.0002 Ry au, 
 
        Potential amp.        0.0217 Ry
        Total length         54.2615 bohr
 

     total cpu time spent up to now is      339.9 secs

     total energy              =   -7398.03009445 Ry
     estimated scf accuracy    <       0.05768550 Ry

     total magnetization       =    80.29 Bohr mag/cell
     absolute magnetization    =    81.89 Bohr mag/cell

     iteration # 28     ecut=    50.00 Ry     beta= 0.10
     Davidson diagonalization with overlap
     ethr =  5.35E-06,  avg # of iterations = 12.5

     negative rho (up, down):  3.361E-05 2.628E-06
 
     Adding external electric field

     Computed dipole along edir(3) : 
        Dipole               -0.3072 Ry au,         -0.7808 Debye
        Dipole field         -0.0002 Ry au, 
 
        Potential amp.        0.0206 Ry
        Total length         54.2615 bohr
 
 
     Adding external electric field

     Computed dipole along edir(3) : 
        Dipole               -0.3072 Ry au,         -0.7808 Debye
        Dipole field         -0.0002 Ry au, 
 
        Potential amp.        0.0206 Ry
        Total length         54.2615 bohr
 

     total cpu time spent up to now is      361.1 secs

     total energy              =   -7398.02949805 Ry
     estimated scf accuracy    <       0.04443487 Ry

     total magnetization       =    80.39 Bohr mag/cell
     absolute magnetization    =    81.94 Bohr mag/cell

     iteration # 29     ecut=    50.00 Ry     beta= 0.10
     Davidson diagonalization with overlap
     ethr =  4.12E-06,  avg # of iterations = 15.0

     negative rho (up, down):  3.895E-05 1.151E-05
 
     Adding external electric field

     Computed dipole along edir(3) : 
        Dipole               -0.2508 Ry au,         -0.6375 Debye
        Dipole field         -0.0002 Ry au, 
 
        Potential amp.        0.0168 Ry
        Total length         54.2615 bohr
 
 
     Adding external electric field

     Computed dipole along edir(3) : 
        Dipole               -0.2508 Ry au,         -0.6375 Debye
        Dipole field         -0.0002 Ry au, 
 
        Potential amp.        0.0168 Ry
        Total length         54.2615 bohr
 

     total cpu time spent up to now is      383.7 secs

     total energy              =   -7398.02800786 Ry
     estimated scf accuracy    <       0.02673642 Ry

     total magnetization       =    80.18 Bohr mag/cell
     absolute magnetization    =    81.78 Bohr mag/cell

     iteration # 30     ecut=    50.00 Ry     beta= 0.10
     Davidson diagonalization with overlap
     ethr =  2.48E-06,  avg # of iterations =  8.0

     negative rho (up, down):  3.248E-05 3.878E-06
 
     Adding external electric field

     Computed dipole along edir(3) : 
        Dipole               -0.2477 Ry au,         -0.6296 Debye
        Dipole field         -0.0002 Ry au, 
 
        Potential amp.        0.0166 Ry
        Total length         54.2615 bohr
 
 
     Adding external electric field

     Computed dipole along edir(3) : 
        Dipole               -0.2477 Ry au,         -0.6296 Debye
        Dipole field         -0.0002 Ry au, 
 
        Potential amp.        0.0166 Ry
        Total length         54.2615 bohr
 

     total cpu time spent up to now is      397.4 secs

     total energy              =   -7398.02787685 Ry
     estimated scf accuracy    <       0.09308221 Ry

     total magnetization       =    80.39 Bohr mag/cell
     absolute magnetization    =    82.05 Bohr mag/cell

     iteration # 31     ecut=    50.00 Ry     beta= 0.10
     Davidson diagonalization with overlap
     ethr =  2.48E-06,  avg # of iterations =  2.0

     negative rho (up, down):  1.197E-04 4.653E-05
 
     Adding external electric field

     Computed dipole along edir(3) : 
        Dipole               -0.2391 Ry au,         -0.6078 Debye
        Dipole field         -0.0001 Ry au, 
 
        Potential amp.        0.0160 Ry
        Total length         54.2615 bohr
 
 
     Adding external electric field

     Computed dipole along edir(3) : 
        Dipole               -0.2391 Ry au,         -0.6078 Debye
        Dipole field         -0.0001 Ry au, 
 
        Potential amp.        0.0160 Ry
        Total length         54.2615 bohr
 

     total cpu time spent up to now is      408.9 secs

     total energy              =   -7398.02877235 Ry
     estimated scf accuracy    <       0.05977100 Ry

     total magnetization       =    80.31 Bohr mag/cell
     absolute magnetization    =    81.91 Bohr mag/cell

     iteration # 32     ecut=    50.00 Ry     beta= 0.10
     Davidson diagonalization with overlap
     ethr =  2.48E-06,  avg # of iterations =  2.0

     negative rho (up, down):  2.288E-05 2.493E-06
 
     Adding external electric field

     Computed dipole along edir(3) : 
        Dipole               -0.2690 Ry au,         -0.6838 Debye
        Dipole field         -0.0002 Ry au, 
 
        Potential amp.        0.0181 Ry
        Total length         54.2615 bohr
 
 
     Adding external electric field

     Computed dipole along edir(3) : 
        Dipole               -0.2690 Ry au,         -0.6838 Debye
        Dipole field         -0.0002 Ry au, 
 
        Potential amp.        0.0181 Ry
        Total length         54.2615 bohr
 

     total cpu time spent up to now is      420.6 secs

     total energy              =   -7398.02806597 Ry
     estimated scf accuracy    <       0.03589372 Ry

     total magnetization       =    80.23 Bohr mag/cell
     absolute magnetization    =    81.87 Bohr mag/cell

     iteration # 33     ecut=    50.00 Ry     beta= 0.10
     Davidson diagonalization with overlap
     ethr =  2.48E-06,  avg # of iterations =  2.0

     negative rho (up, down):  1.355E-04 2.914E-05
 
     Adding external electric field

     Computed dipole along edir(3) : 
        Dipole               -0.1683 Ry au,         -0.4279 Debye
        Dipole field         -0.0001 Ry au, 
 
        Potential amp.        0.0113 Ry
        Total length         54.2615 bohr
 
 
     Adding external electric field

     Computed dipole along edir(3) : 
        Dipole               -0.1683 Ry au,         -0.4279 Debye
        Dipole field         -0.0001 Ry au, 
 
        Potential amp.        0.0113 Ry
        Total length         54.2615 bohr
 

     total cpu time spent up to now is      431.9 secs

     total energy              =   -7398.02743502 Ry
     estimated scf accuracy    <       0.05785540 Ry

     total magnetization       =    80.31 Bohr mag/cell
     absolute magnetization    =    81.92 Bohr mag/cell

     iteration # 34     ecut=    50.00 Ry     beta= 0.10
     Davidson diagonalization with overlap
     ethr =  2.48E-06,  avg # of iterations =  2.0

     negative rho (up, down):  3.473E-04 1.976E-04
 
     Adding external electric field

     Computed dipole along edir(3) : 
        Dipole               -0.1018 Ry au,         -0.2587 Debye
        Dipole field         -0.0001 Ry au, 
 
        Potential amp.        0.0068 Ry
        Total length         54.2615 bohr
 
 
     Adding external electric field

     Computed dipole along edir(3) : 
        Dipole               -0.1018 Ry au,         -0.2587 Debye
        Dipole field         -0.0001 Ry au, 
 
        Potential amp.        0.0068 Ry
        Total length         54.2615 bohr
 

     total cpu time spent up to now is      443.0 secs

     total energy              =   -7398.02942681 Ry
     estimated scf accuracy    <       0.04243183 Ry

     total magnetization       =    80.19 Bohr mag/cell
     absolute magnetization    =    81.80 Bohr mag/cell

     iteration # 35     ecut=    50.00 Ry     beta= 0.10
     Davidson diagonalization with overlap
     ethr =  2.48E-06,  avg # of iterations =  2.0

     negative rho (up, down):  6.446E-04 5.424E-04
 
     Adding external electric field

     Computed dipole along edir(3) : 
        Dipole               -0.0064 Ry au,         -0.0162 Debye
        Dipole field         -0.0000 Ry au, 
 
        Potential amp.        0.0004 Ry
        Total length         54.2615 bohr
 
 
     Adding external electric field

     Computed dipole along edir(3) : 
        Dipole               -0.0064 Ry au,         -0.0162 Debye
        Dipole field         -0.0000 Ry au, 
 
        Potential amp.        0.0004 Ry
        Total length         54.2615 bohr
 

     total cpu time spent up to now is      454.0 secs

     total energy              =   -7398.03072949 Ry
     estimated scf accuracy    <       0.02678290 Ry

     total magnetization       =    80.18 Bohr mag/cell
     absolute magnetization    =    81.76 Bohr mag/cell

     iteration # 36     ecut=    50.00 Ry     beta= 0.10
     Davidson diagonalization with overlap
     ethr =  2.48E-06,  avg # of iterations =  8.5

     negative rho (up, down):  1.558E-03 1.525E-03
 
     Adding external electric field

     Computed dipole along edir(3) : 
        Dipole                0.0571 Ry au,          0.1452 Debye
        Dipole field          0.0000 Ry au, 
 
        Potential amp.       -0.0038 Ry
        Total length         54.2615 bohr
 
 
     Adding external electric field

     Computed dipole along edir(3) : 
        Dipole                0.0571 Ry au,          0.1452 Debye
        Dipole field          0.0000 Ry au, 
 
        Potential amp.       -0.0038 Ry
        Total length         54.2615 bohr
 

     total cpu time spent up to now is      468.2 secs

     total energy              =   -7398.03087706 Ry
     estimated scf accuracy    <       0.02356543 Ry

     total magnetization       =    80.13 Bohr mag/cell
     absolute magnetization    =    81.64 Bohr mag/cell

     iteration # 37     ecut=    50.00 Ry     beta= 0.10
     Davidson diagonalization with overlap
     ethr =  2.19E-06,  avg # of iterations =  2.0

     negative rho (up, down):  5.967E-04 6.488E-04
 
     Adding external electric field

     Computed dipole along edir(3) : 
        Dipole                0.1214 Ry au,          0.3086 Debye
        Dipole field          0.0001 Ry au, 
 
        Potential amp.       -0.0081 Ry
        Total length         54.2615 bohr
 
 
     Adding external electric field

     Computed dipole along edir(3) : 
        Dipole                0.1214 Ry au,          0.3086 Debye
        Dipole field          0.0001 Ry au, 
 
        Potential amp.       -0.0081 Ry
        Total length         54.2615 bohr
 

     total cpu time spent up to now is      479.6 secs

     total energy              =   -7398.03011839 Ry
     estimated scf accuracy    <       0.02063934 Ry

     total magnetization       =    80.09 Bohr mag/cell
     absolute magnetization    =    81.58 Bohr mag/cell

     iteration # 38     ecut=    50.00 Ry     beta= 0.10
     Davidson diagonalization with overlap
     ethr =  1.91E-06,  avg # of iterations =  4.0

     negative rho (up, down):  3.907E-03 4.181E-03
 
     Adding external electric field

     Computed dipole along edir(3) : 
        Dipole                0.1871 Ry au,          0.4756 Debye
        Dipole field          0.0001 Ry au, 
 
        Potential amp.       -0.0126 Ry
        Total length         54.2615 bohr
 
 
     Adding external electric field

     Computed dipole along edir(3) : 
        Dipole                0.1871 Ry au,          0.4756 Debye
        Dipole field          0.0001 Ry au, 
 
        Potential amp.       -0.0126 Ry
        Total length         54.2615 bohr
 

     total cpu time spent up to now is      492.0 secs

     total energy              =   -7398.02994942 Ry
     estimated scf accuracy    <       0.04332647 Ry

     total magnetization       =    80.22 Bohr mag/cell
     absolute magnetization    =    81.70 Bohr mag/cell

     iteration # 39     ecut=    50.00 Ry     beta= 0.10
     Davidson diagonalization with overlap
     ethr =  1.91E-06,  avg # of iterations = 12.0

     negative rho (up, down):  7.065E-03 7.549E-03
 
     Adding external electric field

     Computed dipole along edir(3) : 
        Dipole                0.2916 Ry au,          0.7412 Debye
        Dipole field          0.0002 Ry au, 
 
        Potential amp.       -0.0196 Ry
        Total length         54.2615 bohr
 
 
     Adding external electric field

     Computed dipole along edir(3) : 
        Dipole                0.2916 Ry au,          0.7412 Debye
        Dipole field          0.0002 Ry au, 
 
        Potential amp.       -0.0196 Ry
        Total length         54.2615 bohr
 

     total cpu time spent up to now is      508.3 secs

     total energy              =   -7398.03019459 Ry
     estimated scf accuracy    <       0.01511789 Ry

     total magnetization       =    80.00 Bohr mag/cell
     absolute magnetization    =    81.47 Bohr mag/cell

     iteration # 40     ecut=    50.00 Ry     beta= 0.10
     Davidson diagonalization with overlap
     c_bands:  4 eigenvalues not converged
     c_bands:  2 eigenvalues not converged
     ethr =  1.40E-06,  avg # of iterations = 30.0

     negative rho (up, down):  7.664E-03 8.093E-03
 
     Adding external electric field

     Computed dipole along edir(3) : 
        Dipole                0.3009 Ry au,          0.7647 Debye
        Dipole field          0.0002 Ry au, 
 
        Potential amp.       -0.0202 Ry
        Total length         54.2615 bohr
 
 
     Adding external electric field

     Computed dipole along edir(3) : 
        Dipole                0.3009 Ry au,          0.7647 Debye
        Dipole field          0.0002 Ry au, 
 
        Potential amp.       -0.0202 Ry
        Total length         54.2615 bohr
 

     total cpu time spent up to now is      538.0 secs

     total energy              =   -7398.03035315 Ry
     estimated scf accuracy    <       0.01859874 Ry

     total magnetization       =    80.02 Bohr mag/cell
     absolute magnetization    =    81.51 Bohr mag/cell

     iteration # 41     ecut=    50.00 Ry     beta= 0.10
     Davidson diagonalization with overlap
     c_bands:  2 eigenvalues not converged
     ethr =  1.40E-06,  avg # of iterations = 11.0

     negative rho (up, down):  4.128E-03 4.967E-03
 
     Adding external electric field

     Computed dipole along edir(3) : 
        Dipole                0.2997 Ry au,          0.7618 Debye
        Dipole field          0.0002 Ry au, 
 
        Potential amp.       -0.0201 Ry
        Total length         54.2615 bohr
 
 
     Adding external electric field

     Computed dipole along edir(3) : 
        Dipole                0.2997 Ry au,          0.7618 Debye
        Dipole field          0.0002 Ry au, 
 
        Potential amp.       -0.0201 Ry
        Total length         54.2615 bohr
 

     total cpu time spent up to now is      553.4 secs

     total energy              =   -7398.02924862 Ry
     estimated scf accuracy    <       0.01877995 Ry

     total magnetization       =    80.06 Bohr mag/cell
     absolute magnetization    =    81.54 Bohr mag/cell

     iteration # 42     ecut=    50.00 Ry     beta= 0.10
     Davidson diagonalization with overlap
     ethr =  1.40E-06,  avg # of iterations =  6.0

     negative rho (up, down):  3.127E-03 4.182E-03
 
     Adding external electric field

     Computed dipole along edir(3) : 
        Dipole                0.3175 Ry au,          0.8070 Debye
        Dipole field          0.0002 Ry au, 
 
        Potential amp.       -0.0213 Ry
        Total length         54.2615 bohr
 
 
     Adding external electric field

     Computed dipole along edir(3) : 
        Dipole                0.3175 Ry au,          0.8070 Debye
        Dipole field          0.0002 Ry au, 
 
        Potential amp.       -0.0213 Ry
        Total length         54.2615 bohr
 

     total cpu time spent up to now is      566.9 secs

     total energy              =   -7398.02805390 Ry
     estimated scf accuracy    <       0.01384863 Ry

     total magnetization       =    80.04 Bohr mag/cell
     absolute magnetization    =    81.65 Bohr mag/cell

     iteration # 43     ecut=    50.00 Ry     beta= 0.10
     Davidson diagonalization with overlap
     ethr =  1.28E-06,  avg # of iterations =  2.0

     negative rho (up, down):  3.957E-03 4.977E-03
 
     Adding external electric field

     Computed dipole along edir(3) : 
        Dipole                0.3562 Ry au,          0.9054 Debye
        Dipole field          0.0002 Ry au, 
 
        Potential amp.       -0.0239 Ry
        Total length         54.2615 bohr
 
 
     Adding external electric field

     Computed dipole along edir(3) : 
        Dipole                0.3562 Ry au,          0.9054 Debye
        Dipole field          0.0002 Ry au, 
 
        Potential amp.       -0.0239 Ry
        Total length         54.2615 bohr
 

     total cpu time spent up to now is      578.4 secs

     total energy              =   -7398.02780905 Ry
     estimated scf accuracy    <       0.01293279 Ry

     total magnetization       =    80.06 Bohr mag/cell
     absolute magnetization    =    81.80 Bohr mag/cell

     iteration # 44     ecut=    50.00 Ry     beta= 0.10
     Davidson diagonalization with overlap
     ethr =  1.20E-06,  avg # of iterations =  2.0

     negative rho (up, down):  2.754E-03 3.282E-03
 
     Adding external electric field

     Computed dipole along edir(3) : 
        Dipole                0.3208 Ry au,          0.8154 Debye
        Dipole field          0.0002 Ry au, 
 
        Potential amp.       -0.0215 Ry
        Total length         54.2615 bohr
 
 
     Adding external electric field

     Computed dipole along edir(3) : 
        Dipole                0.3208 Ry au,          0.8154 Debye
        Dipole field          0.0002 Ry au, 
 
        Potential amp.       -0.0215 Ry
        Total length         54.2615 bohr
 

     total cpu time spent up to now is      589.6 secs

     total energy              =   -7398.02794300 Ry
     estimated scf accuracy    <       0.00886350 Ry

     total magnetization       =    80.08 Bohr mag/cell
     absolute magnetization    =    81.87 Bohr mag/cell

     iteration # 45     ecut=    50.00 Ry     beta= 0.10
     Davidson diagonalization with overlap
     ethr =  8.22E-07,  avg # of iterations =  2.0

     negative rho (up, down):  1.736E-03 1.948E-03
 
     Adding external electric field

     Computed dipole along edir(3) : 
        Dipole                0.2809 Ry au,          0.7141 Debye
        Dipole field          0.0002 Ry au, 
 
        Potential amp.       -0.0189 Ry
        Total length         54.2615 bohr
 
 
     Adding external electric field

     Computed dipole along edir(3) : 
        Dipole                0.2809 Ry au,          0.7141 Debye
        Dipole field          0.0002 Ry au, 
 
        Potential amp.       -0.0189 Ry
        Total length         54.2615 bohr
 

     total cpu time spent up to now is      600.8 secs

     total energy              =   -7398.02840973 Ry
     estimated scf accuracy    <       0.00603461 Ry

     total magnetization       =    80.08 Bohr mag/cell
     absolute magnetization    =    81.89 Bohr mag/cell

     iteration # 46     ecut=    50.00 Ry     beta= 0.10
     Davidson diagonalization with overlap
     ethr =  5.60E-07,  avg # of iterations =  2.0

     negative rho (up, down):  7.026E-04 6.935E-04
 
     Adding external electric field

     Computed dipole along edir(3) : 
        Dipole                0.2284 Ry au,          0.5806 Debye
        Dipole field          0.0001 Ry au, 
 
        Potential amp.       -0.0153 Ry
        Total length         54.2615 bohr
 
 
     Adding external electric field

     Computed dipole along edir(3) : 
        Dipole                0.2284 Ry au,          0.5806 Debye
        Dipole field          0.0001 Ry au, 
 
        Potential amp.       -0.0153 Ry
        Total length         54.2615 bohr
 

     total cpu time spent up to now is      612.1 secs

     total energy              =   -7398.02901299 Ry
     estimated scf accuracy    <       0.00424599 Ry

     total magnetization       =    80.10 Bohr mag/cell
     absolute magnetization    =    81.89 Bohr mag/cell

     iteration # 47     ecut=    50.00 Ry     beta= 0.10
     Davidson diagonalization with overlap
     ethr =  3.94E-07,  avg # of iterations =  7.5

     negative rho (up, down):  4.710E-04 4.203E-04
 
     Adding external electric field

     Computed dipole along edir(3) : 
        Dipole                0.2222 Ry au,          0.5647 Debye
        Dipole field          0.0001 Ry au, 
 
        Potential amp.       -0.0149 Ry
        Total length         54.2615 bohr
 
 
     Adding external electric field

     Computed dipole along edir(3) : 
        Dipole                0.2222 Ry au,          0.5647 Debye
        Dipole field          0.0001 Ry au, 
 
        Potential amp.       -0.0149 Ry
        Total length         54.2615 bohr
 

     total cpu time spent up to now is      625.4 secs

     total energy              =   -7398.02941012 Ry
     estimated scf accuracy    <       0.00196246 Ry

     total magnetization       =    80.13 Bohr mag/cell
     absolute magnetization    =    81.83 Bohr mag/cell

     iteration # 48     ecut=    50.00 Ry     beta= 0.10
     Davidson diagonalization with overlap
     ethr =  1.82E-07,  avg # of iterations =  2.0

     negative rho (up, down):  1.218E-03 1.184E-03
 
     Adding external electric field

     Computed dipole along edir(3) : 
        Dipole                0.2715 Ry au,          0.6902 Debye
        Dipole field          0.0002 Ry au, 
 
        Potential amp.       -0.0182 Ry
        Total length         54.2615 bohr
 
 
     Adding external electric field

     Computed dipole along edir(3) : 
        Dipole                0.2715 Ry au,          0.6902 Debye
        Dipole field          0.0002 Ry au, 
 
        Potential amp.       -0.0182 Ry
        Total length         54.2615 bohr
 

     total cpu time spent up to now is      636.6 secs

     total energy              =   -7398.02959352 Ry
     estimated scf accuracy    <       0.00091149 Ry

     total magnetization       =    80.13 Bohr mag/cell
     absolute magnetization    =    81.75 Bohr mag/cell

     iteration # 49     ecut=    50.00 Ry     beta= 0.10
     Davidson diagonalization with overlap
     ethr =  8.46E-08,  avg # of iterations =  2.0

     negative rho (up, down):  9.412E-04 9.386E-04
 
     Adding external electric field

     Computed dipole along edir(3) : 
        Dipole                0.2828 Ry au,          0.7187 Debye
        Dipole field          0.0002 Ry au, 
 
        Potential amp.       -0.0190 Ry
        Total length         54.2615 bohr
 
 
     Adding external electric field

     Computed dipole along edir(3) : 
        Dipole                0.2828 Ry au,          0.7187 Debye
        Dipole field          0.0002 Ry au, 
 
        Potential amp.       -0.0190 Ry
        Total length         54.2615 bohr
 

     total cpu time spent up to now is      647.9 secs

     total energy              =   -7398.02968472 Ry
     estimated scf accuracy    <       0.00048081 Ry

     total magnetization       =    80.12 Bohr mag/cell
     absolute magnetization    =    81.71 Bohr mag/cell

     iteration # 50     ecut=    50.00 Ry     beta= 0.10
     Davidson diagonalization with overlap
     ethr =  4.46E-08,  avg # of iterations =  2.0

     negative rho (up, down):  6.785E-04 6.347E-04
 
     Adding external electric field

     Computed dipole along edir(3) : 
        Dipole                0.2838 Ry au,          0.7215 Debye
        Dipole field          0.0002 Ry au, 
 
        Potential amp.       -0.0191 Ry
        Total length         54.2615 bohr
 
 
     Adding external electric field

     Computed dipole along edir(3) : 
        Dipole                0.2838 Ry au,          0.7215 Debye
        Dipole field          0.0002 Ry au, 
 
        Potential amp.       -0.0191 Ry
        Total length         54.2615 bohr
 

     total cpu time spent up to now is      659.4 secs

     total energy              =   -7398.02971972 Ry
     estimated scf accuracy    <       0.00036101 Ry

     total magnetization       =    80.13 Bohr mag/cell
     absolute magnetization    =    81.68 Bohr mag/cell

     iteration # 51     ecut=    50.00 Ry     beta= 0.10
     Davidson diagonalization with overlap
     ethr =  3.35E-08,  avg # of iterations =  2.0

     negative rho (up, down):  4.090E-04 2.831E-04
 
     Adding external electric field

     Computed dipole along edir(3) : 
        Dipole                0.2834 Ry au,          0.7204 Debye
        Dipole field          0.0002 Ry au, 
 
        Potential amp.       -0.0190 Ry
        Total length         54.2615 bohr
 
 
     Adding external electric field

     Computed dipole along edir(3) : 
        Dipole                0.2834 Ry au,          0.7204 Debye
        Dipole field          0.0002 Ry au, 
 
        Potential amp.       -0.0190 Ry
        Total length         54.2615 bohr
 

     total cpu time spent up to now is      670.4 secs

     total energy              =   -7398.02973467 Ry
     estimated scf accuracy    <       0.00030049 Ry

     total magnetization       =    80.13 Bohr mag/cell
     absolute magnetization    =    81.68 Bohr mag/cell

     iteration # 52     ecut=    50.00 Ry     beta= 0.10
     Davidson diagonalization with overlap
     ethr =  2.79E-08,  avg # of iterations =  2.0

     negative rho (up, down):  2.106E-04 9.029E-05
 
     Adding external electric field

     Computed dipole along edir(3) : 
        Dipole                0.2923 Ry au,          0.7430 Debye
        Dipole field          0.0002 Ry au, 
 
        Potential amp.       -0.0196 Ry
        Total length         54.2615 bohr
 
 
     Adding external electric field

     Computed dipole along edir(3) : 
        Dipole                0.2923 Ry au,          0.7430 Debye
        Dipole field          0.0002 Ry au, 
 
        Potential amp.       -0.0196 Ry
        Total length         54.2615 bohr
 

     total cpu time spent up to now is      681.3 secs

     total energy              =   -7398.02978258 Ry
     estimated scf accuracy    <       0.00023030 Ry

     total magnetization       =    80.13 Bohr mag/cell
     absolute magnetization    =    81.65 Bohr mag/cell

     iteration # 53     ecut=    50.00 Ry     beta= 0.10
     Davidson diagonalization with overlap
     c_bands:  2 eigenvalues not converged
     ethr =  2.14E-08,  avg # of iterations = 11.0

     negative rho (up, down):  2.747E-04 1.103E-04
 
     Adding external electric field

     Computed dipole along edir(3) : 
        Dipole                0.2930 Ry au,          0.7448 Debye
        Dipole field          0.0002 Ry au, 
 
        Potential amp.       -0.0197 Ry
        Total length         54.2615 bohr
 
 
     Adding external electric field

     Computed dipole along edir(3) : 
        Dipole                0.2930 Ry au,          0.7448 Debye
        Dipole field          0.0002 Ry au, 
 
        Potential amp.       -0.0197 Ry
        Total length         54.2615 bohr
 

     total cpu time spent up to now is      697.0 secs

     total energy              =   -7398.02980495 Ry
     estimated scf accuracy    <       0.00013634 Ry

     total magnetization       =    80.12 Bohr mag/cell
     absolute magnetization    =    81.63 Bohr mag/cell

     iteration # 54     ecut=    50.00 Ry     beta= 0.10
     Davidson diagonalization with overlap
     c_bands:  2 eigenvalues not converged
     ethr =  1.26E-08,  avg # of iterations = 11.0

     negative rho (up, down):  5.804E-04 3.455E-04
 
     Adding external electric field

     Computed dipole along edir(3) : 
        Dipole                0.2925 Ry au,          0.7433 Debye
        Dipole field          0.0002 Ry au, 
 
        Potential amp.       -0.0196 Ry
        Total length         54.2615 bohr
 
 
     Adding external electric field

     Computed dipole along edir(3) : 
        Dipole                0.2925 Ry au,          0.7433 Debye
        Dipole field          0.0002 Ry au, 
 
        Potential amp.       -0.0196 Ry
        Total length         54.2615 bohr
 

     total cpu time spent up to now is      712.2 secs

     total energy              =   -7398.02980681 Ry
     estimated scf accuracy    <       0.00008144 Ry

     total magnetization       =    80.12 Bohr mag/cell
     absolute magnetization    =    81.64 Bohr mag/cell

     iteration # 55     ecut=    50.00 Ry     beta= 0.10
     Davidson diagonalization with overlap
     ethr =  7.55E-09,  avg # of iterations =  2.0

     negative rho (up, down):  7.048E-04 4.252E-04
 
     Adding external electric field

     Computed dipole along edir(3) : 
        Dipole                0.2960 Ry au,          0.7523 Debye
        Dipole field          0.0002 Ry au, 
 
        Potential amp.       -0.0199 Ry
        Total length         54.2615 bohr
 
 
     Adding external electric field

     Computed dipole along edir(3) : 
        Dipole                0.2960 Ry au,          0.7523 Debye
        Dipole field          0.0002 Ry au, 
 
        Potential amp.       -0.0199 Ry
        Total length         54.2615 bohr
 

     total cpu time spent up to now is      723.3 secs

     total energy              =   -7398.02981323 Ry
     estimated scf accuracy    <       0.00006151 Ry

     total magnetization       =    80.12 Bohr mag/cell
     absolute magnetization    =    81.65 Bohr mag/cell

     iteration # 56     ecut=    50.00 Ry     beta= 0.10
     Davidson diagonalization with overlap
     ethr =  5.71E-09,  avg # of iterations =  1.5

     negative rho (up, down):  1.190E-03 8.849E-04
 
     Adding external electric field

     Computed dipole along edir(3) : 
        Dipole                0.3007 Ry au,          0.7643 Debye
        Dipole field          0.0002 Ry au, 
 
        Potential amp.       -0.0202 Ry
        Total length         54.2615 bohr
 
 
     Adding external electric field

     Computed dipole along edir(3) : 
        Dipole                0.3007 Ry au,          0.7643 Debye
        Dipole field          0.0002 Ry au, 
 
        Potential amp.       -0.0202 Ry
        Total length         54.2615 bohr
 

     total cpu time spent up to now is      734.0 secs

     total energy              =   -7398.02981744 Ry
     estimated scf accuracy    <       0.00003581 Ry

     total magnetization       =    80.13 Bohr mag/cell
     absolute magnetization    =    81.65 Bohr mag/cell

     iteration # 57     ecut=    50.00 Ry     beta= 0.10
     Davidson diagonalization with overlap
     ethr =  3.32E-09,  avg # of iterations =  2.0

     negative rho (up, down):  1.193E-03 8.723E-04
 
     Adding external electric field

     Computed dipole along edir(3) : 
        Dipole                0.3007 Ry au,          0.7642 Debye
        Dipole field          0.0002 Ry au, 
 
        Potential amp.       -0.0202 Ry
        Total length         54.2615 bohr
 
 
     Adding external electric field

     Computed dipole along edir(3) : 
        Dipole                0.3007 Ry au,          0.7642 Debye
        Dipole field          0.0002 Ry au, 
 
        Potential amp.       -0.0202 Ry
        Total length         54.2615 bohr
 

     total cpu time spent up to now is      745.4 secs

     total energy              =   -7398.02981868 Ry
     estimated scf accuracy    <       0.00001668 Ry

     total magnetization       =    80.13 Bohr mag/cell
     absolute magnetization    =    81.65 Bohr mag/cell

     iteration # 58     ecut=    50.00 Ry     beta= 0.10
     Davidson diagonalization with overlap
     ethr =  1.55E-09,  avg # of iterations =  1.5

     negative rho (up, down):  1.281E-03 9.550E-04
 
     Adding external electric field

     Computed dipole along edir(3) : 
        Dipole                0.3022 Ry au,          0.7682 Debye
[...]
    -5.9486  -5.9300  -5.9229  -5.9023  -5.8896  -5.8546  -5.8150  -5.8091
    -5.7759  -5.7682  -5.7352  -5.7334  -5.7213  -5.6794  -5.6698  -5.6485
    -5.6409  -5.6290  -5.6005  -5.5907  -5.5781  -5.5594  -5.5261  -5.4809
    -5.4624  -5.4288  -5.3956  -5.3843  -5.3672  -5.3407  -5.3103  -5.2549
    -5.2337  -5.2014  -5.1812  -5.1651  -5.0970  -5.0702  -5.0308  -5.0011
    -4.9927  -4.9599  -4.9266  -4.9177  -4.8870  -4.8760  -4.8454  -4.8374
    -4.7773  -4.7473  -4.6949  -4.6900  -4.6531  -4.6167  -4.5820  -4.5325
    -4.5025  -4.4825  -4.4499  -4.4305  -4.4051  -4.3804  -4.3489  -4.3280
    -4.3136  -4.2600  -4.2107  -4.1805  -4.1668  -4.1234  -4.1018  -4.0926
    -4.0423  -4.0021  -3.9881  -3.9676  -3.9525  -3.9251  -3.8959  -3.8767
    -3.8343  -3.8282  -3.8091  -3.7844  -3.7728  -3.7221  -3.7118  -3.6982
    -3.6721  -3.6660  -3.6381  -3.6295  -3.6155  -3.5967  -3.5889  -3.5176
    -3.5128  -3.4997  -3.4928  -3.4732  -3.4617  -3.4584  -3.4251  -3.4194
    -3.3987  -3.3681  -3.3554  -3.3391  -3.3050  -3.2947  -3.2682  -3.2431
    -3.2290  -3.1988  -3.1960  -3.1540  -3.1463  -3.1338  -3.1154  -3.1084
    -3.0829  -3.0644  -3.0460  -3.0120  -2.9948  -2.9745  -2.9610  -2.9266
    -2.9061  -2.8919  -2.8714  -2.8483  -2.8262  -2.8180  -2.7878  -2.7707
    -2.7596  -2.7486  -2.7423  -2.7277  -2.7258  -2.7095  -2.7037  -2.6988
    -2.6570  -2.6494  -2.6312  -2.6167  -2.5998  -2.5885  -2.5634  -2.5584
    -2.5358  -2.5181  -2.4970  -2.4701  -2.4619  -2.4478  -2.4446  -2.4308
    -2.3888  -2.3813  -2.3641  -2.3511  -2.3191  -2.3042  -2.2715  -2.2608
    -2.2518  -2.2142  -2.2119  -2.1836  -2.1678  -2.1477  -2.1305  -2.1170
    -2.0863  -2.0736  -2.0548  -2.0415  -2.0332  -2.0161  -1.9888  -1.9670
    -1.9513  -1.9417  -1.9385  -1.9236  -1.8943  -1.8703  -1.8627  -1.8346
    -1.8142  -1.7955  -1.7691  -1.7488  -1.7446  -1.7310  -1.7085  -1.6809
    -1.6595  -1.6476  -1.6340  -1.6254  -1.5893  -1.5706  -1.5545  -1.5234
    -1.5107  -1.4930  -1.4876  -1.4644  -1.4395  -1.4195  -1.3934  -1.3789
    -1.3737  -1.3478  -1.3097  -1.2810  -1.2679  -1.2352  -1.2234  -1.2114
    -1.1421  -1.1318  -1.0707  -0.9791  -0.9523  -0.9345  -0.8488  -0.8343
    -0.7915  -0.7436  -0.7087  -0.5007  -0.3586  -0.3180  -0.2880  -0.1835
     0.1380   0.1597   0.1901   0.2284   0.2529   0.2615   0.2793   0.2920
     0.3101   0.3150   0.3399   0.3488   0.3553   0.3599   0.3727   0.3774
     0.3867   0.3898   0.4077   0.4135   0.4203   0.4239   0.4334   0.4447
     0.4456   0.4542   0.4641   0.4680   0.4734   0.4821   0.4834   0.4863
     0.4997   0.5140   0.5170   0.5236   0.5299   0.5339   0.5356   0.5487
     0.5604   0.5691   0.5755   0.5807   0.5833   0.5905   0.5987   0.6047
     0.6143   0.6355   0.6377   0.6393   0.6437   0.6529   0.6589   0.6668
     0.6742   0.6836   0.6869   0.6950   0.7054   0.7061   0.7077   0.7248
     0.7296   0.7422   0.7444   0.7573   0.7595   0.7672   0.7749   0.7787
     0.7809   0.7988   0.8139   0.8227   0.8383   0.8442   0.8625   0.8668
     0.8746   0.8868   0.8910   0.8969   0.9000   0.9115   0.9200   0.9258
     0.9351   0.9414   0.9502   0.9736   0.9745   1.0309   1.0329   1.0464
     1.1567   1.1903   1.6353   1.7126   1.7155   1.7184   1.7370   1.7476
     1.7684   1.8383   1.8821   1.9003   1.9245   1.9583   1.9671   1.9832
     2.0099   2.0291   2.0546   2.0648   2.0779   2.0793   2.0823   2.1402
     2.1557   2.1775   2.1887   2.2036   2.2273   2.2439   2.2588   2.2706
     2.2820   2.2869   2.3120   2.3176   2.3207   2.3324   2.3537   2.3578
     2.3660   2.3815   2.3895   2.4133   2.4258   2.4305   2.4582   2.4781
     2.4866   2.5197   2.5231   2.5248   2.5535   2.5670   2.5818   2.6137
     2.6189   2.6356   2.6508   2.6641   2.7082   2.7416   2.7565   2.8012
     2.8275   2.8561   2.8811   2.9033   2.9439   3.2874   3.3223   3.4817
     3.5941   3.8233   3.8854   3.9680   4.0304   4.0514   4.1120   4.5195
     4.6672   4.7916   4.9188   4.9308   4.9756   5.0804   5.4353   6.3393
     6.3848   6.5337   6.6048   6.6998   6.7610   6.8467   6.9052   6.9963
     7.0237   7.1039   7.1576   7.1936   7.3156   7.3475   7.3919   7.4538
     7.5514   7.5839   7.6347   7.6904   7.7170   7.7526   7.8242   7.8568
     7.8900   7.9464   7.9777   7.9968   8.0324   8.0573   8.0908   8.1320
     8.1530   8.1639   8.1948   8.2229   8.2659   8.2843   8.3098   8.3391
     8.3668   8.3812   8.4346   8.4760   8.4873   8.5083   8.5400   8.5465
     8.5610   8.5726   8.6031   8.6096   8.6327   8.6512   8.6786   8.6904
     8.7339   8.7467   8.7895   8.8124   8.8705   8.8760   8.9494

     the Fermi energy is     1.6033 ev

!    total energy              =   -7398.02981992 Ry
     estimated scf accuracy    <       0.00000069 Ry
     smearing contrib. (-TS)   =      -0.01674501 Ry
     internal energy E=F+TS    =   -7398.01307491 Ry

     The total energy is F=E-TS. E is the sum of the following terms:
     one-electron contribution =  -91631.30793089 Ry
     hartree contribution      =   46463.95521650 Ry
     xc contribution           =   -2260.27195431 Ry
     ewald contribution        =   40031.44401903 Ry
     Dispersion Correction     =      -1.83248602 Ry
     electric field correction =       0.00006078 Ry

     total magnetization       =    80.12 Bohr mag/cell
     absolute magnetization    =    81.65 Bohr mag/cell

     convergence has been achieved in  65 iterations

     negative rho (up, down):  9.265E-04 5.469E-04

     Forces acting on atoms (cartesian axes, Ry/au):

     atom    1 type  2   force =     0.00021515   -0.00078989   -0.00021714
     atom    2 type  1   force =     0.00002056    0.00039780   -0.00043752
     atom    3 type  1   force =    -0.00004581   -0.00002833   -0.00032554
     atom    4 type  1   force =     0.00008264   -0.00029443    0.00044025
     atom    5 type  1   force =     0.00031582   -0.00041619   -0.00051978
     atom    6 type  1   force =     0.00042999    0.00054033    0.00011945
     atom    7 type  1   force =     0.00040207    0.00016911   -0.00076737
     atom    8 type  1   force =     0.00000828    0.00061622    0.00002776
     atom    9 type  1   force =    -0.00056434    0.00104553   -0.00053436
     atom   10 type  1   force =     0.00027503    0.00009373   -0.00002431
     atom   11 type  1   force =    -0.00006927    0.00011490   -0.00014376
     atom   12 type  1   force =     0.00013613   -0.00024463   -0.00022922
     atom   13 type  3   force =    -0.00055793   -0.00031826   -0.00004297
     atom   14 type  3   force =    -0.00015598   -0.00003005    0.00022357
     atom   15 type  3   force =    -0.00004007   -0.00012536   -0.00038081
     atom   16 type  3   force =     0.00021211    0.00034440   -0.00014672
     atom   17 type  4   force =    -0.00006744    0.00002576    0.00015659
     atom   18 type  4   force =     0.00008827    0.00048816    0.00078906
     atom   19 type  4   force =     0.00013528    0.00070646    0.00017469
     atom   20 type  4   force =    -0.00054724   -0.00017931   -0.00033366
     atom   21 type  4   force =    -0.00002086    0.00022589    0.00014026
     atom   22 type  4   force =     0.00028947    0.00010004   -0.00088079
     atom   23 type  4   force =     0.00005147   -0.00019361   -0.00049958
     atom   24 type  4   force =     0.00004202    0.00063867   -0.00013665
     atom   25 type  4   force =    -0.00016818    0.00025030   -0.00048624
     atom   26 type  4   force =     0.00017753    0.00014294    0.00003554
     atom   27 type  4   force =     0.00033850   -0.00036106    0.00010147
     atom   28 type  4   force =     0.00005651    0.00036619    0.00018579
     atom   29 type  4   force =    -0.00032603   -0.00017591    0.00005341
     atom   30 type  4   force =    -0.00061271   -0.00028125   -0.00043627
     atom   31 type  4   force =     0.00007002   -0.00057645   -0.00004820
     atom   32 type  4   force =    -0.00012384    0.00034101    0.00022751
     atom   33 type  3   force =    -0.00015113    0.00001285    0.00006096
     atom   34 type  3   force =    -0.00024651   -0.00030549   -0.00013079
     atom   35 type  3   force =    -0.00028444   -0.00017071   -0.00071119
     atom   36 type  3   force =    -0.00005644   -0.00017029   -0.00017330
     atom   37 type  4   force =    -0.00028195    0.00049953    0.00017634
     atom   38 type  4   force =     0.00022612    0.00039881    0.00036924
     atom   39 type  4   force =    -0.00034702   -0.00002334   -0.00002539
     atom   40 type  4   force =    -0.00024384   -0.00018460   -0.00020073
     atom   41 type  4   force =    -0.00000167    0.00034839    0.00009897
     atom   42 type  4   force =    -0.00008735    0.00060659   -0.00052645
     atom   43 type  4   force =    -0.00025221    0.00015921    0.00025678
     atom   44 type  4   force =     0.00043834    0.00021080    0.00023003
     atom   45 type  4   force =    -0.00030088    0.00006223    0.00049600
     atom   46 type  4   force =     0.00021998    0.00064478   -0.00002136
     atom   47 type  4   force =     0.00020929    0.00027019    0.00014720
     atom   48 type  4   force =     0.00018629    0.00019970    0.00034074
     atom   49 type  4   force =    -0.00034046    0.00051393   -0.00023118
     atom   50 type  4   force =     0.00034262    0.00011050   -0.00037755
     atom   51 type  4   force =    -0.00011363   -0.00001966   -0.00014396
     atom   52 type  4   force =    -0.00059020   -0.00009130    0.00002907
     atom   53 type  2   force =     0.00223386   -0.00387866    0.00566442
     atom   54 type  1   force =     0.00505462   -0.00216642    0.00384874
     atom   55 type  1   force =     0.00732826   -0.00376222    0.00283617
     atom   56 type  1   force =    -0.00189740    0.01013836    0.00617267
     atom   57 type  1   force =     0.00021622    0.02310118    0.01486252
     atom   58 type  1   force =     0.00225764   -0.00332682   -0.00137416
     atom   59 type  1   force =     0.00137327   -0.00837453    0.00052316
     atom   60 type  1   force =    -0.00507567   -0.00181846    0.00470197
     atom   61 type  1   force =    -0.00129825   -0.00081644    0.00664239
     atom   62 type  1   force =    -0.00431013    0.00822510    0.00609941
     atom   63 type  1   force =    -0.01120127    0.02593332    0.01879959
     atom   64 type  1   force =    -0.00210084    0.00107433    0.00147782
     atom   65 type  3   force =     0.04606052   -0.11391900   -0.01089281
     atom   66 type  3   force =    -0.00012154   -0.00410235    0.00340603
     atom   67 type  3   force =    -0.03915976    0.12654781    0.01398159
     atom   68 type  3   force =     0.06277903   -0.00170267   -0.00351661
     atom   69 type  4   force =     0.01377923   -0.01824508    0.00379550
     atom   70 type  4   force =    -0.00090115    0.00285424   -0.00070048
     atom   71 type  4   force =    -0.00167676    0.00316844   -0.00580182
     atom   72 type  4   force =     0.00401810    0.00183865   -0.00055217
     atom   73 type  4   force =     0.00089550   -0.01143269    0.00295134
     atom   74 type  4   force =     0.00129334   -0.00097156   -0.00113815
     atom   75 type  4   force =    -0.00048903    0.01304600    0.00385186
     atom   76 type  4   force =     0.00831535    0.00525274    0.00924336
     atom   77 type  4   force =     0.00707679   -0.00257882    0.00163284
     atom   78 type  4   force =     0.04394277   -0.14219659   -0.00520416
     atom   79 type  4   force =     0.00176873    0.00196170    0.00143022
     atom   80 type  4   force =     0.00005126    0.00225986   -0.00176623
     atom   81 type  4   force =     0.06702723    0.00048896   -0.00601160
     atom   82 type  4   force =     0.00066909    0.00125364   -0.00108952
     atom   83 type  4   force =    -0.03923428    0.13487321    0.00273821
     atom   84 type  4   force =    -0.00287370   -0.01100720   -0.00404119
     atom   85 type  3   force =     0.03998766   -0.12003998   -0.01850159
     atom   86 type  3   force =    -0.06274865   -0.00170420    0.00689518
     atom   87 type  3   force =    -0.04490442    0.12581197    0.01812249
     atom   88 type  3   force =    -0.00175600    0.00004039    0.00251599
     atom   89 type  4   force =     0.00906884   -0.01538267    0.00413275
     atom   90 type  4   force =    -0.00473156    0.00141632    0.00082274
     atom   91 type  4   force =    -0.00891283    0.00812131   -0.00637106
     atom   92 type  4   force =     0.00006851    0.00015208   -0.00047046
     atom   93 type  4   force =    -0.00177433   -0.00835673    0.00747871
     atom   94 type  4   force =    -0.00482615    0.00079704    0.00055176
     atom   95 type  4   force =    -0.00566421    0.01334698    0.00778401
     atom   96 type  4   force =     0.00415536    0.00518081    0.00962190
     atom   97 type  4   force =     0.00005222    0.00045323    0.00073073
     atom   98 type  4   force =     0.04033401   -0.14146445   -0.00479853
     atom   99 type  4   force =    -0.06675965    0.00006357    0.00643671
     atom  100 type  4   force =    -0.00175117    0.00327249   -0.00259424
     atom  101 type  4   force =     0.00004615    0.00093389   -0.00040506
     atom  102 type  4   force =    -0.00619200    0.00439360   -0.00072179
     atom  103 type  4   force =    -0.04027398    0.13340996    0.00435345
     atom  104 type  4   force =    -0.00696677   -0.00989684   -0.00513134
     atom  105 type  2   force =     0.00412954   -0.00653865   -0.01829363
     atom  106 type  1   force =     0.02829613    0.01438924    0.01170047
     atom  107 type  1   force =     0.00871228   -0.00611219   -0.01412361
     atom  108 type  1   force =    -0.02853705    0.02174199    0.01872272
     atom  109 type  1   force =     0.00510234    0.01605170    0.00928402
     atom  110 type  1   force =    -0.00256673   -0.00876930   -0.00689539
     atom  111 type  1   force =    -0.00088303   -0.00948987   -0.01154244
     atom  112 type  1   force =     0.02935405    0.01766683    0.01142186
     atom  113 type  1   force =    -0.00071536   -0.00499239   -0.01395429
     atom  114 type  1   force =    -0.02976458    0.02080533    0.01851197
     atom  115 type  1   force =    -0.00720092    0.01847449    0.01203227
     atom  116 type  1   force =    -0.00556345   -0.00438982   -0.00308934
     atom  117 type  3   force =     0.01424988   -0.17391699   -0.10884011
     atom  118 type  3   force =     0.00513499   -0.00848392   -0.01272842
     atom  119 type  3   force =    -0.04466460    0.12490511   -0.00193214
     atom  120 type  3   force =     0.09507667   -0.04105843   -0.07977061
     atom  121 type  4   force =     0.00611161   -0.01709916    0.03723568
     atom  122 type  4   force =    -0.00346891    0.00367890    0.00443225
     atom  123 type  4   force =    -0.00083889    0.00259474   -0.00291074
     atom  124 type  4   force =     0.00850824    0.00215396    0.02698656
     atom  125 type  4   force =     0.00985374   -0.01693018    0.01585986
     atom  126 type  4   force =    -0.00750289    0.00102002   -0.00301351
     atom  127 type  4   force =     0.00400866    0.00971155    0.00052373
     atom  128 type  4   force =    -0.00059614   -0.00112724    0.03008364
     atom  129 type  4   force =    -0.00762961    0.02554639    0.00117127
     atom  130 type  4   force =     0.04344019   -0.14598235   -0.00190273
     atom  131 type  4   force =    -0.01747306   -0.00039141    0.00284387
     atom  132 type  4   force =     0.00333497    0.00264765    0.00200187
     atom  133 type  4   force =     0.06977471    0.00367238   -0.00191293
     atom  134 type  4   force =     0.00091674    0.00358204    0.00272986
     atom  135 type  4   force =    -0.02758958    0.17227604    0.00604460
     atom  136 type  4   force =     0.01962122   -0.00861178    0.00399859
     atom  137 type  3   force =     0.00909132   -0.16687762   -0.09430838
     atom  138 type  3   force =    -0.06463042   -0.00210381   -0.00501027
     atom  139 type  3   force =    -0.04872048    0.11824989    0.00147709
     atom  140 type  3   force =     0.03144868   -0.04324049   -0.07374304
     atom  141 type  4   force =     0.00464209   -0.01332729    0.03213977
     atom  142 type  4   force =    -0.00544808   -0.00031407    0.00426864
     atom  143 type  4   force =    -0.00817873    0.00812361   -0.00357197
     atom  144 type  4   force =     0.00386194    0.00135160    0.02759082
     atom  145 type  4   force =     0.00688852   -0.01302871    0.03225169
     atom  146 type  4   force =    -0.00877847   -0.00174120   -0.00296882
     atom  147 type  4   force =     0.00035868    0.00991050    0.00270912
     atom  148 type  4   force =    -0.00788624    0.00117922    0.02899080
     atom  149 type  4   force =    -0.01312422    0.02945646    0.00048378
     atom  150 type  4   force =     0.03983556   -0.13839754   -0.00138341
     atom  151 type  4   force =    -0.08621940   -0.00173316    0.00914141
     atom  152 type  4   force =     0.00114014    0.00388243    0.00143247
     atom  153 type  4   force =    -0.00344271    0.00084410    0.00297982
     atom  154 type  4   force =    -0.00592591    0.00594366    0.00131742
     atom  155 type  4   force =    -0.02800478    0.16649152    0.00482187
     atom  156 type  4   force =     0.01061469   -0.00971501   -0.00138637
     atom  157 type  4   force =     0.00767545   -0.00626115    0.00219393
     atom  158 type  5   force =    -0.00645287    0.00635075   -0.00287272

     Total force =     0.671586     Total SCF correction =     0.003772
 
     init_run     :      6.78s CPU      7.47s WALL (       1 calls)
     electrons    :    782.79s CPU    820.80s WALL (       1 calls)
     forces       :      3.48s CPU      3.86s WALL (       1 calls)
     force_london :      0.09s CPU      0.09s WALL (       1 calls)

     Called by init_run:
     wfcinit      :      3.92s CPU      4.07s WALL (       1 calls)
     potinit      :      0.60s CPU      0.79s WALL (       1 calls)
     hinit0       :      1.33s CPU      1.48s WALL (       1 calls)

     Called by electrons:
     c_bands      :    618.97s CPU    641.34s WALL (      65 calls)
     sum_band     :    105.02s CPU    113.68s WALL (      65 calls)
     v_of_rho     :     11.36s CPU     12.11s WALL (      66 calls)
     newd         :     32.38s CPU     38.83s WALL (      66 calls)
     mix_rho      :     14.74s CPU     14.77s WALL (      65 calls)
     energy_londo :      0.08s CPU      0.08s WALL (       1 calls)

     Called by c_bands:
     init_us_2    :      1.37s CPU      1.41s WALL (     264 calls)
     init_us_2:cp :      1.37s CPU      1.41s WALL (     264 calls)
     regterg      :    607.24s CPU    629.31s WALL (     134 calls)

     Called by *egterg:
     rdiaghg      :    177.77s CPU    189.12s WALL (     647 calls)
     h_psi        :    226.07s CPU    231.15s WALL (     649 calls)
     s_psi        :     36.94s CPU     36.96s WALL (     649 calls)
     g_psi        :      0.27s CPU      0.27s WALL (     513 calls)

     Called by h_psi:
     h_psi:calbec :     66.29s CPU     70.56s WALL (     649 calls)
     vloc_psi     :    120.96s CPU    121.34s WALL (     649 calls)
     add_vuspsi   :     38.39s CPU     38.80s WALL (     649 calls)

     General routines
     calbec       :     97.26s CPU    103.63s WALL (     787 calls)
     fft          :     21.65s CPU     22.70s WALL (    1201 calls)
     ffts         :      9.52s CPU      9.53s WALL (    8069 calls)
     fftw         :    139.64s CPU    140.08s WALL (  223480 calls)
     interpolate  :      0.95s CPU      1.02s WALL (     132 calls)
 
     Parallel routines
 
     PWSCF        :  13m14.98s CPU  13m54.37s WALL

 
   This run was terminated on:  22:34:35  19Nov2025            

=------------------------------------------------------------------------------=
   JOB DONE.
=------------------------------------------------------------------------------=
