
     Program PWSCF v.7.2 starts on 19Nov2025 at 21:18:37 

     This program is part of the open-source Quantum ESPRESSO suite
     for quantum simulation of materials; please cite
         "P. Giannozzi et al., J. Phys.:Condens. Matter 21 395502 (2009);
         "P. Giannozzi et al., J. Phys.:Condens. Matter 29 465901 (2017);
         "P. Giannozzi et al., J. Chem. Phys. 152 154105 (2020);
          URL http://www.quantum-espresso.org", 
     in publications or presentations arising from this work. More details at
     http://www.quantum-espresso.org/quote

     Parallel version (MPI), running on    64 processors

     MPI processes distributed on     4 nodes
     471982 MiB available memory on the printing compute node when the environment starts
 
     Reading input from PWINPUT_atm158_xp

     Current dimensions of program PWSCF are:
     Max number of different atomic species (ntypx) = 10
     Max number of k-points (npk) =  40000
     Max angular momentum in pseudopotentials (lmaxx) =  4
     Presently no symmetry can be used with electric field

     file Ni.pbe-n-rrkjus_psl.1.0.0.UPF: wavefunction(s)  3D renormalized
     file Mn.pbe-spn-rrkjus_psl.0.3.1.UPF: wavefunction(s)  3D renormalized
     file O.pbe-rrkjus.UPF: wavefunction(s)  2S renormalized
     file H.pbe-rrkjus.UPF: wavefunction(s)  1S renormalized

     gamma-point specific algorithms are used
 
     R & G space division:  proc/nbgrp/npool/nimage =      64
     Subspace diagonalization in iterative solution of the eigenvalue problem:
     one sub-group per band group will be used
     custom distributed-memory algorithm (size of sub-group:  6*  6 procs)

 
     Parallelization info
     --------------------
     sticks:   dense  smooth     PW     G-vecs:    dense   smooth      PW
     Min         208      82     20                59912    15118    1876
     Max         210      84     22                59974    15196    1926
     Sum       13399    5355   1345              3836275   970529  121367
 
     Using Slab Decomposition
 


     bravais-lattice index     =            0
     lattice parameter (alat)  =      17.7004  a.u.
     unit-cell volume          =   20319.7251 (a.u.)^3
     number of atoms/cell      =          158
     number of atomic types    =            5
     number of electrons       =      1078.00
     number of Kohn-Sham states=          647
     kinetic-energy cutoff     =      50.0000  Ry
     charge density cutoff     =     500.0000  Ry
     scf convergence threshold =      1.0E-06
     mixing beta               =       0.1000
     number of iterations used =            8  local-TF  mixing
     Exchange-correlation=  SLA  PW   PBE  PBE
                           (   1   4   3   4   0   0   0)

     celldm(1)=  17.700384  celldm(2)=   0.000000  celldm(3)=   0.000000
     celldm(4)=   0.000000  celldm(5)=   0.000000  celldm(6)=   0.000000

     crystal axes: (cart. coord. in units of alat)
               a(1) = (   1.000000   0.000000   0.000000 )  
               a(2) = (   0.000000   1.075730   0.000000 )  
               a(3) = (   0.000000   0.000000   3.406172 )  

     reciprocal axes: (cart. coord. in units 2 pi/alat)
               b(1) = (  1.000000  0.000000  0.000000 )  
               b(2) = (  0.000000  0.929602  0.000000 )  
               b(3) = (  0.000000  0.000000  0.293585 )  


     PseudoPot. # 1 for Ni read from file:
     ~/PSEUDO/Ni.pbe-n-rrkjus_psl.1.0.0.UPF
     MD5 check sum: Not computed, couldn't open file
     Pseudo is Ultrasoft + core correction, Zval = 10.0
     Generated using "atomic" code by A. Dal Corso  v.5.1.2
     Using radial grid of 1195 points,  6 beta functions with: 
                l(1) =   0
                l(2) =   0
                l(3) =   1
                l(4) =   1
                l(5) =   2
                l(6) =   2
     Q(r) pseudized with 0 coefficients 


     PseudoPot. # 2 for Mn read from file:
     ~/PSEUDO/Mn.pbe-spn-rrkjus_psl.0.3.1.UPF
     MD5 check sum: Not computed, couldn't open file
     Pseudo is Ultrasoft + core correction, Zval = 15.0
     Generated using &quot;atomic&quot; code by A. Dal Corso  v.6.2.2
     Using radial grid of 1187 points,  6 beta functions with: 
                l(1) =   0
                l(2) =   0
                l(3) =   1
                l(4) =   1
                l(5) =   2
                l(6) =   2
     Q(r) pseudized with 0 coefficients 


     PseudoPot. # 3 for P  read from file:
     ~/PSEUDO/P.pbe-n-rrkjus_psl.1.0.0.UPF
     MD5 check sum: Not computed, couldn't open file
     Pseudo is Ultrasoft + core correction, Zval =  5.0
     Generated using "atomic" code by A. Dal Corso  v.5.1
     Using radial grid of 1147 points,  6 beta functions with: 
                l(1) =   0
                l(2) =   0
                l(3) =   1
                l(4) =   1
                l(5) =   2
                l(6) =   2
     Q(r) pseudized with 0 coefficients 


     PseudoPot. # 4 for O  read from file:
     ~/PSEUDO/O.pbe-rrkjus.UPF
     MD5 check sum: Not computed, couldn't open file
     Pseudo is Ultrasoft, Zval =  6.0
     Generated by new atomic code, or converted to UPF format
     Using radial grid of 1269 points,  4 beta functions with: 
                l(1) =   0
                l(2) =   0
                l(3) =   1
                l(4) =   1
     Q(r) pseudized with 0 coefficients 


     PseudoPot. # 5 for H  read from file:
     ~/PSEUDO/H.pbe-rrkjus.UPF
     MD5 check sum: Not computed, couldn't open file
     Pseudo is Ultrasoft, Zval =  1.0
     Generated by new atomic code, or converted to UPF format
     Using radial grid of 1061 points,  2 beta functions with: 
                l(1) =   0
                l(2) =   0
     Q(r) pseudized with 0 coefficients 


     atomic species   valence    mass     pseudopotential
     Ni               10.00    58.69300     Ni( 1.00)
     Mn               15.00    54.93800     Mn( 1.00)
     P                 5.00    30.97300     P ( 1.00)
     O                 6.00    15.99900     O ( 1.00)
     H                 1.00     1.00790     H ( 1.00)

     Starting magnetic structure 
     atomic species   magnetization
     Ni              1.000
     Mn              1.000
     P               1.000
     O               1.000
     H               0.000

     No symmetry found



   Cartesian axes

     site n.     atom                  positions (alat units)
         1        Mn     tau(   1) = (   0.2514725   0.8403621   1.6922649  )
         2        Ni     tau(   2) = (   0.4981613   0.7732174   1.3698899  )
         3        Ni     tau(   3) = (   0.0016400   0.2965188   1.6763153  )
         4        Ni     tau(   4) = (   0.2604917   0.2384823   1.3674854  )
         5        Ni     tau(   5) = (   0.9976394   1.0763275   1.5332471  )
         6        Ni     tau(   6) = (   0.2562433   0.5373049   1.5311374  )
         7        Ni     tau(   7) = (   0.7534975   0.8335100   1.6761660  )
         8        Ni     tau(   8) = (   0.9915982   0.7733775   1.3721323  )
         9        Ni     tau(   9) = (   0.5140351   0.3046720   1.7065963  )
        10        Ni     tau(  10) = (   0.7602191   0.2367081   1.3680604  )
        11        Ni     tau(  11) = (   0.5007003   1.0777795   1.5342653  )
        12        Ni     tau(  12) = (   0.7546321   0.5336828   1.5343376  )
        13        P      tau(  13) = (   0.2114324   0.9730718   1.3787149  )
        14        P      tau(  14) = (   0.4677209   0.6466717   1.6883849  )
        15        P      tau(  15) = (   0.2879347   0.1165823   1.6895124  )
        16        P      tau(  16) = (   0.0433043   0.4322061   1.3717573  )
        17        O      tau(  17) = (   0.1354319   0.9024246   1.5162361  )
        18        O      tau(  18) = (   0.3901476   0.7094618   1.5447118  )
        19        O      tau(  19) = (   0.3653522   0.1703016   1.5451332  )
        20        O      tau(  20) = (   0.1220603   0.3621553   1.5078476  )
        21        O      tau(  21) = (   0.1483602   0.8811988   1.2566198  )
        22        O      tau(  22) = (   0.4071019   0.7461546   1.8042590  )
        23        O      tau(  23) = (   0.3454364   0.2138238   1.8062783  )
        24        O      tau(  24) = (   0.1034528   0.3447440   1.2451229  )
        25        O      tau(  25) = (   0.1022912   0.5877007   1.3760419  )
        26        O      tau(  26) = (   0.3424242   1.0329279   1.6966988  )
        27        O      tau(  27) = (   0.3794667   0.4262365   1.3824156  )
        28        O      tau(  28) = (   0.1224475   0.1157300   1.6781663  )
        29        O      tau(  29) = (   0.1306686   0.6530965   1.6813924  )
        30        O      tau(  30) = (   0.4060763   0.4924401   1.6874378  )
        31        O      tau(  31) = (   0.1505415   0.0512368   1.3772435  )
        32        O      tau(  32) = (   0.3750906   0.9649156   1.3868523  )
        33        P      tau(  33) = (   0.7107969   0.9709559   1.3722571  )
        34        P      tau(  34) = (   0.9650128   0.6455956   1.6946891  )
        35        P      tau(  35) = (   0.7894270   0.1050360   1.6939332  )
        36        P      tau(  36) = (   0.5438507   0.4295248   1.3733739  )
        37        O      tau(  37) = (   0.6327050   0.9000346   1.5082036  )
        38        O      tau(  38) = (   0.8878570   0.7057763   1.5484453  )
        39        O      tau(  39) = (   0.8648281   0.1699114   1.5490065  )
        40        O      tau(  40) = (   0.6200951   0.3574703   1.5092594  )
        41        O      tau(  41) = (   0.6501234   0.8827865   1.2460499  )
        42        O      tau(  42) = (   0.9049968   0.7432969   1.8094969  )
        43        O      tau(  43) = (   0.8531982   0.1989439   1.8109223  )
        44        O      tau(  44) = (   0.6040842   0.3418719   1.2462640  )
        45        O      tau(  45) = (   0.6050226   0.5845474   1.3766490  )
        46        O      tau(  46) = (   0.8468877   1.0236478   1.6902311  )
        47        O      tau(  47) = (   0.8794716   0.4244841   1.3846896  )
        48        O      tau(  48) = (   0.6245466   0.1082359   1.6834857  )
        49        O      tau(  49) = (   0.6319549   0.6522194   1.6764679  )
        50        O      tau(  50) = (   0.9116309   0.4875625   1.6930196  )
        51        O      tau(  51) = (   0.6514964   0.0501678   1.3760815  )
        52        O      tau(  52) = (   0.8747806   0.9631357   1.3846982  )
        53        Mn     tau(  53) = (   0.2404744   0.8246335   1.0701417  )
        54        Ni     tau(  54) = (   0.4968126   0.7601755   0.7454373  )
        55        Ni     tau(  55) = (   0.0066150   0.2811828   1.0628866  )
        56        Ni     tau(  56) = (   0.2585722   0.2230943   0.7421070  )
        57        Ni     tau(  57) = (   0.9987350   1.0571496   0.9014992  )
        58        Ni     tau(  58) = (   0.2517397   0.5205596   0.9040596  )
        59        Ni     tau(  59) = (   0.7451645   0.8212628   1.0648168  )
        60        Ni     tau(  60) = (   0.9939181   0.7613889   0.7462324  )
        61        Ni     tau(  61) = (   0.5111533   0.2799173   1.0618053  )
        62        Ni     tau(  62) = (   0.7606326   0.2194352   0.7418547  )
        63        Ni     tau(  63) = (   0.5024065   1.0563218   0.8999416  )
        64        Ni     tau(  64) = (   0.7529977   0.5192985   0.9024691  )
        65        P      tau(  65) = (   0.2092944   0.9606182   0.7524883  )
        66        P      tau(  66) = (   0.4655727   0.6234620   1.0595283  )
        67        P      tau(  67) = (   0.2910699   0.0902448   1.0573821  )
        68        P      tau(  68) = (   0.0396216   0.4163480   0.7471080  )
        69        O      tau(  69) = (   0.1294378   0.8888345   0.8859300  )
        70        O      tau(  70) = (   0.3874505   0.6929859   0.9232915  )
        71        O      tau(  71) = (   0.3702540   0.1589885   0.9209891  )
        72        O      tau(  72) = (   0.1184398   0.3458043   0.8831565  )
        73        O      tau(  73) = (   0.1451572   0.8725966   0.6282341  )
        74        O      tau(  74) = (   0.4048762   0.7120670   1.1852426  )
        75        O      tau(  75) = (   0.3523506   0.1775664   1.1834175  )
        76        O      tau(  76) = (   0.1017610   0.3285569   0.6213347  )
        77        O      tau(  77) = (   0.0975396   0.5724373   0.7511996  )
        78        O      tau(  78) = (   0.3483552   1.0190030   1.0599597  )
        79        O      tau(  79) = (   0.3784305   0.4100203   0.7560991  )
        80        O      tau(  80) = (   0.1268237   0.0943029   1.0477175  )
        81        O      tau(  81) = (   0.1212267   0.6299255   1.0507023  )
        82        O      tau(  82) = (   0.4053315   0.4684472   1.0569297  )
        83        O      tau(  83) = (   0.1536621   0.0322003   0.7496532  )
        84        O      tau(  84) = (   0.3732349   0.9506802   0.7613277  )
        85        P      tau(  85) = (   0.7119823   0.9571059   0.7496908  )
        86        P      tau(  86) = (   0.9615208   0.6238477   1.0606987  )
        87        P      tau(  87) = (   0.7927710   0.0845145   1.0577754  )
        88        P      tau(  88) = (   0.5426404   0.4144760   0.7459181  )
        89        O      tau(  89) = (   0.6326879   0.8866267   0.8856678  )
        90        O      tau(  90) = (   0.8842163   0.6958291   0.9244764  )
        91        O      tau(  91) = (   0.8716178   0.1552836   0.9216415  )
        92        O      tau(  92) = (   0.6212010   0.3433751   0.8818834  )
        93        O      tau(  93) = (   0.6507714   0.8687427   0.6238197  )
        94        O      tau(  94) = (   0.9014054   0.7139543   1.1859242  )
        95        O      tau(  95) = (   0.8548963   0.1722994   1.1834447  )
        96        O      tau(  96) = (   0.6044469   0.3253792   0.6209553  )
        97        O      tau(  97) = (   0.6024424   0.5698225   0.7490903  )
        98        O      tau(  98) = (   0.8498940   1.0129567   1.0594762  )
        99        O      tau(  99) = (   0.8798395   0.4080910   0.7564148  )
       100        O      tau( 100) = (   0.6286921   0.0909721   1.0472573  )
       101        O      tau( 101) = (   0.6294973   0.6302838   1.0497366  )
       102        O      tau( 102) = (   0.9024339   0.4685397   1.0573501  )
       103        O      tau( 103) = (   0.6547812   0.0286072   0.7473283  )
       104        O      tau( 104) = (   0.8760507   0.9507690   0.7605412  )
       105        Mn     tau( 105) = (   0.2404744   0.8121420   0.4502541  )
       106        Ni     tau( 106) = (   0.4968126   0.7476840   0.1255496  )
       107        Ni     tau( 107) = (   0.0066150   0.2686914   0.4429989  )
       108        Ni     tau( 108) = (   0.2585722   0.2106028   0.1222194  )
       109        Ni     tau( 109) = (   0.9987350   1.0446581   0.2816116  )
       110        Ni     tau( 110) = (   0.2517397   0.5080681   0.2841720  )
       111        Ni     tau( 111) = (   0.7451645   0.8087713   0.4449291  )
       112        Ni     tau( 112) = (   0.9939181   0.7488974   0.1263448  )
       113        Ni     tau( 113) = (   0.5111533   0.2674258   0.4419177  )
       114        Ni     tau( 114) = (   0.7606326   0.2069438   0.1219670  )
       115        Ni     tau( 115) = (   0.5024065   1.0438304   0.2800540  )
       116        Ni     tau( 116) = (   0.7529977   0.5068070   0.2825815  )
       117        P      tau( 117) = (   0.2092944   0.9481267   0.1326007  )
       118        P      tau( 118) = (   0.4655727   0.6109705   0.4396407  )
       119        P      tau( 119) = (   0.2910699   0.0777534   0.4374945  )
       120        P      tau( 120) = (   0.0396216   0.4038566   0.1272204  )
       121        O      tau( 121) = (   0.1294378   0.8763430   0.2660424  )
       122        O      tau( 122) = (   0.3874505   0.6804944   0.3034039  )
       123        O      tau( 123) = (   0.3702540   0.1464970   0.3011014  )
       124        O      tau( 124) = (   0.1184398   0.3333129   0.2632689  )
       125        O      tau( 125) = (   0.1451572   0.8601051   0.0083464  )
       126        O      tau( 126) = (   0.4048762   0.6995756   0.5653550  )
       127        O      tau( 127) = (   0.3523506   0.1650749   0.5635298  )
       128        O      tau( 128) = (   0.1017610   0.3160655   0.0014470  )
       129        O      tau( 129) = (   0.0975396   0.5599458   0.1313120  )
       130        O      tau( 130) = (   0.3483552   1.0065115   0.4400720  )
       131        O      tau( 131) = (   0.3784305   0.3975288   0.1362114  )
       132        O      tau( 132) = (   0.1268237   0.0818115   0.4278298  )
       133        O      tau( 133) = (   0.1212267   0.6174340   0.4308146  )
       134        O      tau( 134) = (   0.4053315   0.4559557   0.4370420  )
       135        O      tau( 135) = (   0.1536621   0.0197088   0.1297656  )
       136        O      tau( 136) = (   0.3732349   0.9381887   0.1414400  )
       137        P      tau( 137) = (   0.7119823   0.9446144   0.1298032  )
       138        P      tau( 138) = (   0.9615208   0.6113562   0.4408111  )
       139        P      tau( 139) = (   0.7927710   0.0720230   0.4378878  )
       140        P      tau( 140) = (   0.5426404   0.4019845   0.1260304  )
       141        O      tau( 141) = (   0.6326879   0.8741353   0.2657802  )
       142        O      tau( 142) = (   0.8842163   0.6833376   0.3045887  )
       143        O      tau( 143) = (   0.8716178   0.1427921   0.3017538  )
       144        O      tau( 144) = (   0.6212010   0.3308836   0.2619957  )
       145        O      tau( 145) = (   0.6507714   0.8562512   0.0039320  )
       146        O      tau( 146) = (   0.9014054   0.7014628   0.5660366  )
       147        O      tau( 147) = (   0.8548963   0.1598079   0.5635571  )
       148        O      tau( 148) = (   0.6044469   0.3128877   0.0010676  )
       149        O      tau( 149) = (   0.6024424   0.5573310   0.1292027  )
       150        O      tau( 150) = (   0.8498940   1.0004653   0.4395886  )
       151        O      tau( 151) = (   0.8798395   0.3955995   0.1365272  )
       152        O      tau( 152) = (   0.6286921   0.0784807   0.4273696  )
       153        O      tau( 153) = (   0.6294973   0.6177923   0.4298489  )
       154        O      tau( 154) = (   0.9024339   0.4560482   0.4374624  )
       155        O      tau( 155) = (   0.6547812   0.0161158   0.1274406  )
       156        O      tau( 156) = (   0.8760507   0.9382775   0.1406535  )
       157        O      tau( 157) = (   0.6249036   0.3860534   1.8440900  )
       158        H      tau( 158) = (   0.7092581   0.3257877   1.8689877  )

     -------------------------------------------------
     Parameters for Dispersion (Grimme-D2) Correction:
     -------------------------------------------------
       atom      VdW radius       C_6     

        Ni         2.952        374.666
        Mn         2.952        374.666
        P          3.222        271.980
        O          2.536         24.284
        H          1.892          4.857

     number of k points=     1  Gaussian smearing, width (Ry)=  0.0100
                       cart. coord. in units 2pi/alat
        k(    1) = (   0.0000000   0.0000000   0.0000000), wk =   1.0000000

     Dense  grid:  1918138 G-vectors     FFT dimensions: ( 125, 135, 432)

     Smooth grid:   485265 G-vectors     FFT dimensions: (  80,  90, 288)

     Estimated max dynamical RAM per process >     320.12 MB

     Estimated total dynamical RAM >      20.01 GB
     Generating pointlists ...
     new r_m :   0.0802 (alat units)  1.4199 (a.u.) for type    1
     new r_m :   0.0869 (alat units)  1.5388 (a.u.) for type    2
     new r_m :   0.0650 (alat units)  1.1499 (a.u.) for type    3
     new r_m :   0.0440 (alat units)  0.7785 (a.u.) for type    4
     new r_m :   0.0440 (alat units)  0.7785 (a.u.) for type    5

     Initial potential from superposition of free atoms

     starting charge    1077.8900, renormalised to    1078.0000

     negative rho (up, down):  1.223E-03 4.538E-04
 
     Adding external electric field

     Computed dipole along edir(3) : 
        Dipole                1.6256 Ry au,          4.1319 Debye
        Dipole field          0.0010 Ry au, 
 
        Potential amp.       -0.1091 Ry
        Total length         54.2615 bohr
 
 
     Adding external electric field

     Computed dipole along edir(3) : 
        Dipole                1.6256 Ry au,          4.1319 Debye
        Dipole field          0.0010 Ry au, 
 
        Potential amp.       -0.1091 Ry
        Total length         54.2615 bohr
 
     Starting wfcs are  812 randomized atomic wfcs

     total cpu time spent up to now is        9.9 secs

     Self-consistent Calculation

     iteration #  1     ecut=    50.00 Ry     beta= 0.10
     Davidson diagonalization with overlap
     ethr =  1.00E-02,  avg # of iterations =  6.0

     negative rho (up, down):  3.384E-01 1.364E-06
 
     Adding external electric field

     Computed dipole along edir(3) : 
        Dipole               -3.4671 Ry au,         -8.8124 Debye
        Dipole field         -0.0021 Ry au, 
 
        Potential amp.        0.2327 Ry
        Total length         54.2615 bohr
 
 
     Adding external electric field

     Computed dipole along edir(3) : 
        Dipole               -3.4671 Ry au,         -8.8124 Debye
        Dipole field         -0.0021 Ry au, 
 
        Potential amp.        0.2327 Ry
        Total length         54.2615 bohr
 

     total cpu time spent up to now is       35.2 secs

     total energy              =   -7179.07532967 Ry
     estimated scf accuracy    <     750.27991455 Ry

     total magnetization       =   216.00 Bohr mag/cell
     absolute magnetization    =   296.86 Bohr mag/cell

     iteration #  2     ecut=    50.00 Ry     beta= 0.10
     Davidson diagonalization with overlap
     ethr =  1.00E-02,  avg # of iterations =  2.0

     negative rho (up, down):  3.173E-01 1.228E-06
 
     Adding external electric field

     Computed dipole along edir(3) : 
        Dipole               -2.3924 Ry au,         -6.0810 Debye
        Dipole field         -0.0015 Ry au, 
 
        Potential amp.        0.1606 Ry
        Total length         54.2615 bohr
 
 
     Adding external electric field

     Computed dipole along edir(3) : 
        Dipole               -2.3924 Ry au,         -6.0810 Debye
        Dipole field         -0.0015 Ry au, 
 
        Potential amp.        0.1606 Ry
        Total length         54.2615 bohr
 

     total cpu time spent up to now is       50.4 secs

     total energy              =   -7263.08262149 Ry
     estimated scf accuracy    <     188.03236531 Ry

     total magnetization       =   148.00 Bohr mag/cell
     absolute magnetization    =   198.34 Bohr mag/cell

     iteration #  3     ecut=    50.00 Ry     beta= 0.10
     Davidson diagonalization with overlap
     ethr =  1.00E-02,  avg # of iterations =  1.5

     negative rho (up, down):  2.770E-01 1.089E-06
 
     Adding external electric field

     Computed dipole along edir(3) : 
        Dipole               -2.0039 Ry au,         -5.0935 Debye
        Dipole field         -0.0012 Ry au, 
 
        Potential amp.        0.1345 Ry
        Total length         54.2615 bohr
 
 
     Adding external electric field

     Computed dipole along edir(3) : 
        Dipole               -2.0039 Ry au,         -5.0935 Debye
        Dipole field         -0.0012 Ry au, 
 
        Potential amp.        0.1345 Ry
        Total length         54.2615 bohr
 

     total cpu time spent up to now is       62.2 secs

     total energy              =   -7294.98459736 Ry
     estimated scf accuracy    <      98.12620732 Ry

     total magnetization       =   123.94 Bohr mag/cell
     absolute magnetization    =   178.19 Bohr mag/cell

     iteration #  4     ecut=    50.00 Ry     beta= 0.10
     Davidson diagonalization with overlap
     ethr =  9.10E-03,  avg # of iterations =  1.5

     negative rho (up, down):  2.066E-01 2.016E-07
 
     Adding external electric field

     Computed dipole along edir(3) : 
        Dipole               -2.0350 Ry au,         -5.1725 Debye
        Dipole field         -0.0013 Ry au, 
 
        Potential amp.        0.1366 Ry
        Total length         54.2615 bohr
 
 
     Adding external electric field

     Computed dipole along edir(3) : 
        Dipole               -2.0350 Ry au,         -5.1725 Debye
        Dipole field         -0.0013 Ry au, 
 
        Potential amp.        0.1366 Ry
        Total length         54.2615 bohr
 

     total cpu time spent up to now is       74.6 secs

     total energy              =   -7327.72486281 Ry
     estimated scf accuracy    <      77.48445390 Ry

     total magnetization       =   108.53 Bohr mag/cell
     absolute magnetization    =   163.63 Bohr mag/cell

     iteration #  5     ecut=    50.00 Ry     beta= 0.10
     Davidson diagonalization with overlap
     ethr =  7.19E-03,  avg # of iterations =  1.5

     negative rho (up, down):  7.781E-03 1.903E-07
 
     Adding external electric field

     Computed dipole along edir(3) : 
        Dipole               -1.5548 Ry au,         -3.9520 Debye
        Dipole field         -0.0010 Ry au, 
 
        Potential amp.        0.1044 Ry
        Total length         54.2615 bohr
 
 
     Adding external electric field

     Computed dipole along edir(3) : 
        Dipole               -1.5548 Ry au,         -3.9520 Debye
        Dipole field         -0.0010 Ry au, 
 
        Potential amp.        0.1044 Ry
        Total length         54.2615 bohr
 

     total cpu time spent up to now is       86.7 secs

     total energy              =   -7386.52071562 Ry
     estimated scf accuracy    <      60.95470511 Ry

     total magnetization       =    88.01 Bohr mag/cell
     absolute magnetization    =   145.55 Bohr mag/cell

     iteration #  6     ecut=    50.00 Ry     beta= 0.10
     Davidson diagonalization with overlap
     ethr =  5.65E-03,  avg # of iterations =  1.5

     negative rho (up, down):  1.548E-04 1.654E-04
 
     Adding external electric field

     Computed dipole along edir(3) : 
        Dipole               -1.1530 Ry au,         -2.9306 Debye
        Dipole field         -0.0007 Ry au, 
 
        Potential amp.        0.0774 Ry
        Total length         54.2615 bohr
 
 
     Adding external electric field

     Computed dipole along edir(3) : 
        Dipole               -1.1530 Ry au,         -2.9306 Debye
        Dipole field         -0.0007 Ry au, 
 
        Potential amp.        0.0774 Ry
        Total length         54.2615 bohr
 

     total cpu time spent up to now is       99.0 secs

     total energy              =   -7395.56821943 Ry
     estimated scf accuracy    <      10.77681366 Ry

     total magnetization       =    81.40 Bohr mag/cell
     absolute magnetization    =   114.61 Bohr mag/cell

     iteration #  7     ecut=    50.00 Ry     beta= 0.10
     Davidson diagonalization with overlap
     ethr =  1.00E-03,  avg # of iterations =  5.0

     negative rho (up, down):  1.528E-04 1.629E-04
 
     Adding external electric field

     Computed dipole along edir(3) : 
        Dipole               -1.1536 Ry au,         -2.9323 Debye
        Dipole field         -0.0007 Ry au, 
 
        Potential amp.        0.0774 Ry
        Total length         54.2615 bohr
 
 
     Adding external electric field

     Computed dipole along edir(3) : 
        Dipole               -1.1536 Ry au,         -2.9323 Debye
        Dipole field         -0.0007 Ry au, 
 
        Potential amp.        0.0774 Ry
        Total length         54.2615 bohr
 

     total cpu time spent up to now is      118.9 secs

     total energy              =   -7397.61050088 Ry
     estimated scf accuracy    <      12.86550418 Ry

     total magnetization       =    71.30 Bohr mag/cell
     absolute magnetization    =    88.88 Bohr mag/cell

     iteration #  8     ecut=    50.00 Ry     beta= 0.10
     Davidson diagonalization with overlap
     ethr =  1.00E-03,  avg # of iterations =  1.0

     negative rho (up, down):  1.451E-04 1.567E-04
 
     Adding external electric field

     Computed dipole along edir(3) : 
        Dipole               -1.1371 Ry au,         -2.8902 Debye
        Dipole field         -0.0007 Ry au, 
 
        Potential amp.        0.0763 Ry
        Total length         54.2615 bohr
 
 
     Adding external electric field

     Computed dipole along edir(3) : 
        Dipole               -1.1371 Ry au,         -2.8902 Debye
        Dipole field         -0.0007 Ry au, 
 
        Potential amp.        0.0763 Ry
        Total length         54.2615 bohr
 

     total cpu time spent up to now is      130.7 secs

     total energy              =   -7397.60800944 Ry
     estimated scf accuracy    <      12.59852198 Ry

     total magnetization       =    71.43 Bohr mag/cell
     absolute magnetization    =    88.77 Bohr mag/cell

     iteration #  9     ecut=    50.00 Ry     beta= 0.10
     Davidson diagonalization with overlap
     ethr =  1.00E-03,  avg # of iterations =  1.0

     negative rho (up, down):  2.120E-04 3.780E-04
 
     Adding external electric field

     Computed dipole along edir(3) : 
        Dipole               -1.0222 Ry au,         -2.5981 Debye
        Dipole field         -0.0006 Ry au, 
 
        Potential amp.        0.0686 Ry
        Total length         54.2615 bohr
 
 
     Adding external electric field

     Computed dipole along edir(3) : 
        Dipole               -1.0222 Ry au,         -2.5981 Debye
        Dipole field         -0.0006 Ry au, 
 
        Potential amp.        0.0686 Ry
        Total length         54.2615 bohr
 

     total cpu time spent up to now is      142.3 secs

     total energy              =   -7397.51476397 Ry
     estimated scf accuracy    <      11.11863119 Ry

     total magnetization       =    71.89 Bohr mag/cell
     absolute magnetization    =    88.56 Bohr mag/cell

     iteration # 10     ecut=    50.00 Ry     beta= 0.10
     Davidson diagonalization with overlap
     ethr =  1.00E-03,  avg # of iterations =  1.5

     negative rho (up, down):  2.693E-04 4.812E-04
 
     Adding external electric field

     Computed dipole along edir(3) : 
        Dipole               -1.0654 Ry au,         -2.7081 Debye
        Dipole field         -0.0007 Ry au, 
 
        Potential amp.        0.0715 Ry
        Total length         54.2615 bohr
 
 
     Adding external electric field

     Computed dipole along edir(3) : 
        Dipole               -1.0654 Ry au,         -2.7081 Debye
        Dipole field         -0.0007 Ry au, 
 
        Potential amp.        0.0715 Ry
        Total length         54.2615 bohr
 

     total cpu time spent up to now is      154.3 secs

     total energy              =   -7397.57967763 Ry
     estimated scf accuracy    <       5.10367891 Ry

     total magnetization       =    73.31 Bohr mag/cell
     absolute magnetization    =    86.88 Bohr mag/cell

     iteration # 11     ecut=    50.00 Ry     beta= 0.10
     Davidson diagonalization with overlap
     ethr =  4.73E-04,  avg # of iterations =  2.0

     negative rho (up, down):  6.106E-04 1.413E-03
 
     Adding external electric field

     Computed dipole along edir(3) : 
        Dipole               -1.0265 Ry au,         -2.6092 Debye
        Dipole field         -0.0006 Ry au, 
 
        Potential amp.        0.0689 Ry
        Total length         54.2615 bohr
 
 
     Adding external electric field

     Computed dipole along edir(3) : 
        Dipole               -1.0265 Ry au,         -2.6092 Debye
        Dipole field         -0.0006 Ry au, 
 
        Potential amp.        0.0689 Ry
        Total length         54.2615 bohr
 

     total cpu time spent up to now is      167.0 secs

     total energy              =   -7397.57629931 Ry
     estimated scf accuracy    <       3.72588759 Ry

     total magnetization       =    74.30 Bohr mag/cell
     absolute magnetization    =    87.02 Bohr mag/cell

     iteration # 12     ecut=    50.00 Ry     beta= 0.10
     Davidson diagonalization with overlap
     ethr =  3.46E-04,  avg # of iterations =  4.0

     negative rho (up, down):  2.139E-04 7.027E-04
 
     Adding external electric field

     Computed dipole along edir(3) : 
        Dipole               -1.0389 Ry au,         -2.6407 Debye
        Dipole field         -0.0006 Ry au, 
 
        Potential amp.        0.0697 Ry
        Total length         54.2615 bohr
 
 
     Adding external electric field

     Computed dipole along edir(3) : 
        Dipole               -1.0389 Ry au,         -2.6407 Debye
        Dipole field         -0.0006 Ry au, 
 
        Potential amp.        0.0697 Ry
        Total length         54.2615 bohr
 

     total cpu time spent up to now is      180.7 secs

     total energy              =   -7397.61612385 Ry
     estimated scf accuracy    <       2.59237209 Ry

     total magnetization       =    76.57 Bohr mag/cell
     absolute magnetization    =    87.39 Bohr mag/cell

     iteration # 13     ecut=    50.00 Ry     beta= 0.10
     Davidson diagonalization with overlap
     ethr =  2.40E-04,  avg # of iterations =  2.0

     negative rho (up, down):  3.500E-03 5.533E-03
 
     Adding external electric field

     Computed dipole along edir(3) : 
        Dipole               -1.1891 Ry au,         -3.0224 Debye
        Dipole field         -0.0007 Ry au, 
 
        Potential amp.        0.0798 Ry
        Total length         54.2615 bohr
 
 
     Adding external electric field

     Computed dipole along edir(3) : 
        Dipole               -1.1891 Ry au,         -3.0224 Debye
        Dipole field         -0.0007 Ry au, 
 
        Potential amp.        0.0798 Ry
        Total length         54.2615 bohr
 

     total cpu time spent up to now is      193.3 secs

     total energy              =   -7397.66095632 Ry
     estimated scf accuracy    <       3.18176991 Ry

     total magnetization       =    74.31 Bohr mag/cell
     absolute magnetization    =    84.85 Bohr mag/cell

     iteration # 14     ecut=    50.00 Ry     beta= 0.10
     Davidson diagonalization with overlap
     ethr =  2.40E-04,  avg # of iterations =  6.0

     negative rho (up, down):  1.584E-03 3.560E-03
 
     Adding external electric field

     Computed dipole along edir(3) : 
        Dipole               -1.1363 Ry au,         -2.8883 Debye
        Dipole field         -0.0007 Ry au, 
 
        Potential amp.        0.0763 Ry
        Total length         54.2615 bohr
 
 
     Adding external electric field

     Computed dipole along edir(3) : 
        Dipole               -1.1363 Ry au,         -2.8883 Debye
        Dipole field         -0.0007 Ry au, 
 
        Potential amp.        0.0763 Ry
        Total length         54.2615 bohr
 

     total cpu time spent up to now is      207.7 secs

     total energy              =   -7397.78533458 Ry
     estimated scf accuracy    <       0.81018666 Ry

     total magnetization       =    81.55 Bohr mag/cell
     absolute magnetization    =    87.76 Bohr mag/cell

     iteration # 15     ecut=    50.00 Ry     beta= 0.10
     Davidson diagonalization with overlap
     ethr =  7.52E-05,  avg # of iterations = 18.0

     negative rho (up, down):  5.134E-04 1.894E-03
 
     Adding external electric field

     Computed dipole along edir(3) : 
        Dipole               -1.0636 Ry au,         -2.7033 Debye
        Dipole field         -0.0007 Ry au, 
 
        Potential amp.        0.0714 Ry
        Total length         54.2615 bohr
 
 
     Adding external electric field

     Computed dipole along edir(3) : 
        Dipole               -1.0636 Ry au,         -2.7033 Debye
        Dipole field         -0.0007 Ry au, 
 
        Potential amp.        0.0714 Ry
        Total length         54.2615 bohr
 

     total cpu time spent up to now is      235.0 secs

     total energy              =   -7397.80458008 Ry
     estimated scf accuracy    <       0.47587475 Ry

     total magnetization       =    80.39 Bohr mag/cell
     absolute magnetization    =    86.55 Bohr mag/cell

     iteration # 16     ecut=    50.00 Ry     beta= 0.10
     Davidson diagonalization with overlap
     ethr =  4.41E-05,  avg # of iterations =  1.5

     negative rho (up, down):  1.145E-04 2.900E-04
 
     Adding external electric field

     Computed dipole along edir(3) : 
        Dipole               -0.8857 Ry au,         -2.2513 Debye
        Dipole field         -0.0005 Ry au, 
 
        Potential amp.        0.0594 Ry
        Total length         54.2615 bohr
 
 
     Adding external electric field

     Computed dipole along edir(3) : 
        Dipole               -0.8857 Ry au,         -2.2513 Debye
        Dipole field         -0.0005 Ry au, 
 
        Potential amp.        0.0594 Ry
        Total length         54.2615 bohr
 

     total cpu time spent up to now is      246.9 secs

     total energy              =   -7397.98052648 Ry
     estimated scf accuracy    <       0.36664768 Ry

     total magnetization       =    79.96 Bohr mag/cell
     absolute magnetization    =    85.83 Bohr mag/cell

     iteration # 17     ecut=    50.00 Ry     beta= 0.10
     Davidson diagonalization with overlap
     ethr =  3.40E-05,  avg # of iterations =  2.0

     negative rho (up, down):  1.462E-05 2.980E-05
 
     Adding external electric field

     Computed dipole along edir(3) : 
        Dipole               -0.7849 Ry au,         -1.9951 Debye
        Dipole field         -0.0005 Ry au, 
 
        Potential amp.        0.0527 Ry
        Total length         54.2615 bohr
 
 
     Adding external electric field

     Computed dipole along edir(3) : 
        Dipole               -0.7849 Ry au,         -1.9951 Debye
        Dipole field         -0.0005 Ry au, 
 
        Potential amp.        0.0527 Ry
        Total length         54.2615 bohr
 

     total cpu time spent up to now is      259.6 secs

     total energy              =   -7398.03996425 Ry
     estimated scf accuracy    <       0.35169702 Ry

     total magnetization       =    81.37 Bohr mag/cell
     absolute magnetization    =    84.90 Bohr mag/cell

     iteration # 18     ecut=    50.00 Ry     beta= 0.10
     Davidson diagonalization with overlap
     ethr =  3.26E-05,  avg # of iterations =  1.5

     negative rho (up, down):  1.831E-07 1.372E-05
 
     Adding external electric field

     Computed dipole along edir(3) : 
        Dipole               -0.6780 Ry au,         -1.7233 Debye
        Dipole field         -0.0004 Ry au, 
 
        Potential amp.        0.0455 Ry
        Total length         54.2615 bohr
 
 
     Adding external electric field

     Computed dipole along edir(3) : 
        Dipole               -0.6780 Ry au,         -1.7233 Debye
        Dipole field         -0.0004 Ry au, 
 
        Potential amp.        0.0455 Ry
        Total length         54.2615 bohr
 

     total cpu time spent up to now is      271.6 secs

     total energy              =   -7398.02599832 Ry
     estimated scf accuracy    <       0.32893363 Ry

     total magnetization       =    81.22 Bohr mag/cell
     absolute magnetization    =    83.87 Bohr mag/cell

     iteration # 19     ecut=    50.00 Ry     beta= 0.10
     Davidson diagonalization with overlap
     ethr =  3.05E-05,  avg # of iterations =  2.0

     negative rho (up, down):  9.667E-06 9.356E-05
 
     Adding external electric field

     Computed dipole along edir(3) : 
        Dipole               -0.5693 Ry au,         -1.4470 Debye
        Dipole field         -0.0004 Ry au, 
 
        Potential amp.        0.0382 Ry
        Total length         54.2615 bohr
 
 
     Adding external electric field

     Computed dipole along edir(3) : 
        Dipole               -0.5693 Ry au,         -1.4470 Debye
        Dipole field         -0.0004 Ry au, 
 
        Potential amp.        0.0382 Ry
        Total length         54.2615 bohr
 

     total cpu time spent up to now is      284.1 secs

     total energy              =   -7398.02725117 Ry
     estimated scf accuracy    <       0.23077539 Ry

     total magnetization       =    81.26 Bohr mag/cell
     absolute magnetization    =    83.43 Bohr mag/cell

     iteration # 20     ecut=    50.00 Ry     beta= 0.10
     Davidson diagonalization with overlap
     ethr =  2.14E-05,  avg # of iterations =  1.5

     negative rho (up, down):  3.482E-05 1.130E-04
 
     Adding external electric field

     Computed dipole along edir(3) : 
        Dipole               -0.5378 Ry au,         -1.3670 Debye
        Dipole field         -0.0003 Ry au, 
 
        Potential amp.        0.0361 Ry
        Total length         54.2615 bohr
 
 
     Adding external electric field

     Computed dipole along edir(3) : 
        Dipole               -0.5378 Ry au,         -1.3670 Debye
        Dipole field         -0.0003 Ry au, 
 
        Potential amp.        0.0361 Ry
        Total length         54.2615 bohr
 

     total cpu time spent up to now is      296.5 secs

     total energy              =   -7398.04257703 Ry
     estimated scf accuracy    <       0.28670975 Ry

     total magnetization       =    79.64 Bohr mag/cell
     absolute magnetization    =    81.62 Bohr mag/cell

     iteration # 21     ecut=    50.00 Ry     beta= 0.10
     Davidson diagonalization with overlap
     ethr =  2.14E-05,  avg # of iterations =  1.0

     negative rho (up, down):  9.313E-05 2.319E-04
 
     Adding external electric field

     Computed dipole along edir(3) : 
        Dipole               -0.5028 Ry au,         -1.2780 Debye
        Dipole field         -0.0003 Ry au, 
 
        Potential amp.        0.0337 Ry
        Total length         54.2615 bohr
 
 
     Adding external electric field

     Computed dipole along edir(3) : 
        Dipole               -0.5028 Ry au,         -1.2780 Debye
        Dipole field         -0.0003 Ry au, 
 
        Potential amp.        0.0337 Ry
        Total length         54.2615 bohr
 

     total cpu time spent up to now is      308.0 secs

     total energy              =   -7398.03717112 Ry
     estimated scf accuracy    <       0.63447747 Ry

     total magnetization       =    79.15 Bohr mag/cell
     absolute magnetization    =    81.10 Bohr mag/cell

     iteration # 22     ecut=    50.00 Ry     beta= 0.10
     Davidson diagonalization with overlap
     ethr =  2.14E-05,  avg # of iterations =  1.5

     negative rho (up, down):  3.221E-05 3.122E-04
 
     Adding external electric field

     Computed dipole along edir(3) : 
        Dipole               -0.5105 Ry au,         -1.2975 Debye
        Dipole field         -0.0003 Ry au, 
 
        Potential amp.        0.0343 Ry
        Total length         54.2615 bohr
 
 
     Adding external electric field

     Computed dipole along edir(3) : 
        Dipole               -0.5105 Ry au,         -1.2975 Debye
        Dipole field         -0.0003 Ry au, 
 
        Potential amp.        0.0343 Ry
        Total length         54.2615 bohr
 

     total cpu time spent up to now is      319.6 secs

     total energy              =   -7398.02710781 Ry
     estimated scf accuracy    <       0.46226549 Ry

     total magnetization       =    79.43 Bohr mag/cell
     absolute magnetization    =    81.20 Bohr mag/cell

     iteration # 23     ecut=    50.00 Ry     beta= 0.10
     Davidson diagonalization with overlap
     ethr =  2.14E-05,  avg # of iterations =  1.5

     negative rho (up, down):  1.025E-04 4.708E-04
 
     Adding external electric field

     Computed dipole along edir(3) : 
        Dipole               -0.4804 Ry au,         -1.2211 Debye
        Dipole field         -0.0003 Ry au, 
 
        Potential amp.        0.0322 Ry
        Total length         54.2615 bohr
 
 
     Adding external electric field

     Computed dipole along edir(3) : 
        Dipole               -0.4804 Ry au,         -1.2211 Debye
        Dipole field         -0.0003 Ry au, 
 
        Potential amp.        0.0322 Ry
        Total length         54.2615 bohr
 

     total cpu time spent up to now is      331.0 secs

     total energy              =   -7398.03032783 Ry
     estimated scf accuracy    <       0.42945080 Ry

     total magnetization       =    78.88 Bohr mag/cell
     absolute magnetization    =    80.65 Bohr mag/cell

     iteration # 24     ecut=    50.00 Ry     beta= 0.10
     Davidson diagonalization with overlap
     ethr =  2.14E-05,  avg # of iterations =  2.0

     negative rho (up, down):  1.215E-04 4.606E-04
 
     Adding external electric field

     Computed dipole along edir(3) : 
        Dipole               -0.4923 Ry au,         -1.2513 Debye
        Dipole field         -0.0003 Ry au, 
 
        Potential amp.        0.0330 Ry
        Total length         54.2615 bohr
 
 
     Adding external electric field

     Computed dipole along edir(3) : 
        Dipole               -0.4923 Ry au,         -1.2513 Debye
        Dipole field         -0.0003 Ry au, 
 
        Potential amp.        0.0330 Ry
        Total length         54.2615 bohr
 

     total cpu time spent up to now is      342.9 secs

     total energy              =   -7398.03423135 Ry
     estimated scf accuracy    <       0.67974174 Ry

     total magnetization       =    78.31 Bohr mag/cell
     absolute magnetization    =    80.13 Bohr mag/cell

     iteration # 25     ecut=    50.00 Ry     beta= 0.10
     Davidson diagonalization with overlap
     ethr =  2.14E-05,  avg # of iterations =  1.5

     negative rho (up, down):  2.744E-04 5.117E-04
 
     Adding external electric field

     Computed dipole along edir(3) : 
        Dipole               -0.4995 Ry au,         -1.2695 Debye
        Dipole field         -0.0003 Ry au, 
 
        Potential amp.        0.0335 Ry
        Total length         54.2615 bohr
 
 
     Adding external electric field

     Computed dipole along edir(3) : 
        Dipole               -0.4995 Ry au,         -1.2695 Debye
        Dipole field         -0.0003 Ry au, 
 
        Potential amp.        0.0335 Ry
        Total length         54.2615 bohr
 

     total cpu time spent up to now is      355.3 secs

     total energy              =   -7398.03767438 Ry
     estimated scf accuracy    <       0.60263255 Ry

     total magnetization       =    78.35 Bohr mag/cell
     absolute magnetization    =    80.22 Bohr mag/cell

     iteration # 26     ecut=    50.00 Ry     beta= 0.10
     Davidson diagonalization with overlap
     ethr =  2.14E-05,  avg # of iterations =  1.0

     negative rho (up, down):  5.889E-04 6.856E-04
 
     Adding external electric field

     Computed dipole along edir(3) : 
        Dipole               -0.4921 Ry au,         -1.2508 Debye
        Dipole field         -0.0003 Ry au, 
 
        Potential amp.        0.0330 Ry
        Total length         54.2615 bohr
 
 
     Adding external electric field

     Computed dipole along edir(3) : 
        Dipole               -0.4921 Ry au,         -1.2508 Debye
        Dipole field         -0.0003 Ry au, 
 
        Potential amp.        0.0330 Ry
        Total length         54.2615 bohr
 

     total cpu time spent up to now is      366.5 secs

     total energy              =   -7398.03976215 Ry
     estimated scf accuracy    <       0.49814780 Ry

     total magnetization       =    78.62 Bohr mag/cell
     absolute magnetization    =    80.52 Bohr mag/cell

     iteration # 27     ecut=    50.00 Ry     beta= 0.10
     Davidson diagonalization with overlap
     ethr =  2.14E-05,  avg # of iterations =  1.0

     negative rho (up, down):  8.528E-06 6.550E-05
 
     Adding external electric field

     Computed dipole along edir(3) : 
        Dipole               -0.6040 Ry au,         -1.5352 Debye
        Dipole field         -0.0004 Ry au, 
 
        Potential amp.        0.0405 Ry
        Total length         54.2615 bohr
 
 
     Adding external electric field

     Computed dipole along edir(3) : 
        Dipole               -0.6040 Ry au,         -1.5352 Debye
        Dipole field         -0.0004 Ry au, 
 
        Potential amp.        0.0405 Ry
        Total length         54.2615 bohr
 

     total cpu time spent up to now is      377.4 secs

     total energy              =   -7398.02327879 Ry
     estimated scf accuracy    <       0.49366442 Ry

     total magnetization       =    78.84 Bohr mag/cell
     absolute magnetization    =    80.67 Bohr mag/cell

     iteration # 28     ecut=    50.00 Ry     beta= 0.10
     Davidson diagonalization with overlap
     ethr =  2.14E-05,  avg # of iterations =  1.0

     negative rho (up, down):  7.352E-06 6.139E-05
 
     Adding external electric field

     Computed dipole along edir(3) : 
        Dipole               -0.6050 Ry au,         -1.5378 Debye
        Dipole field         -0.0004 Ry au, 
 
        Potential amp.        0.0406 Ry
        Total length         54.2615 bohr
 
 
     Adding external electric field

     Computed dipole along edir(3) : 
        Dipole               -0.6050 Ry au,         -1.5378 Debye
        Dipole field         -0.0004 Ry au, 
 
        Potential amp.        0.0406 Ry
        Total length         54.2615 bohr
 

     total cpu time spent up to now is      388.9 secs

     total energy              =   -7398.02984162 Ry
     estimated scf accuracy    <       0.09374930 Ry

     total magnetization       =    80.13 Bohr mag/cell
     absolute magnetization    =    82.19 Bohr mag/cell

     iteration # 29     ecut=    50.00 Ry     beta= 0.10
     Davidson diagonalization with overlap
     ethr =  8.70E-06,  avg # of iterations =  1.5

     negative rho (up, down):  1.528E-07 1.261E-05
 
     Adding external electric field

     Computed dipole along edir(3) : 
        Dipole               -0.6308 Ry au,         -1.6034 Debye
        Dipole field         -0.0004 Ry au, 
 
        Potential amp.        0.0423 Ry
        Total length         54.2615 bohr
 
 
     Adding external electric field

     Computed dipole along edir(3) : 
        Dipole               -0.6308 Ry au,         -1.6034 Debye
        Dipole field         -0.0004 Ry au, 
 
        Potential amp.        0.0423 Ry
        Total length         54.2615 bohr
 

     total cpu time spent up to now is      400.2 secs

     total energy              =   -7398.02398405 Ry
     estimated scf accuracy    <       0.09389837 Ry

     total magnetization       =    80.13 Bohr mag/cell
     absolute magnetization    =    82.21 Bohr mag/cell

     iteration # 30     ecut=    50.00 Ry     beta= 0.10
     Davidson diagonalization with overlap
     ethr =  8.70E-06,  avg # of iterations =  1.0

     negative rho (up, down):  2.326E-05 1.209E-04
 
     Adding external electric field

     Computed dipole along edir(3) : 
        Dipole               -0.6097 Ry au,         -1.5498 Debye
        Dipole field         -0.0004 Ry au, 
 
        Potential amp.        0.0409 Ry
        Total length         54.2615 bohr
 
 
     Adding external electric field

     Computed dipole along edir(3) : 
        Dipole               -0.6097 Ry au,         -1.5498 Debye
        Dipole field         -0.0004 Ry au, 
 
        Potential amp.        0.0409 Ry
        Total length         54.2615 bohr
 

     total cpu time spent up to now is      411.3 secs

     total energy              =   -7398.03036513 Ry
     estimated scf accuracy    <       0.07358206 Ry

     total magnetization       =    80.23 Bohr mag/cell
     absolute magnetization    =    82.52 Bohr mag/cell

     iteration # 31     ecut=    50.00 Ry     beta= 0.10
     Davidson diagonalization with overlap
     ethr =  6.83E-06,  avg # of iterations =  2.0

     negative rho (up, down):  2.509E-04 4.164E-04
 
     Adding external electric field

     Computed dipole along edir(3) : 
        Dipole               -0.6161 Ry au,         -1.5659 Debye
        Dipole field         -0.0004 Ry au, 
 
        Potential amp.        0.0413 Ry
        Total length         54.2615 bohr
 
 
     Adding external electric field

     Computed dipole along edir(3) : 
        Dipole               -0.6161 Ry au,         -1.5659 Debye
        Dipole field         -0.0004 Ry au, 
 
        Potential amp.        0.0413 Ry
        Total length         54.2615 bohr
 

     total cpu time spent up to now is      423.7 secs

     total energy              =   -7398.03183796 Ry
     estimated scf accuracy    <       0.08302171 Ry

     total magnetization       =    80.20 Bohr mag/cell
     absolute magnetization    =    82.27 Bohr mag/cell

     iteration # 32     ecut=    50.00 Ry     beta= 0.10
     Davidson diagonalization with overlap
     ethr =  6.83E-06,  avg # of iterations =  1.5

     negative rho (up, down):  4.702E-04 6.577E-04
 
     Adding external electric field

     Computed dipole along edir(3) : 
        Dipole               -0.6253 Ry au,         -1.5893 Debye
        Dipole field         -0.0004 Ry au, 
 
        Potential amp.        0.0420 Ry
        Total length         54.2615 bohr
 
 
     Adding external electric field

     Computed dipole along edir(3) : 
        Dipole               -0.6253 Ry au,         -1.5893 Debye
        Dipole field         -0.0004 Ry au, 
 
        Potential amp.        0.0420 Ry
        Total length         54.2615 bohr
 

     total cpu time spent up to now is      435.9 secs

     total energy              =   -7398.03281886 Ry
     estimated scf accuracy    <       0.05032471 Ry

     total magnetization       =    80.19 Bohr mag/cell
     absolute magnetization    =    82.12 Bohr mag/cell

     iteration # 33     ecut=    50.00 Ry     beta= 0.10
     Davidson diagonalization with overlap
     ethr =  4.67E-06,  avg # of iterations =  2.0

     negative rho (up, down):  5.774E-04 6.050E-04
 
     Adding external electric field

     Computed dipole along edir(3) : 
        Dipole               -0.6279 Ry au,         -1.5959 Debye
        Dipole field         -0.0004 Ry au, 
 
        Potential amp.        0.0421 Ry
        Total length         54.2615 bohr
 
 
     Adding external electric field

     Computed dipole along edir(3) : 
        Dipole               -0.6279 Ry au,         -1.5959 Debye
        Dipole field         -0.0004 Ry au, 
 
        Potential amp.        0.0421 Ry
        Total length         54.2615 bohr
 

     total cpu time spent up to now is      448.3 secs

     total energy              =   -7398.03447574 Ry
     estimated scf accuracy    <       0.16023142 Ry

     total magnetization       =    79.65 Bohr mag/cell
     absolute magnetization    =    81.53 Bohr mag/cell

     iteration # 34     ecut=    50.00 Ry     beta= 0.10
     Davidson diagonalization with overlap
     ethr =  4.67E-06,  avg # of iterations =  1.5

     negative rho (up, down):  5.269E-04 4.897E-04
 
     Adding external electric field

     Computed dipole along edir(3) : 
        Dipole               -0.6152 Ry au,         -1.5637 Debye
        Dipole field         -0.0004 Ry au, 
 
        Potential amp.        0.0413 Ry
        Total length         54.2615 bohr
 
 
     Adding external electric field

     Computed dipole along edir(3) : 
        Dipole               -0.6152 Ry au,         -1.5637 Debye
        Dipole field         -0.0004 Ry au, 
 
        Potential amp.        0.0413 Ry
        Total length         54.2615 bohr
 

     total cpu time spent up to now is      460.0 secs

     total energy              =   -7398.03367145 Ry
     estimated scf accuracy    <       0.06362876 Ry

     total magnetization       =    80.05 Bohr mag/cell
     absolute magnetization    =    81.86 Bohr mag/cell

     iteration # 35     ecut=    50.00 Ry     beta= 0.10
     Davidson diagonalization with overlap
     ethr =  4.67E-06,  avg # of iterations =  2.0

     negative rho (up, down):  2.827E-04 3.350E-04
 
     Adding external electric field

     Computed dipole along edir(3) : 
        Dipole               -0.6110 Ry au,         -1.5531 Debye
        Dipole field         -0.0004 Ry au, 
 
        Potential amp.        0.0410 Ry
        Total length         54.2615 bohr
 
 
     Adding external electric field

     Computed dipole along edir(3) : 
        Dipole               -0.6110 Ry au,         -1.5531 Debye
        Dipole field         -0.0004 Ry au, 
 
        Potential amp.        0.0410 Ry
        Total length         54.2615 bohr
 

     total cpu time spent up to now is      472.9 secs

     total energy              =   -7398.03463808 Ry
     estimated scf accuracy    <       0.03933167 Ry

     total magnetization       =    80.13 Bohr mag/cell
     absolute magnetization    =    81.85 Bohr mag/cell

     iteration # 36     ecut=    50.00 Ry     beta= 0.10
     Davidson diagonalization with overlap
     c_bands:  4 eigenvalues not converged
     ethr =  3.65E-06,  avg # of iterations = 11.0

     negative rho (up, down):  3.038E-04 2.637E-04
 
     Adding external electric field

     Computed dipole along edir(3) : 
        Dipole               -0.6050 Ry au,         -1.5378 Debye
        Dipole field         -0.0004 Ry au, 
 
        Potential amp.        0.0406 Ry
        Total length         54.2615 bohr
 
 
     Adding external electric field

     Computed dipole along edir(3) : 
        Dipole               -0.6050 Ry au,         -1.5378 Debye
        Dipole field         -0.0004 Ry au, 
 
        Potential amp.        0.0406 Ry
        Total length         54.2615 bohr
 

     total cpu time spent up to now is      490.9 secs

     total energy              =   -7398.03340358 Ry
     estimated scf accuracy    <       0.04458218 Ry

     total magnetization       =    80.00 Bohr mag/cell
     absolute magnetization    =    81.71 Bohr mag/cell

     iteration # 37     ecut=    50.00 Ry     beta= 0.10
     Davidson diagonalization with overlap
     c_bands:  1 eigenvalues not converged
     ethr =  3.65E-06,  avg # of iterations = 11.0

     negative rho (up, down):  1.768E-05 4.277E-05
 
     Adding external electric field

     Computed dipole along edir(3) : 
        Dipole               -0.5915 Ry au,         -1.5035 Debye
        Dipole field         -0.0004 Ry au, 
 
        Potential amp.        0.0397 Ry
        Total length         54.2615 bohr
 
 
     Adding external electric field

     Computed dipole along edir(3) : 
        Dipole               -0.5915 Ry au,         -1.5035 Debye
        Dipole field         -0.0004 Ry au, 
 
        Potential amp.        0.0397 Ry
        Total length         54.2615 bohr
 

     total cpu time spent up to now is      508.0 secs

     total energy              =   -7398.03430233 Ry
     estimated scf accuracy    <       0.05567783 Ry

     total magnetization       =    80.16 Bohr mag/cell
     absolute magnetization    =    81.88 Bohr mag/cell

     iteration # 38     ecut=    50.00 Ry     beta= 0.10
     Davidson diagonalization with overlap
     ethr =  3.65E-06,  avg # of iterations =  2.0

     negative rho (up, down):  2.095E-05 5.714E-05
 
     Adding external electric field

     Computed dipole along edir(3) : 
        Dipole               -0.5910 Ry au,         -1.5021 Debye
        Dipole field         -0.0004 Ry au, 
 
        Potential amp.        0.0397 Ry
        Total length         54.2615 bohr
 
 
     Adding external electric field

     Computed dipole along edir(3) : 
        Dipole               -0.5910 Ry au,         -1.5021 Debye
        Dipole field         -0.0004 Ry au, 
 
        Potential amp.        0.0397 Ry
        Total length         54.2615 bohr
 

     total cpu time spent up to now is      520.7 secs

     total energy              =   -7398.03339362 Ry
     estimated scf accuracy    <       0.07154790 Ry

     total magnetization       =    80.04 Bohr mag/cell
     absolute magnetization    =    81.78 Bohr mag/cell

     iteration # 39     ecut=    50.00 Ry     beta= 0.10
     Davidson diagonalization with overlap
     ethr =  3.65E-06,  avg # of iterations =  2.0

     negative rho (up, down):  1.241E-04 2.071E-04
 
     Adding external electric field

     Computed dipole along edir(3) : 
        Dipole               -0.5924 Ry au,         -1.5057 Debye
        Dipole field         -0.0004 Ry au, 
 
        Potential amp.        0.0398 Ry
        Total length         54.2615 bohr
 
 
     Adding external electric field

     Computed dipole along edir(3) : 
        Dipole               -0.5924 Ry au,         -1.5057 Debye
        Dipole field         -0.0004 Ry au, 
 
        Potential amp.        0.0398 Ry
        Total length         54.2615 bohr
 

     total cpu time spent up to now is      533.9 secs

     total energy              =   -7398.03423082 Ry
     estimated scf accuracy    <       0.05899974 Ry

     total magnetization       =    79.98 Bohr mag/cell
     absolute magnetization    =    81.76 Bohr mag/cell

     iteration # 40     ecut=    50.00 Ry     beta= 0.10
     Davidson diagonalization with overlap
     c_bands:  3 eigenvalues not converged
     ethr =  3.65E-06,  avg # of iterations = 10.5

     negative rho (up, down):  8.196E-05 1.056E-04
 
     Adding external electric field

     Computed dipole along edir(3) : 
        Dipole               -0.5739 Ry au,         -1.4587 Debye
        Dipole field         -0.0004 Ry au, 
 
        Potential amp.        0.0385 Ry
        Total length         54.2615 bohr
 
 
     Adding external electric field

     Computed dipole along edir(3) : 
        Dipole               -0.5739 Ry au,         -1.4587 Debye
        Dipole field         -0.0004 Ry au, 
 
        Potential amp.        0.0385 Ry
        Total length         54.2615 bohr
 

     total cpu time spent up to now is      550.7 secs

     total energy              =   -7398.03413023 Ry
     estimated scf accuracy    <       0.05727755 Ry

     total magnetization       =    80.02 Bohr mag/cell
     absolute magnetization    =    81.72 Bohr mag/cell

     iteration # 41     ecut=    50.00 Ry     beta= 0.10
     Davidson diagonalization with overlap
     c_bands:  2 eigenvalues not converged
     ethr =  3.65E-06,  avg # of iterations = 11.0

     negative rho (up, down):  4.874E-05 9.697E-05
 
     Adding external electric field

     Computed dipole along edir(3) : 
        Dipole               -0.5964 Ry au,         -1.5158 Debye
        Dipole field         -0.0004 Ry au, 
 
        Potential amp.        0.0400 Ry
        Total length         54.2615 bohr
 
 
     Adding external electric field

     Computed dipole along edir(3) : 
        Dipole               -0.5964 Ry au,         -1.5158 Debye
        Dipole field         -0.0004 Ry au, 
 
        Potential amp.        0.0400 Ry
        Total length         54.2615 bohr
 

     total cpu time spent up to now is      568.1 secs

     total energy              =   -7398.03380295 Ry
     estimated scf accuracy    <       0.04701614 Ry

     total magnetization       =    79.99 Bohr mag/cell
     absolute magnetization    =    81.71 Bohr mag/cell

     iteration # 42     ecut=    50.00 Ry     beta= 0.10
     Davidson diagonalization with overlap
     ethr =  3.65E-06,  avg # of iterations =  2.0

     negative rho (up, down):  6.828E-05 1.343E-04
 
     Adding external electric field

     Computed dipole along edir(3) : 
        Dipole               -0.6219 Ry au,         -1.5806 Debye
        Dipole field         -0.0004 Ry au, 
 
        Potential amp.        0.0417 Ry
        Total length         54.2615 bohr
 
 
     Adding external electric field

     Computed dipole along edir(3) : 
        Dipole               -0.6219 Ry au,         -1.5806 Debye
        Dipole field         -0.0004 Ry au, 
 
        Potential amp.        0.0417 Ry
        Total length         54.2615 bohr
 

     total cpu time spent up to now is      580.7 secs

     total energy              =   -7398.03378872 Ry
     estimated scf accuracy    <       0.04561392 Ry

     total magnetization       =    79.96 Bohr mag/cell
     absolute magnetization    =    81.74 Bohr mag/cell

     iteration # 43     ecut=    50.00 Ry     beta= 0.10
     Davidson diagonalization with overlap
     ethr =  3.65E-06,  avg # of iterations =  2.0

     negative rho (up, down):  7.075E-05 1.144E-04
 
     Adding external electric field

     Computed dipole along edir(3) : 
        Dipole               -0.6226 Ry au,         -1.5826 Debye
        Dipole field         -0.0004 Ry au, 
 
        Potential amp.        0.0418 Ry
        Total length         54.2615 bohr
 
 
     Adding external electric field

     Computed dipole along edir(3) : 
        Dipole               -0.6226 Ry au,         -1.5826 Debye
        Dipole field         -0.0004 Ry au, 
 
        Potential amp.        0.0418 Ry
        Total length         54.2615 bohr
 

     total cpu time spent up to now is      593.9 secs

     total energy              =   -7398.03453735 Ry
     estimated scf accuracy    <       0.04783244 Ry

     total magnetization       =    80.04 Bohr mag/cell
     absolute magnetization    =    81.82 Bohr mag/cell

     iteration # 44     ecut=    50.00 Ry     beta= 0.10
     Davidson diagonalization with overlap
     ethr =  3.65E-06,  avg # of iterations =  2.0

     negative rho (up, down):  6.915E-05 1.178E-04
 
     Adding external electric field

     Computed dipole along edir(3) : 
        Dipole               -0.6167 Ry au,         -1.5674 Debye
        Dipole field         -0.0004 Ry au, 
 
        Potential amp.        0.0414 Ry
        Total length         54.2615 bohr
 
 
     Adding external electric field

     Computed dipole along edir(3) : 
        Dipole               -0.6167 Ry au,         -1.5674 Debye
        Dipole field         -0.0004 Ry au, 
 
        Potential amp.        0.0414 Ry
        Total length         54.2615 bohr
 

     total cpu time spent up to now is      606.5 secs

     total energy              =   -7398.03539340 Ry
     estimated scf accuracy    <       0.05700100 Ry

     total magnetization       =    80.29 Bohr mag/cell
     absolute magnetization    =    82.03 Bohr mag/cell

     iteration # 45     ecut=    50.00 Ry     beta= 0.10
     Davidson diagonalization with overlap
     ethr =  3.65E-06,  avg # of iterations =  1.0

     negative rho (up, down):  9.018E-05 9.563E-05
 
     Adding external electric field

     Computed dipole along edir(3) : 
        Dipole               -0.6017 Ry au,         -1.5294 Debye
        Dipole field         -0.0004 Ry au, 
 
        Potential amp.        0.0404 Ry
        Total length         54.2615 bohr
 
 
     Adding external electric field

     Computed dipole along edir(3) : 
        Dipole               -0.6017 Ry au,         -1.5294 Debye
        Dipole field         -0.0004 Ry au, 
 
        Potential amp.        0.0404 Ry
        Total length         54.2615 bohr
 

     total cpu time spent up to now is      618.2 secs

     total energy              =   -7398.03422833 Ry
     estimated scf accuracy    <       0.05829219 Ry

     total magnetization       =    80.28 Bohr mag/cell
     absolute magnetization    =    82.02 Bohr mag/cell

     iteration # 46     ecut=    50.00 Ry     beta= 0.10
     Davidson diagonalization with overlap
     ethr =  3.65E-06,  avg # of iterations =  1.5

     negative rho (up, down):  2.619E-05 5.219E-05
 
     Adding external electric field

     Computed dipole along edir(3) : 
        Dipole               -0.5939 Ry au,         -1.5097 Debye
        Dipole field         -0.0004 Ry au, 
 
        Potential amp.        0.0399 Ry
        Total length         54.2615 bohr
 
 
     Adding external electric field

     Computed dipole along edir(3) : 
        Dipole               -0.5939 Ry au,         -1.5097 Debye
        Dipole field         -0.0004 Ry au, 
 
        Potential amp.        0.0399 Ry
        Total length         54.2615 bohr
 

     total cpu time spent up to now is      630.3 secs

     total energy              =   -7398.03458384 Ry
     estimated scf accuracy    <       0.05233835 Ry

     total magnetization       =    80.29 Bohr mag/cell
     absolute magnetization    =    82.08 Bohr mag/cell

     iteration # 47     ecut=    50.00 Ry     beta= 0.10
     Davidson diagonalization with overlap
     ethr =  3.65E-06,  avg # of iterations =  2.0

     negative rho (up, down):  3.462E-05 5.876E-05
 
     Adding external electric field

     Computed dipole along edir(3) : 
        Dipole               -0.6064 Ry au,         -1.5414 Debye
        Dipole field         -0.0004 Ry au, 
 
        Potential amp.        0.0407 Ry
        Total length         54.2615 bohr
 
 
     Adding external electric field

     Computed dipole along edir(3) : 
        Dipole               -0.6064 Ry au,         -1.5414 Debye
        Dipole field         -0.0004 Ry au, 
 
        Potential amp.        0.0407 Ry
        Total length         54.2615 bohr
 

     total cpu time spent up to now is      643.1 secs

     total energy              =   -7398.03538194 Ry
     estimated scf accuracy    <       0.05424216 Ry

     total magnetization       =    80.26 Bohr mag/cell
     absolute magnetization    =    82.03 Bohr mag/cell

     iteration # 48     ecut=    50.00 Ry     beta= 0.10
     Davidson diagonalization with overlap
     ethr =  3.65E-06,  avg # of iterations =  1.0

     negative rho (up, down):  1.232E-05 2.417E-05
 
     Adding external electric field

     Computed dipole along edir(3) : 
        Dipole               -0.6124 Ry au,         -1.5565 Debye
        Dipole field         -0.0004 Ry au, 
 
        Potential amp.        0.0411 Ry
        Total length         54.2615 bohr
 
 
     Adding external electric field

     Computed dipole along edir(3) : 
        Dipole               -0.6124 Ry au,         -1.5565 Debye
        Dipole field         -0.0004 Ry au, 
 
        Potential amp.        0.0411 Ry
        Total length         54.2615 bohr
 

     total cpu time spent up to now is      654.5 secs

     total energy              =   -7398.03608505 Ry
     estimated scf accuracy    <       0.05690231 Ry

     total magnetization       =    80.28 Bohr mag/cell
     absolute magnetization    =    82.03 Bohr mag/cell

     iteration # 49     ecut=    50.00 Ry     beta= 0.10
     Davidson diagonalization with overlap
     ethr =  3.65E-06,  avg # of iterations =  2.0

     negative rho (up, down):  3.601E-05 6.866E-05
 
     Adding external electric field

     Computed dipole along edir(3) : 
        Dipole               -0.6117 Ry au,         -1.5548 Debye
        Dipole field         -0.0004 Ry au, 
 
        Potential amp.        0.0411 Ry
        Total length         54.2615 bohr
 
 
     Adding external electric field

     Computed dipole along edir(3) : 
        Dipole               -0.6117 Ry au,         -1.5548 Debye
        Dipole field         -0.0004 Ry au, 
 
        Potential amp.        0.0411 Ry
        Total length         54.2615 bohr
 

     total cpu time spent up to now is      667.2 secs

     total energy              =   -7398.03630206 Ry
     estimated scf accuracy    <       0.06476908 Ry

     total magnetization       =    80.25 Bohr mag/cell
     absolute magnetization    =    82.00 Bohr mag/cell

     iteration # 50     ecut=    50.00 Ry     beta= 0.10
     Davidson diagonalization with overlap
     ethr =  3.65E-06,  avg # of iterations =  1.0

     negative rho (up, down):  7.756E-05 7.037E-05
 
     Adding external electric field

     Computed dipole along edir(3) : 
        Dipole               -0.5831 Ry au,         -1.4822 Debye
        Dipole field         -0.0004 Ry au, 
 
        Potential amp.        0.0391 Ry
        Total length         54.2615 bohr
 
 
     Adding external electric field

     Computed dipole along edir(3) : 
        Dipole               -0.5831 Ry au,         -1.4822 Debye
        Dipole field         -0.0004 Ry au, 
 
        Potential amp.        0.0391 Ry
        Total length         54.2615 bohr
 

     total cpu time spent up to now is      678.5 secs

     total energy              =   -7398.03579268 Ry
     estimated scf accuracy    <       0.06417817 Ry

     total magnetization       =    80.25 Bohr mag/cell
     absolute magnetization    =    81.96 Bohr mag/cell

     iteration # 51     ecut=    50.00 Ry     beta= 0.10
     Davidson diagonalization with overlap
     ethr =  3.65E-06,  avg # of iterations =  2.0

     negative rho (up, down):  3.079E-04 3.579E-04
 
     Adding external electric field

     Computed dipole along edir(3) : 
        Dipole               -0.6472 Ry au,         -1.6450 Debye
        Dipole field         -0.0004 Ry au, 
 
        Potential amp.        0.0434 Ry
        Total length         54.2615 bohr
 
 
     Adding external electric field

     Computed dipole along edir(3) : 
        Dipole               -0.6472 Ry au,         -1.6450 Debye
        Dipole field         -0.0004 Ry au, 
 
        Potential amp.        0.0434 Ry
        Total length         54.2615 bohr
 

     total cpu time spent up to now is      691.8 secs

     total energy              =   -7398.03259461 Ry
     estimated scf accuracy    <       0.06352702 Ry

     total magnetization       =    80.25 Bohr mag/cell
     absolute magnetization    =    81.89 Bohr mag/cell

     iteration # 52     ecut=    50.00 Ry     beta= 0.10
     Davidson diagonalization with overlap
     ethr =  3.65E-06,  avg # of iterations =  1.5

     negative rho (up, down):  2.488E-05 2.563E-05
 
     Adding external electric field

     Computed dipole along edir(3) : 
        Dipole               -0.6142 Ry au,         -1.5611 Debye
        Dipole field         -0.0004 Ry au, 
 
        Potential amp.        0.0412 Ry
        Total length         54.2615 bohr
 
 
     Adding external electric field

     Computed dipole along edir(3) : 
        Dipole               -0.6142 Ry au,         -1.5611 Debye
        Dipole field         -0.0004 Ry au, 
 
        Potential amp.        0.0412 Ry
        Total length         54.2615 bohr
 

     total cpu time spent up to now is      703.8 secs

     total energy              =   -7398.03230911 Ry
     estimated scf accuracy    <       0.05196597 Ry

     total magnetization       =    80.11 Bohr mag/cell
     absolute magnetization    =    81.97 Bohr mag/cell

     iteration # 53     ecut=    50.00 Ry     beta= 0.10
     Davidson diagonalization with overlap
     ethr =  3.65E-06,  avg # of iterations =  1.5

     negative rho (up, down):  5.094E-05 4.934E-05
 
     Adding external electric field

     Computed dipole along edir(3) : 
        Dipole               -0.6344 Ry au,         -1.6124 Debye
        Dipole field         -0.0004 Ry au, 
 
        Potential amp.        0.0426 Ry
        Total length         54.2615 bohr
 
 
     Adding external electric field

     Computed dipole along edir(3) : 
        Dipole               -0.6344 Ry au,         -1.6124 Debye
        Dipole field         -0.0004 Ry au, 
 
        Potential amp.        0.0426 Ry
        Total length         54.2615 bohr
 

     total cpu time spent up to now is      716.1 secs

     total energy              =   -7398.03291311 Ry
     estimated scf accuracy    <       0.05149756 Ry

     total magnetization       =    80.10 Bohr mag/cell
     absolute magnetization    =    82.05 Bohr mag/cell

     iteration # 54     ecut=    50.00 Ry     beta= 0.10
     Davidson diagonalization with overlap
     ethr =  3.65E-06,  avg # of iterations =  1.0

     negative rho (up, down):  1.519E-04 2.052E-04
 
     Adding external electric field

     Computed dipole along edir(3) : 
        Dipole               -0.5542 Ry au,         -1.4086 Debye
        Dipole field         -0.0003 Ry au, 
 
        Potential amp.        0.0372 Ry
        Total length         54.2615 bohr
 
 
     Adding external electric field

     Computed dipole along edir(3) : 
        Dipole               -0.5542 Ry au,         -1.4086 Debye
        Dipole field         -0.0003 Ry au, 
 
        Potential amp.        0.0372 Ry
        Total length         54.2615 bohr
 

     total cpu time spent up to now is      727.4 secs

     total energy              =   -7398.03299416 Ry
     estimated scf accuracy    <       0.05380437 Ry

     total magnetization       =    80.22 Bohr mag/cell
     absolute magnetization    =    82.18 Bohr mag/cell

     iteration # 55     ecut=    50.00 Ry     beta= 0.10
     Davidson diagonalization with overlap
     ethr =  3.65E-06,  avg # of iterations =  2.0

     negative rho (up, down):  1.438E-04 1.832E-04
 
     Adding external electric field

     Computed dipole along edir(3) : 
        Dipole               -0.5416 Ry au,         -1.3765 Debye
        Dipole field         -0.0003 Ry au, 
 
        Potential amp.        0.0363 Ry
        Total length         54.2615 bohr
 
 
     Adding external electric field

     Computed dipole along edir(3) : 
        Dipole               -0.5416 Ry au,         -1.3765 Debye
        Dipole field         -0.0003 Ry au, 
 
        Potential amp.        0.0363 Ry
        Total length         54.2615 bohr
 

     total cpu time spent up to now is      740.1 secs

     total energy              =   -7398.03477223 Ry
     estimated scf accuracy    <       0.05494769 Ry

     total magnetization       =    80.21 Bohr mag/cell
     absolute magnetization    =    81.91 Bohr mag/cell

     iteration # 56     ecut=    50.00 Ry     beta= 0.10
     Davidson diagonalization with overlap
     ethr =  3.65E-06,  avg # of iterations =  1.0

     negative rho (up, down):  1.296E-04 2.001E-04
 
     Adding external electric field

     Computed dipole along edir(3) : 
        Dipole               -0.5501 Ry au,         -1.3981 Debye
        Dipole field         -0.0003 Ry au, 
 
        Potential amp.        0.0369 Ry
        Total length         54.2615 bohr
 
 
     Adding external electric field

     Computed dipole along edir(3) : 
        Dipole               -0.5501 Ry au,         -1.3981 Debye
        Dipole field         -0.0003 Ry au, 
 
        Potential amp.        0.0369 Ry
        Total length         54.2615 bohr
 

     total cpu time spent up to now is      751.1 secs

     total energy              =   -7398.03306014 Ry
     estimated scf accuracy    <       0.05564686 Ry

     total magnetization       =    80.22 Bohr mag/cell
     absolute magnetization    =    81.89 Bohr mag/cell

     iteration # 57     ecut=    50.00 Ry     beta= 0.10
     Davidson diagonalization with overlap
     ethr =  3.65E-06,  avg # of iterations =  1.5

     negative rho (up, down):  2.239E-04 3.043E-04
 
     Adding external electric field

     Computed dipole along edir(3) : 
        Dipole               -0.5560 Ry au,         -1.4131 Debye
        Dipole field         -0.0003 Ry au, 
 
        Potential amp.        0.0373 Ry
        Total length         54.2615 bohr
 
 
     Adding external electric field

     Computed dipole along edir(3) : 
        Dipole               -0.5560 Ry au,         -1.4131 Debye
        Dipole field         -0.0003 Ry au, 
 
        Potential amp.        0.0373 Ry
        Total length         54.2615 bohr
 

     total cpu time spent up to now is      763.0 secs

     total energy              =   -7398.03404461 Ry
     estimated scf accuracy    <       0.05450762 Ry

     total magnetization       =    80.16 Bohr mag/cell
     absolute magnetization    =    81.84 Bohr mag/cell

     iteration # 58     ecut=    50.00 Ry     beta= 0.10
     Davidson diagonalization with overlap
     ethr =  3.65E-06,  avg # of iterations =  1.0

     negative rho (up, down):  3.889E-04 5.554E-04
 
     Adding external electric field

     Computed dipole along edir(3) : 
        Dipole               -0.5629 Ry au,         -1.4307 Debye
        Dipole field         -0.0003 Ry au, 
 
[...]
    -5.9371  -5.9235  -5.8689  -5.8628  -5.8426  -5.8377  -5.8098  -5.7945
    -5.7882  -5.7699  -5.7470  -5.7273  -5.7173  -5.6811  -5.6651  -5.6301
    -5.6002  -5.5783  -5.5564  -5.5257  -5.4933  -5.4533  -5.4163  -5.3768
    -5.3666  -5.3582  -5.3182  -5.2800  -5.2061  -5.1927  -5.1659  -5.1174
    -5.1035  -5.0934  -5.0470  -5.0450  -5.0064  -4.9951  -4.9719  -4.9663
    -4.9135  -4.8757  -4.8199  -4.8071  -4.7897  -4.7671  -4.7003  -4.6661
    -4.6479  -4.6243  -4.5883  -4.5609  -4.5433  -4.5157  -4.5074  -4.4499
    -4.4302  -4.3944  -4.3711  -4.3324  -4.2968  -4.2685  -4.2507  -4.2270
    -4.1955  -4.1503  -4.1271  -4.0988  -4.0673  -4.0632  -4.0518  -4.0328
    -3.9658  -3.9516  -3.9280  -3.9223  -3.9075  -3.8763  -3.8572  -3.8366
    -3.8065  -3.7924  -3.7914  -3.7677  -3.7537  -3.7224  -3.7182  -3.6723
    -3.6356  -3.6259  -3.6224  -3.5992  -3.5859  -3.5806  -3.5588  -3.5505
    -3.5293  -3.5177  -3.4833  -3.4725  -3.4422  -3.4121  -3.3943  -3.3812
    -3.3500  -3.3385  -3.3249  -3.2944  -3.2776  -3.2674  -3.2565  -3.2402
    -3.2193  -3.2032  -3.1793  -3.1509  -3.1238  -3.1165  -3.0944  -3.0780
    -3.0534  -3.0381  -3.0132  -2.9802  -2.9678  -2.9535  -2.9411  -2.9155
    -2.8957  -2.8902  -2.8690  -2.8625  -2.8510  -2.8431  -2.8310  -2.8271
    -2.7976  -2.7852  -2.7648  -2.7636  -2.7320  -2.7179  -2.7129  -2.7000
    -2.6759  -2.6555  -2.6237  -2.6208  -2.5994  -2.5861  -2.5709  -2.5674
    -2.5183  -2.5080  -2.4842  -2.4707  -2.4529  -2.4333  -2.4193  -2.4010
    -2.3764  -2.3565  -2.3326  -2.3080  -2.2922  -2.2863  -2.2550  -2.2504
    -2.2265  -2.2220  -2.2019  -2.1793  -2.1553  -2.1260  -2.1250  -2.1017
    -2.0959  -2.0847  -2.0731  -2.0562  -2.0263  -2.0184  -1.9866  -1.9590
    -1.9476  -1.9380  -1.8932  -1.8778  -1.8590  -1.8479  -1.8309  -1.8225
    -1.7893  -1.7674  -1.7593  -1.7332  -1.7249  -1.7055  -1.6753  -1.6436
    -1.6389  -1.6082  -1.6034  -1.5926  -1.5767  -1.5519  -1.5371  -1.5166
    -1.4993  -1.4827  -1.4449  -1.4230  -1.3901  -1.3777  -1.3546  -1.3225
    -1.2868  -1.2314  -1.2272  -1.0776  -1.0243  -1.0034  -0.9298  -0.9205
    -0.8628  -0.8450  -0.7963  -0.5655  -0.4347  -0.4218  -0.3560  -0.2570
    -0.0315  -0.0057   0.0192   0.0547   0.0933   0.1093   0.1270   0.1375
     0.1561   0.1689   0.1766   0.1967   0.2077   0.2218   0.2332   0.2407
     0.2437   0.2543   0.2559   0.2626   0.2727   0.2848   0.2921   0.2985
     0.3056   0.3116   0.3189   0.3224   0.3241   0.3353   0.3449   0.3472
     0.3637   0.3721   0.3771   0.3789   0.3895   0.3947   0.4061   0.4087
     0.4183   0.4277   0.4349   0.4416   0.4485   0.4546   0.4586   0.4683
     0.4709   0.4925   0.4969   0.5038   0.5082   0.5152   0.5252   0.5311
     0.5376   0.5476   0.5541   0.5663   0.5698   0.5757   0.5829   0.5909
     0.5956   0.5998   0.6148   0.6268   0.6291   0.6413   0.6514   0.6526
     0.6580   0.6819   0.6901   0.6952   0.7051   0.7168   0.7233   0.7360
     0.7425   0.7454   0.7579   0.7679   0.7770   0.7880   0.7887   0.7996
     0.8071   0.8239   0.8333   0.8434   0.8465   0.9194   0.9223   0.9415
     1.0617   1.0942   1.5230   1.6010   1.6084   1.6167   1.6223   1.6427
     1.6647   1.7004   1.7324   1.7444   1.7654   1.7993   1.8152   1.8306
     1.8657   1.8681   1.8988   1.9153   1.9193   1.9344   1.9413   1.9933
     2.0161   2.0286   2.0521   2.0690   2.0836   2.1014   2.1168   2.1280
     2.1456   2.1534   2.1599   2.1733   2.1778   2.1930   2.2159   2.2237
     2.2370   2.2415   2.2613   2.2812   2.2943   2.3059   2.3216   2.3488
     2.3587   2.3830   2.3910   2.4069   2.4187   2.4436   2.4538   2.4830
     2.4984   2.5081   2.5203   2.5290   2.5574   2.6239   2.6442   2.6853
     2.7109   2.7253   2.7777   2.7907   2.8345   3.1962   3.2342   3.3971
     3.5076   3.7511   3.7730   3.8998   3.9397   3.9523   4.0267   4.4431
     4.5306   4.7176   4.8312   4.8546   4.8949   4.9705   5.3110   6.2189
     6.3017   6.4518   6.4572   6.5938   6.6791   6.7213   6.7783   6.8542
     6.8839   6.9527   7.0299   7.0701   7.1705   7.2021   7.2467   7.3119
     7.3815   7.4444   7.5122   7.5509   7.5831   7.6124   7.6926   7.7336
     7.7429   7.8165   7.8311   7.8502   7.8830   7.9079   7.9249   7.9799
     7.9952   8.0222   8.0427   8.0817   8.1146   8.1276   8.1623   8.2080
     8.2325   8.2431   8.3046   8.3415   8.3528   8.3775   8.3971   8.4110
     8.4371   8.4391   8.4629   8.4919   8.5061   8.5260   8.5483   8.5580
     8.5759   8.6046   8.6478   8.6699   8.7397   8.7463   8.8019

     the Fermi energy is     1.4905 ev

!    total energy              =   -7398.02449237 Ry
     estimated scf accuracy    <       0.00763707 Ry
     smearing contrib. (-TS)   =      -0.01640686 Ry
     internal energy E=F+TS    =   -7398.00808551 Ry

     The total energy is F=E-TS. E is the sum of the following terms:
     one-electron contribution =  -91646.90111042 Ry
     hartree contribution      =   46479.62913857 Ry
     xc contribution           =   -2260.32533417 Ry
     ewald contribution        =   40031.42149576 Ry
     Dispersion Correction     =      -1.83252237 Ry
     electric field correction =       0.00024712 Ry

     total magnetization       =    80.19 Bohr mag/cell
     absolute magnetization    =    81.75 Bohr mag/cell

     convergence has been achieved in 150 iterations

     negative rho (up, down):  9.278E-04 5.469E-04

     Forces acting on atoms (cartesian axes, Ry/au):

     atom    1 type  2   force =    -0.00477846    0.00574665    0.01891768
     atom    2 type  1   force =     0.00111214    0.00887973    0.00765659
     atom    3 type  1   force =     0.00147906   -0.00598808    0.01702382
     atom    4 type  1   force =    -0.00216642   -0.00775487    0.01748444
     atom    5 type  1   force =    -0.00355922   -0.00343338    0.01433999
     atom    6 type  1   force =    -0.00509425    0.00342305    0.01198580
     atom    7 type  1   force =     0.00924448    0.00901531    0.01497564
     atom    8 type  1   force =    -0.00222744    0.00569185    0.01006664
     atom    9 type  1   force =     0.00172489   -0.00591906    0.01959342
     atom   10 type  1   force =     0.00280038   -0.00765614    0.01595505
     atom   11 type  1   force =     0.00362631   -0.00239801    0.01014654
     atom   12 type  1   force =     0.00557406    0.00234653    0.00991330
     atom   13 type  3   force =    -0.00067849   -0.00086638    0.00264800
     atom   14 type  3   force =    -0.00114927    0.00110816    0.00466863
     atom   15 type  3   force =     0.00003141   -0.00004162    0.00385366
     atom   16 type  3   force =     0.00006296    0.00090420    0.00316908
     atom   17 type  4   force =    -0.00548142   -0.00458268    0.01103466
     atom   18 type  4   force =    -0.00458346    0.00609192   -0.00521066
     atom   19 type  4   force =     0.00529897    0.00569447   -0.00518600
     atom   20 type  4   force =     0.00522073   -0.00673079    0.01256666
     atom   21 type  4   force =    -0.00735842   -0.00613109   -0.00626371
     atom   22 type  4   force =    -0.00130179    0.00613650    0.01546193
     atom   23 type  4   force =     0.00179466    0.00507642    0.01358063
     atom   24 type  4   force =     0.00802809   -0.00787246   -0.01082491
     atom   25 type  4   force =     0.00644924    0.01385757    0.00079883
     atom   26 type  4   force =     0.00464118   -0.00706260    0.00653230
     atom   27 type  4   force =    -0.01659673    0.00070629    0.00176268
     atom   28 type  4   force =    -0.00941156   -0.00176418    0.00578686
     atom   29 type  4   force =     0.00949937   -0.00135483    0.00501421
     atom   30 type  4   force =    -0.00704382   -0.01262075    0.00672845
     atom   31 type  4   force =    -0.00684748    0.01225021    0.00131357
     atom   32 type  4   force =     0.01393908    0.00045469    0.00221778
     atom   33 type  3   force =     0.00040219    0.00001636    0.00317143
     atom   34 type  3   force =    -0.00013838    0.00056838    0.00449208
     atom   35 type  3   force =    -0.00055557   -0.00018138    0.00370834
     atom   36 type  3   force =    -0.00004056    0.00032144    0.00313877
     atom   37 type  4   force =    -0.00508971   -0.00388578    0.01122823
     atom   38 type  4   force =    -0.00327941    0.00455298   -0.00479111
     atom   39 type  4   force =     0.00268010    0.00343828   -0.00491969
     atom   40 type  4   force =     0.00482708   -0.00824037    0.01410272
     atom   41 type  4   force =    -0.00679912   -0.00594483   -0.00740880
     atom   42 type  4   force =    -0.00199137    0.00569472    0.01164350
     atom   43 type  4   force =     0.00305978    0.00453166    0.01333074
     atom   44 type  4   force =     0.00857860   -0.00820146   -0.01058872
     atom   45 type  4   force =     0.00723937    0.01466330    0.00099997
     atom   46 type  4   force =     0.00474494   -0.00600447    0.00594492
     atom   47 type  4   force =    -0.01518090    0.00087205    0.00236672
     atom   48 type  4   force =    -0.00974491   -0.00097715    0.00567130
     atom   49 type  4   force =     0.01309959   -0.00087707    0.00570632
     atom   50 type  4   force =    -0.00530303   -0.00986632    0.00662835
     atom   51 type  4   force =    -0.00625819    0.01171616    0.00169789
     atom   52 type  4   force =     0.01145772    0.00046006    0.00270585
     atom   53 type  2   force =    -0.00397011    0.00215957    0.01707682
     atom   54 type  1   force =     0.00348892    0.00453519   -0.00935754
     atom   55 type  1   force =     0.00585302   -0.00500036    0.01148125
     atom   56 type  1   force =     0.00128012    0.00153111   -0.01015264
     atom   57 type  1   force =    -0.00090451    0.01420250    0.01008105
     atom   58 type  1   force =     0.00266544    0.00503892   -0.00366296
     atom   59 type  1   force =     0.00069067   -0.00324733    0.00822577
     atom   60 type  1   force =    -0.00555100    0.00520980   -0.00727517
     atom   61 type  1   force =     0.00195995   -0.00337172    0.01191847
     atom   62 type  1   force =    -0.00489945   -0.00062762   -0.00923255
     atom   63 type  1   force =    -0.01117069    0.01924863    0.01369549
     atom   64 type  1   force =    -0.00211038    0.00896050    0.00091350
     atom   65 type  3   force =     0.04485032   -0.11432330   -0.00708597
     atom   66 type  3   force =    -0.00074101   -0.00276860    0.00818709
     atom   67 type  3   force =    -0.03805772    0.12403457    0.01830049
     atom   68 type  3   force =     0.06267273   -0.00182453    0.00010223
     atom   69 type  4   force =     0.00738774   -0.02447549    0.01396116
     atom   70 type  4   force =    -0.00676965    0.01065490   -0.01094430
     atom   71 type  4   force =     0.00521428    0.01035442   -0.01684926
     atom   72 type  4   force =     0.01048539   -0.00724726    0.01385875
     atom   73 type  4   force =    -0.00285573   -0.01408332   -0.00485564
     atom   74 type  4   force =    -0.00503250    0.00614931    0.01454147
     atom   75 type  4   force =     0.00795858    0.02023507    0.02174976
     atom   76 type  4   force =     0.01424439   -0.00081691   -0.00267199
     atom   77 type  4   force =     0.01397614    0.01269915   -0.00111312
     atom   78 type  4   force =     0.05351832   -0.15730907    0.00100913
     atom   79 type  4   force =    -0.01506282    0.00315466   -0.00085056
     atom   80 type  4   force =    -0.01845322    0.00022854    0.00302740
     atom   81 type  4   force =     0.08503318   -0.00118159   -0.00197956
     atom   82 type  4   force =    -0.00855469   -0.01661626    0.00503682
     atom   83 type  4   force =    -0.04634052    0.14938175   -0.00069255
     atom   84 type  4   force =     0.01058375   -0.01113757   -0.00596090
     atom   85 type  3   force =     0.03948210   -0.11963272   -0.01489404
     atom   86 type  3   force =    -0.06145529   -0.00084647    0.01124483
     atom   87 type  3   force =    -0.04434126    0.12443922    0.02255240
     atom   88 type  3   force =    -0.00126967   -0.00001865    0.00603774
     atom   89 type  4   force =     0.00374613   -0.02213512    0.01560782
     atom   90 type  4   force =    -0.01046546    0.00932038   -0.00864034
     atom   91 type  4   force =    -0.00253122    0.01574437   -0.01680890
     atom   92 type  4   force =     0.00661456   -0.00873924    0.01340665
     atom   93 type  4   force =    -0.00628394   -0.01205577   -0.00159227
     atom   94 type  4   force =    -0.01149346    0.00827402    0.01547154
     atom   95 type  4   force =     0.00247393    0.01977364    0.02505201
     atom   96 type  4   force =     0.00959966   -0.00075125   -0.00169142
     atom   97 type  4   force =     0.00698883    0.01556568   -0.00238907
     atom   98 type  4   force =     0.04831048   -0.15777577    0.00172291
     atom   99 type  4   force =    -0.08503383    0.00050959    0.00429746
     atom  100 type  4   force =    -0.01953942    0.00144351    0.00218318
     atom  101 type  4   force =     0.01810410    0.00062312    0.00427222
     atom  102 type  4   force =    -0.01508012   -0.01281450    0.00552874
     atom  103 type  4   force =    -0.04723152    0.14714323    0.00073749
     atom  104 type  4   force =     0.00643976   -0.00971705   -0.00695402
     atom  105 type  2   force =     0.00341282    0.00055709   -0.06673099
     atom  106 type  1   force =     0.02720175    0.01629833   -0.01713684
     atom  107 type  1   force =     0.01089594   -0.00995415   -0.05891412
     atom  108 type  1   force =    -0.02501830    0.02039472   -0.01171380
     atom  109 type  1   force =     0.00600019    0.01316408   -0.03057167
     atom  110 type  1   force =    -0.00132474   -0.00962706   -0.05042485
     atom  111 type  1   force =    -0.00386691   -0.00390112   -0.05090498
     atom  112 type  1   force =     0.02756907    0.01884182   -0.01815842
     atom  113 type  1   force =     0.00068373   -0.00710994   -0.05854489
     atom  114 type  1   force =    -0.03066200    0.01804587   -0.01253786
     atom  115 type  1   force =    -0.00603325    0.01495842   -0.02926555
     atom  116 type  1   force =    -0.00910315   -0.00548105   -0.04757458
     atom  117 type  3   force =     0.01525130   -0.17439394   -0.10543488
     atom  118 type  3   force =     0.00473320   -0.00820599   -0.00938971
     atom  119 type  3   force =    -0.04420983    0.12393976    0.00131170
     atom  120 type  3   force =     0.09477824   -0.04070657   -0.07682163
     atom  121 type  4   force =     0.00857707   -0.01402951    0.02946373
     atom  122 type  4   force =    -0.00103137    0.00142978    0.00606371
     atom  123 type  4   force =    -0.00312008    0.00021250   -0.00189914
     atom  124 type  4   force =     0.00701616    0.00429584    0.01956295
     atom  125 type  4   force =     0.01478740   -0.00853572    0.03798811
     atom  126 type  4   force =    -0.01156316    0.00566056    0.00116619
     atom  127 type  4   force =     0.00862605    0.01355035    0.00574424
     atom  128 type  4   force =    -0.00496008    0.00783249    0.05234810
     atom  129 type  4   force =    -0.01365260    0.01511539    0.00216779
     atom  130 type  4   force =     0.04308506   -0.14779363   -0.00435611
     atom  131 type  4   force =    -0.00489628   -0.00191374    0.00295282
     atom  132 type  4   force =     0.00160890    0.00234455   -0.00090719
     atom  133 type  4   force =     0.07259070    0.00493456   -0.00485748
     atom  134 type  4   force =    -0.00038266    0.00002285   -0.00001847
     atom  135 type  4   force =    -0.02036761    0.15943344    0.00804483
     atom  136 type  4   force =     0.00715329   -0.00884660    0.00512024
     atom  137 type  3   force =     0.01010770   -0.16732198   -0.09118895
     atom  138 type  3   force =    -0.06434087   -0.00226015   -0.00175137
     atom  139 type  3   force =    -0.04869305    0.11770966    0.00470230
     atom  140 type  3   force =     0.03067394   -0.04277184   -0.07073467
     atom  141 type  4   force =     0.00632604   -0.01020362    0.02435342
     atom  142 type  4   force =    -0.00351352   -0.00189550    0.00467136
     atom  143 type  4   force =    -0.01027303    0.00564088   -0.00296722
     atom  144 type  4   force =     0.00187667    0.00378450    0.01998710
     atom  145 type  4   force =     0.01141095   -0.00418656    0.05505544
     atom  146 type  4   force =    -0.01295823    0.00349454    0.00218303
     atom  147 type  4   force =     0.00508730    0.01347232    0.00807333
     atom  148 type  4   force =    -0.01262880    0.01059819    0.05197238
     atom  149 type  4   force =    -0.01969833    0.01824850    0.00191308
     atom  150 type  4   force =     0.04051899   -0.14078359   -0.00384030
     atom  151 type  4   force =    -0.07383656   -0.00249712    0.00904260
     atom  152 type  4   force =    -0.00038668    0.00367428   -0.00153148
     atom  153 type  4   force =    -0.00085862    0.00140397   -0.00004629
     atom  154 type  4   force =    -0.00764937    0.00179281   -0.00111333
     atom  155 type  4   force =    -0.02070922    0.15320053    0.00715183
     atom  156 type  4   force =    -0.00150331   -0.01048653   -0.00075342
     atom  157 type  4   force =     0.00474134    0.00165552    0.00902523
     atom  158 type  5   force =    -0.00985245    0.00723679   -0.00214257

     Total force =     0.709403     Total SCF correction =     0.459066
     SCF correction compared to forces is large: reduce conv_thr to get better values
 
     init_run     :      7.26s CPU      7.89s WALL (       1 calls)
     electrons    :   1771.05s CPU   1845.24s WALL (       1 calls)
     forces       :      3.67s CPU      4.01s WALL (       1 calls)
     force_london :      0.09s CPU      0.09s WALL (       1 calls)

     Called by init_run:
     wfcinit      :      4.18s CPU      4.34s WALL (       1 calls)
     potinit      :      0.69s CPU      0.87s WALL (       1 calls)
     hinit0       :      1.43s CPU      1.52s WALL (       1 calls)

     Called by electrons:
     c_bands      :   1354.43s CPU   1392.32s WALL (     150 calls)
     sum_band     :    268.98s CPU    289.31s WALL (     150 calls)
     v_of_rho     :     25.71s CPU     26.75s WALL (     151 calls)
     newd         :     81.23s CPU     96.16s WALL (     151 calls)
     mix_rho      :     38.60s CPU     38.78s WALL (     150 calls)
     energy_londo :      0.08s CPU      0.08s WALL (       1 calls)

     Called by c_bands:
     init_us_2    :      3.09s CPU      3.19s WALL (     604 calls)
     init_us_2:cp :      3.09s CPU      3.19s WALL (     604 calls)
     regterg      :   1325.72s CPU   1363.34s WALL (     300 calls)

     Called by *egterg:
     rdiaghg      :    313.87s CPU    330.40s WALL (     906 calls)
     h_psi        :    535.40s CPU    545.87s WALL (     908 calls)
     s_psi        :     78.16s CPU     78.19s WALL (     908 calls)
     g_psi        :      0.57s CPU      0.58s WALL (     606 calls)

     Called by h_psi:
     h_psi:calbec :    149.32s CPU    158.04s WALL (     908 calls)
     vloc_psi     :    303.34s CPU    304.17s WALL (     908 calls)
     add_vuspsi   :     81.83s CPU     82.74s WALL (     908 calls)

     General routines
     calbec       :    222.71s CPU    235.97s WALL (    1216 calls)
     fft          :     60.03s CPU     61.54s WALL (    2733 calls)
     ffts         :     23.84s CPU     23.89s WALL (   18902 calls)
     fftw         :    358.15s CPU    359.08s WALL (  493276 calls)
     interpolate  :      2.24s CPU      2.35s WALL (     302 calls)
 
     Parallel routines
 
     PWSCF        :  29m43.89s CPU  30m59.36s WALL

 
   This run was terminated on:  21:49:37  19Nov2025            

=------------------------------------------------------------------------------=
   JOB DONE.
=------------------------------------------------------------------------------=
