
     Program PWSCF v.7.2 starts on 19Nov2025 at 22:49:13 

     This program is part of the open-source Quantum ESPRESSO suite
     for quantum simulation of materials; please cite
         "P. Giannozzi et al., J. Phys.:Condens. Matter 21 395502 (2009);
         "P. Giannozzi et al., J. Phys.:Condens. Matter 29 465901 (2017);
         "P. Giannozzi et al., J. Chem. Phys. 152 154105 (2020);
          URL http://www.quantum-espresso.org", 
     in publications or presentations arising from this work. More details at
     http://www.quantum-espresso.org/quote

     Parallel version (MPI), running on    64 processors

     MPI processes distributed on     4 nodes
     472428 MiB available memory on the printing compute node when the environment starts
 
     Reading input from PWINPUT_atm158_zm

     Current dimensions of program PWSCF are:
     Max number of different atomic species (ntypx) = 10
     Max number of k-points (npk) =  40000
     Max angular momentum in pseudopotentials (lmaxx) =  4
     Presently no symmetry can be used with electric field

     file Ni.pbe-n-rrkjus_psl.1.0.0.UPF: wavefunction(s)  3D renormalized
     file Mn.pbe-spn-rrkjus_psl.0.3.1.UPF: wavefunction(s)  3D renormalized
     file O.pbe-rrkjus.UPF: wavefunction(s)  2S renormalized
     file H.pbe-rrkjus.UPF: wavefunction(s)  1S renormalized

     gamma-point specific algorithms are used
 
     R & G space division:  proc/nbgrp/npool/nimage =      64
     Subspace diagonalization in iterative solution of the eigenvalue problem:
     one sub-group per band group will be used
     custom distributed-memory algorithm (size of sub-group:  6*  6 procs)

 
     Parallelization info
     --------------------
     sticks:   dense  smooth     PW     G-vecs:    dense   smooth      PW
     Min         208      82     20                59912    15118    1876
     Max         210      84     22                59974    15196    1926
     Sum       13399    5355   1345              3836275   970529  121367
 
     Using Slab Decomposition
 


     bravais-lattice index     =            0
     lattice parameter (alat)  =      17.7004  a.u.
     unit-cell volume          =   20319.7251 (a.u.)^3
     number of atoms/cell      =          158
     number of atomic types    =            5
     number of electrons       =      1078.00
     number of Kohn-Sham states=          647
     kinetic-energy cutoff     =      50.0000  Ry
     charge density cutoff     =     500.0000  Ry
     scf convergence threshold =      1.0E-06
     mixing beta               =       0.1000
     number of iterations used =            8  local-TF  mixing
     Exchange-correlation=  SLA  PW   PBE  PBE
                           (   1   4   3   4   0   0   0)

     celldm(1)=  17.700384  celldm(2)=   0.000000  celldm(3)=   0.000000
     celldm(4)=   0.000000  celldm(5)=   0.000000  celldm(6)=   0.000000

     crystal axes: (cart. coord. in units of alat)
               a(1) = (   1.000000   0.000000   0.000000 )  
               a(2) = (   0.000000   1.075730   0.000000 )  
               a(3) = (   0.000000   0.000000   3.406172 )  

     reciprocal axes: (cart. coord. in units 2 pi/alat)
               b(1) = (  1.000000  0.000000  0.000000 )  
               b(2) = (  0.000000  0.929602  0.000000 )  
               b(3) = (  0.000000  0.000000  0.293585 )  


     PseudoPot. # 1 for Ni read from file:
     ~/PSEUDO/Ni.pbe-n-rrkjus_psl.1.0.0.UPF
     MD5 check sum: Not computed, couldn't open file
     Pseudo is Ultrasoft + core correction, Zval = 10.0
     Generated using "atomic" code by A. Dal Corso  v.5.1.2
     Using radial grid of 1195 points,  6 beta functions with: 
                l(1) =   0
                l(2) =   0
                l(3) =   1
                l(4) =   1
                l(5) =   2
                l(6) =   2
     Q(r) pseudized with 0 coefficients 


     PseudoPot. # 2 for Mn read from file:
     ~/PSEUDO/Mn.pbe-spn-rrkjus_psl.0.3.1.UPF
     MD5 check sum: Not computed, couldn't open file
     Pseudo is Ultrasoft + core correction, Zval = 15.0
     Generated using &quot;atomic&quot; code by A. Dal Corso  v.6.2.2
     Using radial grid of 1187 points,  6 beta functions with: 
                l(1) =   0
                l(2) =   0
                l(3) =   1
                l(4) =   1
                l(5) =   2
                l(6) =   2
     Q(r) pseudized with 0 coefficients 


     PseudoPot. # 3 for P  read from file:
     ~/PSEUDO/P.pbe-n-rrkjus_psl.1.0.0.UPF
     MD5 check sum: Not computed, couldn't open file
     Pseudo is Ultrasoft + core correction, Zval =  5.0
     Generated using "atomic" code by A. Dal Corso  v.5.1
     Using radial grid of 1147 points,  6 beta functions with: 
                l(1) =   0
                l(2) =   0
                l(3) =   1
                l(4) =   1
                l(5) =   2
                l(6) =   2
     Q(r) pseudized with 0 coefficients 


     PseudoPot. # 4 for O  read from file:
     ~/PSEUDO/O.pbe-rrkjus.UPF
     MD5 check sum: Not computed, couldn't open file
     Pseudo is Ultrasoft, Zval =  6.0
     Generated by new atomic code, or converted to UPF format
     Using radial grid of 1269 points,  4 beta functions with: 
                l(1) =   0
                l(2) =   0
                l(3) =   1
                l(4) =   1
     Q(r) pseudized with 0 coefficients 


     PseudoPot. # 5 for H  read from file:
     ~/PSEUDO/H.pbe-rrkjus.UPF
     MD5 check sum: Not computed, couldn't open file
     Pseudo is Ultrasoft, Zval =  1.0
     Generated by new atomic code, or converted to UPF format
     Using radial grid of 1061 points,  2 beta functions with: 
                l(1) =   0
                l(2) =   0
     Q(r) pseudized with 0 coefficients 


     atomic species   valence    mass     pseudopotential
     Ni               10.00    58.69300     Ni( 1.00)
     Mn               15.00    54.93800     Mn( 1.00)
     P                 5.00    30.97300     P ( 1.00)
     O                 6.00    15.99900     O ( 1.00)
     H                 1.00     1.00790     H ( 1.00)

     Starting magnetic structure 
     atomic species   magnetization
     Ni              1.000
     Mn              1.000
     P               1.000
     O               1.000
     H               0.000

     No symmetry found



   Cartesian axes

     site n.     atom                  positions (alat units)
         1        Mn     tau(   1) = (   0.2514725   0.8403621   1.6922649  )
         2        Ni     tau(   2) = (   0.4981613   0.7732174   1.3698899  )
         3        Ni     tau(   3) = (   0.0016400   0.2965188   1.6763153  )
         4        Ni     tau(   4) = (   0.2604917   0.2384823   1.3674854  )
         5        Ni     tau(   5) = (   0.9976394   1.0763275   1.5332471  )
         6        Ni     tau(   6) = (   0.2562433   0.5373049   1.5311374  )
         7        Ni     tau(   7) = (   0.7534975   0.8335100   1.6761660  )
         8        Ni     tau(   8) = (   0.9915982   0.7733775   1.3721323  )
         9        Ni     tau(   9) = (   0.5140351   0.3046720   1.7065963  )
        10        Ni     tau(  10) = (   0.7602191   0.2367081   1.3680604  )
        11        Ni     tau(  11) = (   0.5007003   1.0777795   1.5342653  )
        12        Ni     tau(  12) = (   0.7546321   0.5336828   1.5343376  )
        13        P      tau(  13) = (   0.2114324   0.9730718   1.3787149  )
        14        P      tau(  14) = (   0.4677209   0.6466717   1.6883849  )
        15        P      tau(  15) = (   0.2879347   0.1165823   1.6895124  )
        16        P      tau(  16) = (   0.0433043   0.4322061   1.3717573  )
        17        O      tau(  17) = (   0.1354319   0.9024246   1.5162361  )
        18        O      tau(  18) = (   0.3901476   0.7094618   1.5447118  )
        19        O      tau(  19) = (   0.3653522   0.1703016   1.5451332  )
        20        O      tau(  20) = (   0.1220603   0.3621553   1.5078476  )
        21        O      tau(  21) = (   0.1483602   0.8811988   1.2566198  )
        22        O      tau(  22) = (   0.4071019   0.7461546   1.8042590  )
        23        O      tau(  23) = (   0.3454364   0.2138238   1.8062783  )
        24        O      tau(  24) = (   0.1034528   0.3447440   1.2451229  )
        25        O      tau(  25) = (   0.1022912   0.5877007   1.3760419  )
        26        O      tau(  26) = (   0.3424242   1.0329279   1.6966988  )
        27        O      tau(  27) = (   0.3794667   0.4262365   1.3824156  )
        28        O      tau(  28) = (   0.1224475   0.1157300   1.6781663  )
        29        O      tau(  29) = (   0.1306686   0.6530965   1.6813924  )
        30        O      tau(  30) = (   0.4060763   0.4924401   1.6874378  )
        31        O      tau(  31) = (   0.1505415   0.0512368   1.3772435  )
        32        O      tau(  32) = (   0.3750906   0.9649156   1.3868523  )
        33        P      tau(  33) = (   0.7107969   0.9709559   1.3722571  )
        34        P      tau(  34) = (   0.9650128   0.6455956   1.6946891  )
        35        P      tau(  35) = (   0.7894270   0.1050360   1.6939332  )
        36        P      tau(  36) = (   0.5438507   0.4295248   1.3733739  )
        37        O      tau(  37) = (   0.6327050   0.9000346   1.5082036  )
        38        O      tau(  38) = (   0.8878570   0.7057763   1.5484453  )
        39        O      tau(  39) = (   0.8648281   0.1699114   1.5490065  )
        40        O      tau(  40) = (   0.6200951   0.3574703   1.5092594  )
        41        O      tau(  41) = (   0.6501234   0.8827865   1.2460499  )
        42        O      tau(  42) = (   0.9049968   0.7432969   1.8094969  )
        43        O      tau(  43) = (   0.8531982   0.1989439   1.8109223  )
        44        O      tau(  44) = (   0.6040842   0.3418719   1.2462640  )
        45        O      tau(  45) = (   0.6050226   0.5845474   1.3766490  )
        46        O      tau(  46) = (   0.8468877   1.0236478   1.6902311  )
        47        O      tau(  47) = (   0.8794716   0.4244841   1.3846896  )
        48        O      tau(  48) = (   0.6245466   0.1082359   1.6834857  )
        49        O      tau(  49) = (   0.6319549   0.6522194   1.6764679  )
        50        O      tau(  50) = (   0.9116309   0.4875625   1.6930196  )
        51        O      tau(  51) = (   0.6514964   0.0501678   1.3760815  )
        52        O      tau(  52) = (   0.8747806   0.9631357   1.3846982  )
        53        Mn     tau(  53) = (   0.2404744   0.8246335   1.0701417  )
        54        Ni     tau(  54) = (   0.4968126   0.7601755   0.7454373  )
        55        Ni     tau(  55) = (   0.0066150   0.2811828   1.0628866  )
        56        Ni     tau(  56) = (   0.2585722   0.2230943   0.7421070  )
        57        Ni     tau(  57) = (   0.9987350   1.0571496   0.9014992  )
        58        Ni     tau(  58) = (   0.2517397   0.5205596   0.9040596  )
        59        Ni     tau(  59) = (   0.7451645   0.8212628   1.0648168  )
        60        Ni     tau(  60) = (   0.9939181   0.7613889   0.7462324  )
        61        Ni     tau(  61) = (   0.5111533   0.2799173   1.0618053  )
        62        Ni     tau(  62) = (   0.7606326   0.2194352   0.7418547  )
        63        Ni     tau(  63) = (   0.5024065   1.0563218   0.8999416  )
        64        Ni     tau(  64) = (   0.7529977   0.5192985   0.9024691  )
        65        P      tau(  65) = (   0.2092944   0.9606182   0.7524883  )
        66        P      tau(  66) = (   0.4655727   0.6234620   1.0595283  )
        67        P      tau(  67) = (   0.2910699   0.0902448   1.0573821  )
        68        P      tau(  68) = (   0.0396216   0.4163480   0.7471080  )
        69        O      tau(  69) = (   0.1294378   0.8888345   0.8859300  )
        70        O      tau(  70) = (   0.3874505   0.6929859   0.9232915  )
        71        O      tau(  71) = (   0.3702540   0.1589885   0.9209891  )
        72        O      tau(  72) = (   0.1184398   0.3458043   0.8831565  )
        73        O      tau(  73) = (   0.1451572   0.8725966   0.6282341  )
        74        O      tau(  74) = (   0.4048762   0.7120670   1.1852426  )
        75        O      tau(  75) = (   0.3523506   0.1775664   1.1834175  )
        76        O      tau(  76) = (   0.1017610   0.3285569   0.6213347  )
        77        O      tau(  77) = (   0.0975396   0.5724373   0.7511996  )
        78        O      tau(  78) = (   0.3483552   1.0190030   1.0599597  )
        79        O      tau(  79) = (   0.3784305   0.4100203   0.7560991  )
        80        O      tau(  80) = (   0.1268237   0.0943029   1.0477175  )
        81        O      tau(  81) = (   0.1212267   0.6299255   1.0507023  )
        82        O      tau(  82) = (   0.4053315   0.4684472   1.0569297  )
        83        O      tau(  83) = (   0.1536621   0.0322003   0.7496532  )
        84        O      tau(  84) = (   0.3732349   0.9506802   0.7613277  )
        85        P      tau(  85) = (   0.7119823   0.9571059   0.7496908  )
        86        P      tau(  86) = (   0.9615208   0.6238477   1.0606987  )
        87        P      tau(  87) = (   0.7927710   0.0845145   1.0577754  )
        88        P      tau(  88) = (   0.5426404   0.4144760   0.7459181  )
        89        O      tau(  89) = (   0.6326879   0.8866267   0.8856678  )
        90        O      tau(  90) = (   0.8842163   0.6958291   0.9244764  )
        91        O      tau(  91) = (   0.8716178   0.1552836   0.9216415  )
        92        O      tau(  92) = (   0.6212010   0.3433751   0.8818834  )
        93        O      tau(  93) = (   0.6507714   0.8687427   0.6238197  )
        94        O      tau(  94) = (   0.9014054   0.7139543   1.1859242  )
        95        O      tau(  95) = (   0.8548963   0.1722994   1.1834447  )
        96        O      tau(  96) = (   0.6044469   0.3253792   0.6209553  )
        97        O      tau(  97) = (   0.6024424   0.5698225   0.7490903  )
        98        O      tau(  98) = (   0.8498940   1.0129567   1.0594762  )
        99        O      tau(  99) = (   0.8798395   0.4080910   0.7564148  )
       100        O      tau( 100) = (   0.6286921   0.0909721   1.0472573  )
       101        O      tau( 101) = (   0.6294973   0.6302838   1.0497366  )
       102        O      tau( 102) = (   0.9024339   0.4685397   1.0573501  )
       103        O      tau( 103) = (   0.6547812   0.0286072   0.7473283  )
       104        O      tau( 104) = (   0.8760507   0.9507690   0.7605412  )
       105        Mn     tau( 105) = (   0.2404744   0.8121420   0.4502541  )
       106        Ni     tau( 106) = (   0.4968126   0.7476840   0.1255496  )
       107        Ni     tau( 107) = (   0.0066150   0.2686914   0.4429989  )
       108        Ni     tau( 108) = (   0.2585722   0.2106028   0.1222194  )
       109        Ni     tau( 109) = (   0.9987350   1.0446581   0.2816116  )
       110        Ni     tau( 110) = (   0.2517397   0.5080681   0.2841720  )
       111        Ni     tau( 111) = (   0.7451645   0.8087713   0.4449291  )
       112        Ni     tau( 112) = (   0.9939181   0.7488974   0.1263448  )
       113        Ni     tau( 113) = (   0.5111533   0.2674258   0.4419177  )
       114        Ni     tau( 114) = (   0.7606326   0.2069438   0.1219670  )
       115        Ni     tau( 115) = (   0.5024065   1.0438304   0.2800540  )
       116        Ni     tau( 116) = (   0.7529977   0.5068070   0.2825815  )
       117        P      tau( 117) = (   0.2092944   0.9481267   0.1326007  )
       118        P      tau( 118) = (   0.4655727   0.6109705   0.4396407  )
       119        P      tau( 119) = (   0.2910699   0.0777534   0.4374945  )
       120        P      tau( 120) = (   0.0396216   0.4038566   0.1272204  )
       121        O      tau( 121) = (   0.1294378   0.8763430   0.2660424  )
       122        O      tau( 122) = (   0.3874505   0.6804944   0.3034039  )
       123        O      tau( 123) = (   0.3702540   0.1464970   0.3011014  )
       124        O      tau( 124) = (   0.1184398   0.3333129   0.2632689  )
       125        O      tau( 125) = (   0.1451572   0.8601051   0.0083464  )
       126        O      tau( 126) = (   0.4048762   0.6995756   0.5653550  )
       127        O      tau( 127) = (   0.3523506   0.1650749   0.5635298  )
       128        O      tau( 128) = (   0.1017610   0.3160655   0.0014470  )
       129        O      tau( 129) = (   0.0975396   0.5599458   0.1313120  )
       130        O      tau( 130) = (   0.3483552   1.0065115   0.4400720  )
       131        O      tau( 131) = (   0.3784305   0.3975288   0.1362114  )
       132        O      tau( 132) = (   0.1268237   0.0818115   0.4278298  )
       133        O      tau( 133) = (   0.1212267   0.6174340   0.4308146  )
       134        O      tau( 134) = (   0.4053315   0.4559557   0.4370420  )
       135        O      tau( 135) = (   0.1536621   0.0197088   0.1297656  )
       136        O      tau( 136) = (   0.3732349   0.9381887   0.1414400  )
       137        P      tau( 137) = (   0.7119823   0.9446144   0.1298032  )
       138        P      tau( 138) = (   0.9615208   0.6113562   0.4408111  )
       139        P      tau( 139) = (   0.7927710   0.0720230   0.4378878  )
       140        P      tau( 140) = (   0.5426404   0.4019845   0.1260304  )
       141        O      tau( 141) = (   0.6326879   0.8741353   0.2657802  )
       142        O      tau( 142) = (   0.8842163   0.6833376   0.3045887  )
       143        O      tau( 143) = (   0.8716178   0.1427921   0.3017538  )
       144        O      tau( 144) = (   0.6212010   0.3308836   0.2619957  )
       145        O      tau( 145) = (   0.6507714   0.8562512   0.0039320  )
       146        O      tau( 146) = (   0.9014054   0.7014628   0.5660366  )
       147        O      tau( 147) = (   0.8548963   0.1598079   0.5635571  )
       148        O      tau( 148) = (   0.6044469   0.3128877   0.0010676  )
       149        O      tau( 149) = (   0.6024424   0.5573310   0.1292027  )
       150        O      tau( 150) = (   0.8498940   1.0004653   0.4395886  )
       151        O      tau( 151) = (   0.8798395   0.3955995   0.1365272  )
       152        O      tau( 152) = (   0.6286921   0.0784807   0.4273696  )
       153        O      tau( 153) = (   0.6294973   0.6177923   0.4298489  )
       154        O      tau( 154) = (   0.9024339   0.4560482   0.4374624  )
       155        O      tau( 155) = (   0.6547812   0.0161158   0.1274406  )
       156        O      tau( 156) = (   0.8760507   0.9382775   0.1406535  )
       157        O      tau( 157) = (   0.6249036   0.3860534   1.8440900  )
       158        H      tau( 158) = (   0.7081905   0.3257877   1.8679200  )

     -------------------------------------------------
     Parameters for Dispersion (Grimme-D2) Correction:
     -------------------------------------------------
       atom      VdW radius       C_6     

        Ni         2.952        374.666
        Mn         2.952        374.666
        P          3.222        271.980
        O          2.536         24.284
        H          1.892          4.857

     number of k points=     1  Gaussian smearing, width (Ry)=  0.0100
                       cart. coord. in units 2pi/alat
        k(    1) = (   0.0000000   0.0000000   0.0000000), wk =   1.0000000

     Dense  grid:  1918138 G-vectors     FFT dimensions: ( 125, 135, 432)

     Smooth grid:   485265 G-vectors     FFT dimensions: (  80,  90, 288)

     Estimated max dynamical RAM per process >     320.12 MB

     Estimated total dynamical RAM >      20.01 GB
     Generating pointlists ...
     new r_m :   0.0802 (alat units)  1.4199 (a.u.) for type    1
     new r_m :   0.0869 (alat units)  1.5388 (a.u.) for type    2
     new r_m :   0.0650 (alat units)  1.1499 (a.u.) for type    3
     new r_m :   0.0435 (alat units)  0.7705 (a.u.) for type    4
     new r_m :   0.0435 (alat units)  0.7705 (a.u.) for type    5

     Initial potential from superposition of free atoms

     starting charge    1077.8900, renormalised to    1078.0000

     negative rho (up, down):  1.225E-03 4.543E-04
 
     Adding external electric field

     Computed dipole along edir(3) : 
        Dipole                1.6238 Ry au,          4.1273 Debye
        Dipole field          0.0010 Ry au, 
 
        Potential amp.       -0.1090 Ry
        Total length         54.2615 bohr
 
 
     Adding external electric field

     Computed dipole along edir(3) : 
        Dipole                1.6238 Ry au,          4.1273 Debye
        Dipole field          0.0010 Ry au, 
 
        Potential amp.       -0.1090 Ry
        Total length         54.2615 bohr
 
     Starting wfcs are  812 randomized atomic wfcs

     total cpu time spent up to now is        9.6 secs

     Self-consistent Calculation

     iteration #  1     ecut=    50.00 Ry     beta= 0.10
     Davidson diagonalization with overlap
     ethr =  1.00E-02,  avg # of iterations =  6.0

     negative rho (up, down):  3.473E-01 2.635E-06
 
     Adding external electric field

     Computed dipole along edir(3) : 
        Dipole               -3.2339 Ry au,         -8.2198 Debye
        Dipole field         -0.0020 Ry au, 
 
        Potential amp.        0.2170 Ry
        Total length         54.2615 bohr
 
 
     Adding external electric field

     Computed dipole along edir(3) : 
        Dipole               -3.2339 Ry au,         -8.2198 Debye
        Dipole field         -0.0020 Ry au, 
 
        Potential amp.        0.2170 Ry
        Total length         54.2615 bohr
 

     total cpu time spent up to now is       33.8 secs

     total energy              =   -7180.47185777 Ry
     estimated scf accuracy    <     749.34582787 Ry

     total magnetization       =   216.00 Bohr mag/cell
     absolute magnetization    =   296.79 Bohr mag/cell

     iteration #  2     ecut=    50.00 Ry     beta= 0.10
     Davidson diagonalization with overlap
     ethr =  1.00E-02,  avg # of iterations =  2.0

     negative rho (up, down):  3.190E-01 2.443E-06
 
     Adding external electric field

     Computed dipole along edir(3) : 
        Dipole               -2.3634 Ry au,         -6.0073 Debye
        Dipole field         -0.0015 Ry au, 
 
        Potential amp.        0.1586 Ry
        Total length         54.2615 bohr
 
 
     Adding external electric field

     Computed dipole along edir(3) : 
        Dipole               -2.3634 Ry au,         -6.0073 Debye
        Dipole field         -0.0015 Ry au, 
 
        Potential amp.        0.1586 Ry
        Total length         54.2615 bohr
 

     total cpu time spent up to now is       48.3 secs

     total energy              =   -7264.72557198 Ry
     estimated scf accuracy    <     159.96850746 Ry

     total magnetization       =   144.48 Bohr mag/cell
     absolute magnetization    =   196.34 Bohr mag/cell

     iteration #  3     ecut=    50.00 Ry     beta= 0.10
     Davidson diagonalization with overlap
     ethr =  1.00E-02,  avg # of iterations =  1.5

     negative rho (up, down):  2.749E-01 2.043E-06
 
     Adding external electric field

     Computed dipole along edir(3) : 
        Dipole               -1.9404 Ry au,         -4.9319 Debye
        Dipole field         -0.0012 Ry au, 
 
        Potential amp.        0.1302 Ry
        Total length         54.2615 bohr
 
 
     Adding external electric field

     Computed dipole along edir(3) : 
        Dipole               -1.9404 Ry au,         -4.9319 Debye
        Dipole field         -0.0012 Ry au, 
 
        Potential amp.        0.1302 Ry
        Total length         54.2615 bohr
 

     total cpu time spent up to now is       59.4 secs

     total energy              =   -7298.17031585 Ry
     estimated scf accuracy    <      97.02136897 Ry

     total magnetization       =   121.78 Bohr mag/cell
     absolute magnetization    =   176.49 Bohr mag/cell

     iteration #  4     ecut=    50.00 Ry     beta= 0.10
     Davidson diagonalization with overlap
     ethr =  9.00E-03,  avg # of iterations =  1.5

     negative rho (up, down):  2.013E-01 4.261E-07
 
     Adding external electric field

     Computed dipole along edir(3) : 
        Dipole               -1.9875 Ry au,         -5.0516 Debye
        Dipole field         -0.0012 Ry au, 
 
        Potential amp.        0.1334 Ry
        Total length         54.2615 bohr
 
 
     Adding external electric field

     Computed dipole along edir(3) : 
        Dipole               -1.9875 Ry au,         -5.0516 Debye
        Dipole field         -0.0012 Ry au, 
 
        Potential amp.        0.1334 Ry
        Total length         54.2615 bohr
 

     total cpu time spent up to now is       70.9 secs

     total energy              =   -7331.40424388 Ry
     estimated scf accuracy    <      76.23193761 Ry

     total magnetization       =   105.36 Bohr mag/cell
     absolute magnetization    =   161.50 Bohr mag/cell

     iteration #  5     ecut=    50.00 Ry     beta= 0.10
     Davidson diagonalization with overlap
     ethr =  7.07E-03,  avg # of iterations =  1.5

     negative rho (up, down):  3.493E-03 3.394E-08
 
     Adding external electric field

     Computed dipole along edir(3) : 
        Dipole               -1.3447 Ry au,         -3.4180 Debye
        Dipole field         -0.0008 Ry au, 
 
        Potential amp.        0.0903 Ry
        Total length         54.2615 bohr
 
 
     Adding external electric field

     Computed dipole along edir(3) : 
        Dipole               -1.3447 Ry au,         -3.4180 Debye
        Dipole field         -0.0008 Ry au, 
 
        Potential amp.        0.0903 Ry
        Total length         54.2615 bohr
 

     total cpu time spent up to now is       82.3 secs

     total energy              =   -7388.47045793 Ry
     estimated scf accuracy    <      58.50592305 Ry

     total magnetization       =    88.00 Bohr mag/cell
     absolute magnetization    =   144.15 Bohr mag/cell

     iteration #  6     ecut=    50.00 Ry     beta= 0.10
     Davidson diagonalization with overlap
     ethr =  5.43E-03,  avg # of iterations =  1.5

     negative rho (up, down):  2.225E-05 4.302E-05
 
     Adding external electric field

     Computed dipole along edir(3) : 
        Dipole               -0.9298 Ry au,         -2.3632 Debye
        Dipole field         -0.0006 Ry au, 
 
        Potential amp.        0.0624 Ry
        Total length         54.2615 bohr
 
 
     Adding external electric field

     Computed dipole along edir(3) : 
        Dipole               -0.9298 Ry au,         -2.3632 Debye
        Dipole field         -0.0006 Ry au, 
 
        Potential amp.        0.0624 Ry
        Total length         54.2615 bohr
 

     total cpu time spent up to now is       93.7 secs

     total energy              =   -7395.88751444 Ry
     estimated scf accuracy    <       9.70411520 Ry

     total magnetization       =    79.39 Bohr mag/cell
     absolute magnetization    =   110.83 Bohr mag/cell

     iteration #  7     ecut=    50.00 Ry     beta= 0.10
     Davidson diagonalization with overlap
     ethr =  9.00E-04,  avg # of iterations =  5.0

     negative rho (up, down):  2.068E-05 3.659E-05
 
     Adding external electric field

     Computed dipole along edir(3) : 
        Dipole               -0.9315 Ry au,         -2.3677 Debye
        Dipole field         -0.0006 Ry au, 
 
        Potential amp.        0.0625 Ry
        Total length         54.2615 bohr
 
 
     Adding external electric field

     Computed dipole along edir(3) : 
        Dipole               -0.9315 Ry au,         -2.3677 Debye
        Dipole field         -0.0006 Ry au, 
 
        Potential amp.        0.0625 Ry
        Total length         54.2615 bohr
 

     total cpu time spent up to now is      111.0 secs

     total energy              =   -7397.60032601 Ry
     estimated scf accuracy    <      11.92092490 Ry

     total magnetization       =    71.47 Bohr mag/cell
     absolute magnetization    =    88.93 Bohr mag/cell

     iteration #  8     ecut=    50.00 Ry     beta= 0.10
     Davidson diagonalization with overlap
     ethr =  9.00E-04,  avg # of iterations =  1.0

     negative rho (up, down):  7.580E-05 1.602E-04
 
     Adding external electric field

     Computed dipole along edir(3) : 
        Dipole               -0.8035 Ry au,         -2.0422 Debye
        Dipole field         -0.0005 Ry au, 
 
        Potential amp.        0.0539 Ry
        Total length         54.2615 bohr
 
 
     Adding external electric field

     Computed dipole along edir(3) : 
        Dipole               -0.8035 Ry au,         -2.0422 Debye
        Dipole field         -0.0005 Ry au, 
 
        Potential amp.        0.0539 Ry
        Total length         54.2615 bohr
 

     total cpu time spent up to now is      121.2 secs

     total energy              =   -7397.57515953 Ry
     estimated scf accuracy    <      12.24824955 Ry

     total magnetization       =    71.35 Bohr mag/cell
     absolute magnetization    =    88.70 Bohr mag/cell

     iteration #  9     ecut=    50.00 Ry     beta= 0.10
     Davidson diagonalization with overlap
     ethr =  9.00E-04,  avg # of iterations =  1.5

     negative rho (up, down):  1.066E-03 5.563E-04
 
     Adding external electric field

     Computed dipole along edir(3) : 
        Dipole               -0.7667 Ry au,         -1.9488 Debye
        Dipole field         -0.0005 Ry au, 
 
        Potential amp.        0.0515 Ry
        Total length         54.2615 bohr
 
 
     Adding external electric field

     Computed dipole along edir(3) : 
        Dipole               -0.7667 Ry au,         -1.9488 Debye
        Dipole field         -0.0005 Ry au, 
 
        Potential amp.        0.0515 Ry
        Total length         54.2615 bohr
 

     total cpu time spent up to now is      132.4 secs

     total energy              =   -7397.55563737 Ry
     estimated scf accuracy    <       8.05841075 Ry

     total magnetization       =    72.00 Bohr mag/cell
     absolute magnetization    =    87.54 Bohr mag/cell

     iteration # 10     ecut=    50.00 Ry     beta= 0.10
     Davidson diagonalization with overlap
     ethr =  7.48E-04,  avg # of iterations =  1.5

     negative rho (up, down):  5.190E-03 3.217E-03
 
     Adding external electric field

     Computed dipole along edir(3) : 
        Dipole               -0.7382 Ry au,         -1.8763 Debye
        Dipole field         -0.0005 Ry au, 
 
        Potential amp.        0.0495 Ry
        Total length         54.2615 bohr
 
 
     Adding external electric field

     Computed dipole along edir(3) : 
        Dipole               -0.7382 Ry au,         -1.8763 Debye
        Dipole field         -0.0005 Ry au, 
 
        Potential amp.        0.0495 Ry
        Total length         54.2615 bohr
 

     total cpu time spent up to now is      143.3 secs

     total energy              =   -7397.57842806 Ry
     estimated scf accuracy    <       4.09638182 Ry

     total magnetization       =    74.23 Bohr mag/cell
     absolute magnetization    =    88.15 Bohr mag/cell

     iteration # 11     ecut=    50.00 Ry     beta= 0.10
     Davidson diagonalization with overlap
     ethr =  3.80E-04,  avg # of iterations =  2.0

     negative rho (up, down):  7.469E-03 6.252E-03
 
     Adding external electric field

     Computed dipole along edir(3) : 
        Dipole               -0.6829 Ry au,         -1.7358 Debye
        Dipole field         -0.0004 Ry au, 
 
        Potential amp.        0.0458 Ry
        Total length         54.2615 bohr
 
 
     Adding external electric field

     Computed dipole along edir(3) : 
        Dipole               -0.6829 Ry au,         -1.7358 Debye
        Dipole field         -0.0004 Ry au, 
 
        Potential amp.        0.0458 Ry
        Total length         54.2615 bohr
 

     total cpu time spent up to now is      154.6 secs

     total energy              =   -7397.71140389 Ry
     estimated scf accuracy    <       1.50264049 Ry

     total magnetization       =    78.22 Bohr mag/cell
     absolute magnetization    =    90.11 Bohr mag/cell

     iteration # 12     ecut=    50.00 Ry     beta= 0.10
     Davidson diagonalization with overlap
     ethr =  1.39E-04,  avg # of iterations = 22.0

     negative rho (up, down):  8.124E-03 7.378E-03
 
     Adding external electric field

     Computed dipole along edir(3) : 
        Dipole               -0.5753 Ry au,         -1.4621 Debye
        Dipole field         -0.0004 Ry au, 
 
        Potential amp.        0.0386 Ry
        Total length         54.2615 bohr
 
 
     Adding external electric field

     Computed dipole along edir(3) : 
        Dipole               -0.5753 Ry au,         -1.4621 Debye
        Dipole field         -0.0004 Ry au, 
 
        Potential amp.        0.0386 Ry
        Total length         54.2615 bohr
 

     total cpu time spent up to now is      185.1 secs

     total energy              =   -7397.83374300 Ry
     estimated scf accuracy    <       1.09074446 Ry

     total magnetization       =    79.88 Bohr mag/cell
     absolute magnetization    =    89.45 Bohr mag/cell

     iteration # 13     ecut=    50.00 Ry     beta= 0.10
     Davidson diagonalization with overlap
     ethr =  1.01E-04,  avg # of iterations =  1.5

     negative rho (up, down):  2.989E-03 3.027E-03
 
     Adding external electric field

     Computed dipole along edir(3) : 
        Dipole               -0.4249 Ry au,         -1.0799 Debye
        Dipole field         -0.0003 Ry au, 
 
        Potential amp.        0.0285 Ry
        Total length         54.2615 bohr
 
 
     Adding external electric field

     Computed dipole along edir(3) : 
        Dipole               -0.4249 Ry au,         -1.0799 Debye
        Dipole field         -0.0003 Ry au, 
 
        Potential amp.        0.0285 Ry
        Total length         54.2615 bohr
 

     total cpu time spent up to now is      196.5 secs

     total energy              =   -7397.89144804 Ry
     estimated scf accuracy    <       0.96859242 Ry

     total magnetization       =    80.19 Bohr mag/cell
     absolute magnetization    =    88.50 Bohr mag/cell

     iteration # 14     ecut=    50.00 Ry     beta= 0.10
     Davidson diagonalization with overlap
     ethr =  8.99E-05,  avg # of iterations =  2.0

     negative rho (up, down):  8.723E-04 7.089E-04
 
     Adding external electric field

     Computed dipole along edir(3) : 
        Dipole               -0.5171 Ry au,         -1.3144 Debye
        Dipole field         -0.0003 Ry au, 
 
        Potential amp.        0.0347 Ry
        Total length         54.2615 bohr
 
 
     Adding external electric field

     Computed dipole along edir(3) : 
        Dipole               -0.5171 Ry au,         -1.3144 Debye
        Dipole field         -0.0003 Ry au, 
 
        Potential amp.        0.0347 Ry
        Total length         54.2615 bohr
 

     total cpu time spent up to now is      207.8 secs

     total energy              =   -7397.83365408 Ry
     estimated scf accuracy    <       1.78455228 Ry

     total magnetization       =    80.61 Bohr mag/cell
     absolute magnetization    =    87.17 Bohr mag/cell

     iteration # 15     ecut=    50.00 Ry     beta= 0.10
     Davidson diagonalization with overlap
     ethr =  8.99E-05,  avg # of iterations =  1.5

     negative rho (up, down):  2.637E-06 4.525E-05
 
     Adding external electric field

     Computed dipole along edir(3) : 
        Dipole               -0.4729 Ry au,         -1.2020 Debye
        Dipole field         -0.0003 Ry au, 
 
        Potential amp.        0.0317 Ry
        Total length         54.2615 bohr
 
 
     Adding external electric field

     Computed dipole along edir(3) : 
        Dipole               -0.4729 Ry au,         -1.2020 Debye
        Dipole field         -0.0003 Ry au, 
 
        Potential amp.        0.0317 Ry
        Total length         54.2615 bohr
 

     total cpu time spent up to now is      218.2 secs

     total energy              =   -7397.88822582 Ry
     estimated scf accuracy    <       0.96595841 Ry

     total magnetization       =    79.12 Bohr mag/cell
     absolute magnetization    =    86.14 Bohr mag/cell

     iteration # 16     ecut=    50.00 Ry     beta= 0.10
     Davidson diagonalization with overlap
     ethr =  8.96E-05,  avg # of iterations =  1.5

     negative rho (up, down):  1.832E-06 2.783E-05
 
     Adding external electric field

     Computed dipole along edir(3) : 
        Dipole               -0.5009 Ry au,         -1.2731 Debye
        Dipole field         -0.0003 Ry au, 
 
        Potential amp.        0.0336 Ry
        Total length         54.2615 bohr
 
 
     Adding external electric field

     Computed dipole along edir(3) : 
        Dipole               -0.5009 Ry au,         -1.2731 Debye
        Dipole field         -0.0003 Ry au, 
 
        Potential amp.        0.0336 Ry
        Total length         54.2615 bohr
 

     total cpu time spent up to now is      228.8 secs

     total energy              =   -7397.96037305 Ry
     estimated scf accuracy    <       1.85984724 Ry

     total magnetization       =    78.77 Bohr mag/cell
     absolute magnetization    =    84.20 Bohr mag/cell

     iteration # 17     ecut=    50.00 Ry     beta= 0.10
     Davidson diagonalization with overlap
     ethr =  8.96E-05,  avg # of iterations =  1.5

     negative rho (up, down):  3.755E-08 1.142E-05
 
     Adding external electric field

     Computed dipole along edir(3) : 
        Dipole               -0.6047 Ry au,         -1.5370 Debye
        Dipole field         -0.0004 Ry au, 
 
        Potential amp.        0.0406 Ry
        Total length         54.2615 bohr
 
 
     Adding external electric field

     Computed dipole along edir(3) : 
        Dipole               -0.6047 Ry au,         -1.5370 Debye
        Dipole field         -0.0004 Ry au, 
 
        Potential amp.        0.0406 Ry
        Total length         54.2615 bohr
 

     total cpu time spent up to now is      239.5 secs

     total energy              =   -7397.99026338 Ry
     estimated scf accuracy    <       0.66161756 Ry

     total magnetization       =    80.52 Bohr mag/cell
     absolute magnetization    =    84.72 Bohr mag/cell

     iteration # 18     ecut=    50.00 Ry     beta= 0.10
     Davidson diagonalization with overlap
     ethr =  6.14E-05,  avg # of iterations =  2.0

     negative rho (up, down):  1.134E-07 6.478E-06
 
     Adding external electric field

     Computed dipole along edir(3) : 
        Dipole               -0.6252 Ry au,         -1.5891 Debye
        Dipole field         -0.0004 Ry au, 
 
        Potential amp.        0.0420 Ry
        Total length         54.2615 bohr
 
 
     Adding external electric field

     Computed dipole along edir(3) : 
        Dipole               -0.6252 Ry au,         -1.5891 Debye
        Dipole field         -0.0004 Ry au, 
 
        Potential amp.        0.0420 Ry
        Total length         54.2615 bohr
 

     total cpu time spent up to now is      250.5 secs

     total energy              =   -7398.01996998 Ry
     estimated scf accuracy    <       1.21328290 Ry

     total magnetization       =    78.82 Bohr mag/cell
     absolute magnetization    =    82.52 Bohr mag/cell

     iteration # 19     ecut=    50.00 Ry     beta= 0.10
     Davidson diagonalization with overlap
     ethr =  6.14E-05,  avg # of iterations =  1.0

     negative rho (up, down):  1.353E-07 9.498E-07
 
     Adding external electric field

     Computed dipole along edir(3) : 
        Dipole               -0.6355 Ry au,         -1.6153 Debye
        Dipole field         -0.0004 Ry au, 
 
        Potential amp.        0.0427 Ry
        Total length         54.2615 bohr
 
 
     Adding external electric field

     Computed dipole along edir(3) : 
        Dipole               -0.6355 Ry au,         -1.6153 Debye
        Dipole field         -0.0004 Ry au, 
 
        Potential amp.        0.0427 Ry
        Total length         54.2615 bohr
 

     total cpu time spent up to now is      260.4 secs

     total energy              =   -7398.03386761 Ry
     estimated scf accuracy    <       0.94063782 Ry

     total magnetization       =    79.33 Bohr mag/cell
     absolute magnetization    =    82.86 Bohr mag/cell

     iteration # 20     ecut=    50.00 Ry     beta= 0.10
     Davidson diagonalization with overlap
     ethr =  6.14E-05,  avg # of iterations =  1.0

     negative rho (up, down):  3.172E-08 2.072E-08
 
     Adding external electric field

     Computed dipole along edir(3) : 
        Dipole               -0.5812 Ry au,         -1.4772 Debye
        Dipole field         -0.0004 Ry au, 
 
        Potential amp.        0.0390 Ry
        Total length         54.2615 bohr
 
 
     Adding external electric field

     Computed dipole along edir(3) : 
        Dipole               -0.5812 Ry au,         -1.4772 Debye
        Dipole field         -0.0004 Ry au, 
 
        Potential amp.        0.0390 Ry
        Total length         54.2615 bohr
 

     total cpu time spent up to now is      270.2 secs

     total energy              =   -7398.01194606 Ry
     estimated scf accuracy    <       0.81406492 Ry

     total magnetization       =    79.56 Bohr mag/cell
     absolute magnetization    =    82.73 Bohr mag/cell

     iteration # 21     ecut=    50.00 Ry     beta= 0.10
     Davidson diagonalization with overlap
     ethr =  6.14E-05,  avg # of iterations =  1.5

     negative rho (up, down):  2.212E-08 2.818E-09
 
     Adding external electric field

     Computed dipole along edir(3) : 
        Dipole               -0.5962 Ry au,         -1.5153 Debye
        Dipole field         -0.0004 Ry au, 
 
        Potential amp.        0.0400 Ry
        Total length         54.2615 bohr
 
 
     Adding external electric field

     Computed dipole along edir(3) : 
        Dipole               -0.5962 Ry au,         -1.5153 Debye
        Dipole field         -0.0004 Ry au, 
 
        Potential amp.        0.0400 Ry
        Total length         54.2615 bohr
 

     total cpu time spent up to now is      280.9 secs

     total energy              =   -7398.01403854 Ry
     estimated scf accuracy    <       0.27275858 Ry

     total magnetization       =    80.93 Bohr mag/cell
     absolute magnetization    =    84.02 Bohr mag/cell

     iteration # 22     ecut=    50.00 Ry     beta= 0.10
     Davidson diagonalization with overlap
     ethr =  2.53E-05,  avg # of iterations =  2.0

     negative rho (up, down):  1.011E-05 8.236E-07
 
     Adding external electric field

     Computed dipole along edir(3) : 
        Dipole               -0.5979 Ry au,         -1.5198 Debye
        Dipole field         -0.0004 Ry au, 
 
        Potential amp.        0.0401 Ry
        Total length         54.2615 bohr
 
 
     Adding external electric field

     Computed dipole along edir(3) : 
        Dipole               -0.5979 Ry au,         -1.5198 Debye
        Dipole field         -0.0004 Ry au, 
 
        Potential amp.        0.0401 Ry
        Total length         54.2615 bohr
 

     total cpu time spent up to now is      292.2 secs

     total energy              =   -7398.03169198 Ry
     estimated scf accuracy    <       0.64753629 Ry

     total magnetization       =    79.43 Bohr mag/cell
     absolute magnetization    =    82.44 Bohr mag/cell

     iteration # 23     ecut=    50.00 Ry     beta= 0.10
     Davidson diagonalization with overlap
     c_bands:  5 eigenvalues not converged
     ethr =  2.53E-05,  avg # of iterations = 10.5

     negative rho (up, down):  1.766E-06 3.735E-08
 
     Adding external electric field

     Computed dipole along edir(3) : 
        Dipole               -0.4969 Ry au,         -1.2629 Debye
        Dipole field         -0.0003 Ry au, 
 
        Potential amp.        0.0333 Ry
        Total length         54.2615 bohr
 
 
     Adding external electric field

     Computed dipole along edir(3) : 
        Dipole               -0.4969 Ry au,         -1.2629 Debye
        Dipole field         -0.0003 Ry au, 
 
        Potential amp.        0.0333 Ry
        Total length         54.2615 bohr
 

     total cpu time spent up to now is      308.9 secs

     total energy              =   -7397.97376958 Ry
     estimated scf accuracy    <       1.26685828 Ry

     total magnetization       =    78.37 Bohr mag/cell
     absolute magnetization    =    81.09 Bohr mag/cell

     iteration # 24     ecut=    50.00 Ry     beta= 0.10
     Davidson diagonalization with overlap
     ethr =  2.53E-05,  avg # of iterations =  2.0

     negative rho (up, down):  8.298E-06 6.106E-07
 
     Adding external electric field

     Computed dipole along edir(3) : 
        Dipole               -0.4580 Ry au,         -1.1641 Debye
        Dipole field         -0.0003 Ry au, 
 
        Potential amp.        0.0307 Ry
        Total length         54.2615 bohr
 
 
     Adding external electric field

     Computed dipole along edir(3) : 
        Dipole               -0.4580 Ry au,         -1.1641 Debye
        Dipole field         -0.0003 Ry au, 
 
        Potential amp.        0.0307 Ry
        Total length         54.2615 bohr
 

     total cpu time spent up to now is      319.9 secs

     total energy              =   -7398.02549385 Ry
     estimated scf accuracy    <       0.14928604 Ry

     total magnetization       =    80.57 Bohr mag/cell
     absolute magnetization    =    83.24 Bohr mag/cell

     iteration # 25     ecut=    50.00 Ry     beta= 0.10
     Davidson diagonalization with overlap
     ethr =  1.38E-05,  avg # of iterations =  2.0

     negative rho (up, down):  9.796E-05 4.442E-05
 
     Adding external electric field

     Computed dipole along edir(3) : 
        Dipole               -0.2838 Ry au,         -0.7214 Debye
        Dipole field         -0.0002 Ry au, 
 
        Potential amp.        0.0190 Ry
        Total length         54.2615 bohr
 
 
     Adding external electric field

     Computed dipole along edir(3) : 
        Dipole               -0.2838 Ry au,         -0.7214 Debye
        Dipole field         -0.0002 Ry au, 
 
        Potential amp.        0.0190 Ry
        Total length         54.2615 bohr
 

     total cpu time spent up to now is      331.3 secs

     total energy              =   -7398.02494229 Ry
     estimated scf accuracy    <       0.20662662 Ry

     total magnetization       =    81.32 Bohr mag/cell
     absolute magnetization    =    83.60 Bohr mag/cell

     iteration # 26     ecut=    50.00 Ry     beta= 0.10
     Davidson diagonalization with overlap
     ethr =  1.38E-05,  avg # of iterations =  2.0

     negative rho (up, down):  9.673E-05 4.302E-05
 
     Adding external electric field

     Computed dipole along edir(3) : 
        Dipole               -0.2873 Ry au,         -0.7303 Debye
        Dipole field         -0.0002 Ry au, 
 
        Potential amp.        0.0193 Ry
        Total length         54.2615 bohr
 
 
     Adding external electric field

     Computed dipole along edir(3) : 
        Dipole               -0.2873 Ry au,         -0.7303 Debye
        Dipole field         -0.0002 Ry au, 
 
        Potential amp.        0.0193 Ry
        Total length         54.2615 bohr
 

     total cpu time spent up to now is      342.5 secs

     total energy              =   -7398.02889779 Ry
     estimated scf accuracy    <       0.24272117 Ry

     total magnetization       =    80.89 Bohr mag/cell
     absolute magnetization    =    82.45 Bohr mag/cell

     iteration # 27     ecut=    50.00 Ry     beta= 0.10
     Davidson diagonalization with overlap
     ethr =  1.38E-05,  avg # of iterations =  1.0

     negative rho (up, down):  1.228E-04 8.679E-05
 
     Adding external electric field

     Computed dipole along edir(3) : 
        Dipole               -0.3043 Ry au,         -0.7734 Debye
        Dipole field         -0.0002 Ry au, 
 
        Potential amp.        0.0204 Ry
        Total length         54.2615 bohr
 
 
     Adding external electric field

     Computed dipole along edir(3) : 
        Dipole               -0.3043 Ry au,         -0.7734 Debye
        Dipole field         -0.0002 Ry au, 
 
        Potential amp.        0.0204 Ry
        Total length         54.2615 bohr
 

     total cpu time spent up to now is      352.5 secs

     total energy              =   -7398.03034969 Ry
     estimated scf accuracy    <       0.21295151 Ry

     total magnetization       =    80.78 Bohr mag/cell
     absolute magnetization    =    82.33 Bohr mag/cell

     iteration # 28     ecut=    50.00 Ry     beta= 0.10
     Davidson diagonalization with overlap
     ethr =  1.38E-05,  avg # of iterations =  1.5

     negative rho (up, down):  1.277E-04 1.124E-04
 
     Adding external electric field

     Computed dipole along edir(3) : 
        Dipole               -0.3681 Ry au,         -0.9357 Debye
        Dipole field         -0.0002 Ry au, 
 
        Potential amp.        0.0247 Ry
        Total length         54.2615 bohr
 
 
     Adding external electric field

     Computed dipole along edir(3) : 
        Dipole               -0.3681 Ry au,         -0.9357 Debye
        Dipole field         -0.0002 Ry au, 
 
        Potential amp.        0.0247 Ry
        Total length         54.2615 bohr
 

     total cpu time spent up to now is      363.0 secs

     total energy              =   -7398.03304476 Ry
     estimated scf accuracy    <       0.16306451 Ry

     total magnetization       =    80.22 Bohr mag/cell
     absolute magnetization    =    81.77 Bohr mag/cell

     iteration # 29     ecut=    50.00 Ry     beta= 0.10
     Davidson diagonalization with overlap
     ethr =  1.38E-05,  avg # of iterations =  1.5

     negative rho (up, down):  1.386E-04 1.263E-04
 
     Adding external electric field

     Computed dipole along edir(3) : 
        Dipole               -0.3501 Ry au,         -0.8898 Debye
        Dipole field         -0.0002 Ry au, 
 
        Potential amp.        0.0235 Ry
        Total length         54.2615 bohr
 
 
     Adding external electric field

     Computed dipole along edir(3) : 
        Dipole               -0.3501 Ry au,         -0.8898 Debye
        Dipole field         -0.0002 Ry au, 
 
        Potential amp.        0.0235 Ry
        Total length         54.2615 bohr
 

     total cpu time spent up to now is      373.6 secs

     total energy              =   -7398.03451030 Ry
     estimated scf accuracy    <       0.06129300 Ry

     total magnetization       =    80.22 Bohr mag/cell
     absolute magnetization    =    81.79 Bohr mag/cell

     iteration # 30     ecut=    50.00 Ry     beta= 0.10
     Davidson diagonalization with overlap
     c_bands:  2 eigenvalues not converged
     ethr =  5.69E-06,  avg # of iterations = 20.5

     negative rho (up, down):  1.799E-04 1.584E-04
 
     Adding external electric field

     Computed dipole along edir(3) : 
        Dipole               -0.3614 Ry au,         -0.9187 Debye
        Dipole field         -0.0002 Ry au, 
 
        Potential amp.        0.0243 Ry
        Total length         54.2615 bohr
 
 
     Adding external electric field

     Computed dipole along edir(3) : 
        Dipole               -0.3614 Ry au,         -0.9187 Debye
        Dipole field         -0.0002 Ry au, 
 
        Potential amp.        0.0243 Ry
        Total length         54.2615 bohr
 

     total cpu time spent up to now is      397.0 secs

     total energy              =   -7398.03140623 Ry
     estimated scf accuracy    <       0.07773364 Ry

     total magnetization       =    80.40 Bohr mag/cell
     absolute magnetization    =    81.92 Bohr mag/cell

     iteration # 31     ecut=    50.00 Ry     beta= 0.10
     Davidson diagonalization with overlap
     ethr =  5.69E-06,  avg # of iterations =  2.0

     negative rho (up, down):  1.493E-04 1.175E-04
 
     Adding external electric field

     Computed dipole along edir(3) : 
        Dipole               -0.3654 Ry au,         -0.9288 Debye
        Dipole field         -0.0002 Ry au, 
 
        Potential amp.        0.0245 Ry
        Total length         54.2615 bohr
 
 
     Adding external electric field

     Computed dipole along edir(3) : 
        Dipole               -0.3654 Ry au,         -0.9288 Debye
        Dipole field         -0.0002 Ry au, 
 
        Potential amp.        0.0245 Ry
        Total length         54.2615 bohr
 

     total cpu time spent up to now is      408.1 secs

     total energy              =   -7398.03086768 Ry
     estimated scf accuracy    <       0.03697530 Ry

     total magnetization       =    79.83 Bohr mag/cell
     absolute magnetization    =    81.34 Bohr mag/cell

     iteration # 32     ecut=    50.00 Ry     beta= 0.10
     Davidson diagonalization with overlap
     ethr =  3.43E-06,  avg # of iterations =  2.0

     negative rho (up, down):  1.265E-04 9.173E-05
 
     Adding external electric field

     Computed dipole along edir(3) : 
        Dipole               -0.3551 Ry au,         -0.9025 Debye
        Dipole field         -0.0002 Ry au, 
 
        Potential amp.        0.0238 Ry
        Total length         54.2615 bohr
 
 
     Adding external electric field

     Computed dipole along edir(3) : 
        Dipole               -0.3551 Ry au,         -0.9025 Debye
        Dipole field         -0.0002 Ry au, 
 
        Potential amp.        0.0238 Ry
        Total length         54.2615 bohr
 

     total cpu time spent up to now is      419.3 secs

     total energy              =   -7398.03029019 Ry
     estimated scf accuracy    <       0.04684048 Ry

     total magnetization       =    79.95 Bohr mag/cell
     absolute magnetization    =    81.53 Bohr mag/cell

     iteration # 33     ecut=    50.00 Ry     beta= 0.10
     Davidson diagonalization with overlap
     ethr =  3.43E-06,  avg # of iterations =  2.0

     negative rho (up, down):  1.405E-04 1.118E-04
 
     Adding external electric field

     Computed dipole along edir(3) : 
        Dipole               -0.3255 Ry au,         -0.8273 Debye
        Dipole field         -0.0002 Ry au, 
 
        Potential amp.        0.0218 Ry
        Total length         54.2615 bohr
 
 
     Adding external electric field

     Computed dipole along edir(3) : 
        Dipole               -0.3255 Ry au,         -0.8273 Debye
        Dipole field         -0.0002 Ry au, 
 
        Potential amp.        0.0218 Ry
        Total length         54.2615 bohr
 

     total cpu time spent up to now is      430.2 secs

     total energy              =   -7398.03278718 Ry
     estimated scf accuracy    <       0.07650965 Ry

     total magnetization       =    80.24 Bohr mag/cell
     absolute magnetization    =    81.83 Bohr mag/cell

     iteration # 34     ecut=    50.00 Ry     beta= 0.10
     Davidson diagonalization with overlap
     ethr =  3.43E-06,  avg # of iterations =  2.0

     negative rho (up, down):  2.637E-04 2.237E-04
 
     Adding external electric field

     Computed dipole along edir(3) : 
        Dipole               -0.2523 Ry au,         -0.6413 Debye
        Dipole field         -0.0002 Ry au, 
 
        Potential amp.        0.0169 Ry
        Total length         54.2615 bohr
 
 
     Adding external electric field

     Computed dipole along edir(3) : 
        Dipole               -0.2523 Ry au,         -0.6413 Debye
        Dipole field         -0.0002 Ry au, 
 
        Potential amp.        0.0169 Ry
        Total length         54.2615 bohr
 

     total cpu time spent up to now is      441.1 secs

     total energy              =   -7398.03150460 Ry
     estimated scf accuracy    <       0.11339781 Ry

     total magnetization       =    80.55 Bohr mag/cell
     absolute magnetization    =    82.12 Bohr mag/cell

     iteration # 35     ecut=    50.00 Ry     beta= 0.10
     Davidson diagonalization with overlap
     c_bands:  4 eigenvalues not converged
     ethr =  3.43E-06,  avg # of iterations = 11.0

     negative rho (up, down):  2.633E-04 2.411E-04
 
     Adding external electric field

     Computed dipole along edir(3) : 
        Dipole               -0.2557 Ry au,         -0.6500 Debye
        Dipole field         -0.0002 Ry au, 
 
        Potential amp.        0.0172 Ry
        Total length         54.2615 bohr
 
 
     Adding external electric field

     Computed dipole along edir(3) : 
        Dipole               -0.2557 Ry au,         -0.6500 Debye
        Dipole field         -0.0002 Ry au, 
 
        Potential amp.        0.0172 Ry
        Total length         54.2615 bohr
 

     total cpu time spent up to now is      456.1 secs

     total energy              =   -7398.03464638 Ry
     estimated scf accuracy    <       0.11504674 Ry

     total magnetization       =    80.36 Bohr mag/cell
     absolute magnetization    =    81.78 Bohr mag/cell

     iteration # 36     ecut=    50.00 Ry     beta= 0.10
     Davidson diagonalization with overlap
     ethr =  3.43E-06,  avg # of iterations =  2.0

     negative rho (up, down):  2.402E-04 1.960E-04
 
     Adding external electric field

     Computed dipole along edir(3) : 
        Dipole               -0.2533 Ry au,         -0.6437 Debye
        Dipole field         -0.0002 Ry au, 
 
        Potential amp.        0.0170 Ry
        Total length         54.2615 bohr
 
 
     Adding external electric field

     Computed dipole along edir(3) : 
        Dipole               -0.2533 Ry au,         -0.6437 Debye
        Dipole field         -0.0002 Ry au, 
 
        Potential amp.        0.0170 Ry
        Total length         54.2615 bohr
 

     total cpu time spent up to now is      467.0 secs

     total energy              =   -7398.03267752 Ry
     estimated scf accuracy    <       0.15960231 Ry

     total magnetization       =    80.40 Bohr mag/cell
     absolute magnetization    =    81.91 Bohr mag/cell

     iteration # 37     ecut=    50.00 Ry     beta= 0.10
     Davidson diagonalization with overlap
     ethr =  3.43E-06,  avg # of iterations =  2.0

     negative rho (up, down):  2.063E-04 1.655E-04
 
     Adding external electric field

     Computed dipole along edir(3) : 
        Dipole               -0.2890 Ry au,         -0.7345 Debye
        Dipole field         -0.0002 Ry au, 
 
        Potential amp.        0.0194 Ry
        Total length         54.2615 bohr
 
 
     Adding external electric field

     Computed dipole along edir(3) : 
        Dipole               -0.2890 Ry au,         -0.7345 Debye
        Dipole field         -0.0002 Ry au, 
 
        Potential amp.        0.0194 Ry
        Total length         54.2615 bohr
 

     total cpu time spent up to now is      478.1 secs

     total energy              =   -7398.03138743 Ry
     estimated scf accuracy    <       0.14019970 Ry

     total magnetization       =    80.43 Bohr mag/cell
     absolute magnetization    =    81.89 Bohr mag/cell

     iteration # 38     ecut=    50.00 Ry     beta= 0.10
     Davidson diagonalization with overlap
     ethr =  3.43E-06,  avg # of iterations =  1.5

     negative rho (up, down):  1.777E-04 1.409E-04
 
     Adding external electric field

     Computed dipole along edir(3) : 
        Dipole               -0.3037 Ry au,         -0.7719 Debye
        Dipole field         -0.0002 Ry au, 
 
        Potential amp.        0.0204 Ry
        Total length         54.2615 bohr
 
 
     Adding external electric field

     Computed dipole along edir(3) : 
        Dipole               -0.3037 Ry au,         -0.7719 Debye
        Dipole field         -0.0002 Ry au, 
 
        Potential amp.        0.0204 Ry
        Total length         54.2615 bohr
 

     total cpu time spent up to now is      488.4 secs

     total energy              =   -7398.03151286 Ry
     estimated scf accuracy    <       0.09083284 Ry

     total magnetization       =    80.35 Bohr mag/cell
     absolute magnetization    =    81.83 Bohr mag/cell

     iteration # 39     ecut=    50.00 Ry     beta= 0.10
     Davidson diagonalization with overlap
     ethr =  3.43E-06,  avg # of iterations =  1.5

     negative rho (up, down):  2.780E-04 2.269E-04
 
     Adding external electric field

     Computed dipole along edir(3) : 
        Dipole               -0.2808 Ry au,         -0.7138 Debye
        Dipole field         -0.0002 Ry au, 
 
        Potential amp.        0.0188 Ry
        Total length         54.2615 bohr
 
 
     Adding external electric field

     Computed dipole along edir(3) : 
        Dipole               -0.2808 Ry au,         -0.7138 Debye
        Dipole field         -0.0002 Ry au, 
 
        Potential amp.        0.0188 Ry
        Total length         54.2615 bohr
 

     total cpu time spent up to now is      498.8 secs

     total energy              =   -7398.03138390 Ry
     estimated scf accuracy    <       0.07146840 Ry

     total magnetization       =    80.32 Bohr mag/cell
     absolute magnetization    =    81.86 Bohr mag/cell

     iteration # 40     ecut=    50.00 Ry     beta= 0.10
     Davidson diagonalization with overlap
     ethr =  3.43E-06,  avg # of iterations =  1.5

     negative rho (up, down):  1.215E-04 1.082E-04
 
     Adding external electric field

     Computed dipole along edir(3) : 
        Dipole               -0.2468 Ry au,         -0.6273 Debye
        Dipole field         -0.0002 Ry au, 
 
        Potential amp.        0.0166 Ry
        Total length         54.2615 bohr
 
 
     Adding external electric field

     Computed dipole along edir(3) : 
        Dipole               -0.2468 Ry au,         -0.6273 Debye
        Dipole field         -0.0002 Ry au, 
 
        Potential amp.        0.0166 Ry
        Total length         54.2615 bohr
 

     total cpu time spent up to now is      509.2 secs

     total energy              =   -7398.03212422 Ry
     estimated scf accuracy    <       0.06627843 Ry

     total magnetization       =    80.18 Bohr mag/cell
     absolute magnetization    =    81.68 Bohr mag/cell

     iteration # 41     ecut=    50.00 Ry     beta= 0.10
     Davidson diagonalization with overlap
     ethr =  3.43E-06,  avg # of iterations =  1.5

     negative rho (up, down):  1.740E-04 1.577E-04
 
     Adding external electric field

     Computed dipole along edir(3) : 
        Dipole               -0.1286 Ry au,         -0.3269 Debye
        Dipole field         -0.0001 Ry au, 
 
        Potential amp.        0.0086 Ry
        Total length         54.2615 bohr
 
 
     Adding external electric field

     Computed dipole along edir(3) : 
        Dipole               -0.1286 Ry au,         -0.3269 Debye
        Dipole field         -0.0001 Ry au, 
 
        Potential amp.        0.0086 Ry
        Total length         54.2615 bohr
 

     total cpu time spent up to now is      519.5 secs

     total energy              =   -7398.03112104 Ry
     estimated scf accuracy    <       0.06026123 Ry

     total magnetization       =    80.31 Bohr mag/cell
     absolute magnetization    =    81.86 Bohr mag/cell

     iteration # 42     ecut=    50.00 Ry     beta= 0.10
     Davidson diagonalization with overlap
     ethr =  3.43E-06,  avg # of iterations =  2.0

     negative rho (up, down):  2.529E-04 2.434E-04
 
     Adding external electric field

     Computed dipole along edir(3) : 
        Dipole               -0.1026 Ry au,         -0.2609 Debye
        Dipole field         -0.0001 Ry au, 
 
        Potential amp.        0.0069 Ry
        Total length         54.2615 bohr
 
 
     Adding external electric field

     Computed dipole along edir(3) : 
        Dipole               -0.1026 Ry au,         -0.2609 Debye
        Dipole field         -0.0001 Ry au, 
 
        Potential amp.        0.0069 Ry
        Total length         54.2615 bohr
 

     total cpu time spent up to now is      531.0 secs

     total energy              =   -7398.03133905 Ry
     estimated scf accuracy    <       0.03360602 Ry

     total magnetization       =    80.19 Bohr mag/cell
     absolute magnetization    =    81.85 Bohr mag/cell

     iteration # 43     ecut=    50.00 Ry     beta= 0.10
     Davidson diagonalization with overlap
     ethr =  3.12E-06,  avg # of iterations =  1.5

     negative rho (up, down):  3.977E-05 3.627E-05
 
     Adding external electric field

     Computed dipole along edir(3) : 
        Dipole               -0.0469 Ry au,         -0.1192 Debye
        Dipole field         -0.0000 Ry au, 
 
        Potential amp.        0.0031 Ry
        Total length         54.2615 bohr
 
 
     Adding external electric field

     Computed dipole along edir(3) : 
        Dipole               -0.0469 Ry au,         -0.1192 Debye
        Dipole field         -0.0000 Ry au, 
 
        Potential amp.        0.0031 Ry
        Total length         54.2615 bohr
 

     total cpu time spent up to now is      541.3 secs

     total energy              =   -7398.03135601 Ry
     estimated scf accuracy    <       0.02791547 Ry

     total magnetization       =    80.18 Bohr mag/cell
     absolute magnetization    =    81.87 Bohr mag/cell

     iteration # 44     ecut=    50.00 Ry     beta= 0.10
     Davidson diagonalization with overlap
     ethr =  2.59E-06,  avg # of iterations =  2.0

     negative rho (up, down):  1.305E-04 1.444E-04
 
     Adding external electric field

     Computed dipole along edir(3) : 
        Dipole               -0.0227 Ry au,         -0.0576 Debye
        Dipole field         -0.0000 Ry au, 
 
        Potential amp.        0.0015 Ry
        Total length         54.2615 bohr
 
 
     Adding external electric field

     Computed dipole along edir(3) : 
        Dipole               -0.0227 Ry au,         -0.0576 Debye
        Dipole field         -0.0000 Ry au, 
 
        Potential amp.        0.0015 Ry
        Total length         54.2615 bohr
 

     total cpu time spent up to now is      552.6 secs

     total energy              =   -7398.03197420 Ry
     estimated scf accuracy    <       0.09140947 Ry

     total magnetization       =    80.41 Bohr mag/cell
     absolute magnetization    =    82.08 Bohr mag/cell

     iteration # 45     ecut=    50.00 Ry     beta= 0.10
     Davidson diagonalization with overlap
     ethr =  2.59E-06,  avg # of iterations =  1.5

     negative rho (up, down):  5.111E-04 7.958E-04
 
     Adding external electric field

     Computed dipole along edir(3) : 
        Dipole                0.0526 Ry au,          0.1336 Debye
        Dipole field          0.0000 Ry au, 
 
        Potential amp.       -0.0035 Ry
        Total length         54.2615 bohr
 
 
     Adding external electric field

     Computed dipole along edir(3) : 
        Dipole                0.0526 Ry au,          0.1336 Debye
        Dipole field          0.0000 Ry au, 
 
        Potential amp.       -0.0035 Ry
        Total length         54.2615 bohr
 

     total cpu time spent up to now is      563.1 secs

     total energy              =   -7398.03005383 Ry
     estimated scf accuracy    <       0.08001641 Ry

     total magnetization       =    80.40 Bohr mag/cell
     absolute magnetization    =    82.08 Bohr mag/cell

     iteration # 46     ecut=    50.00 Ry     beta= 0.10
     Davidson diagonalization with overlap
     ethr =  2.59E-06,  avg # of iterations =  2.0

     negative rho (up, down):  1.128E-03 1.651E-03
 
     Adding external electric field

     Computed dipole along edir(3) : 
        Dipole                0.0653 Ry au,          0.1659 Debye
        Dipole field          0.0000 Ry au, 
 
        Potential amp.       -0.0044 Ry
        Total length         54.2615 bohr
 
 
     Adding external electric field

     Computed dipole along edir(3) : 
        Dipole                0.0653 Ry au,          0.1659 Debye
        Dipole field          0.0000 Ry au, 
 
        Potential amp.       -0.0044 Ry
        Total length         54.2615 bohr
 

     total cpu time spent up to now is      574.2 secs

     total energy              =   -7398.02881305 Ry
     estimated scf accuracy    <       0.04151808 Ry

     total magnetization       =    80.32 Bohr mag/cell
     absolute magnetization    =    81.96 Bohr mag/cell

     iteration # 47     ecut=    50.00 Ry     beta= 0.10
     Davidson diagonalization with overlap
     ethr =  2.59E-06,  avg # of iterations =  1.5

     negative rho (up, down):  4.776E-05 1.136E-04
 
     Adding external electric field

     Computed dipole along edir(3) : 
        Dipole                0.0092 Ry au,          0.0235 Debye
        Dipole field          0.0000 Ry au, 
 
        Potential amp.       -0.0006 Ry
        Total length         54.2615 bohr
 
 
     Adding external electric field

     Computed dipole along edir(3) : 
        Dipole                0.0092 Ry au,          0.0235 Debye
        Dipole field          0.0000 Ry au, 
 
        Potential amp.       -0.0006 Ry
        Total length         54.2615 bohr
 

     total cpu time spent up to now is      584.7 secs

     total energy              =   -7398.02907354 Ry
     estimated scf accuracy    <       0.01012554 Ry

     total magnetization       =    80.08 Bohr mag/cell
     absolute magnetization    =    81.75 Bohr mag/cell

     iteration # 48     ecut=    50.00 Ry     beta= 0.10
     Davidson diagonalization with overlap
     c_bands:  4 eigenvalues not converged
     ethr =  9.39E-07,  avg # of iterations = 11.0

     negative rho (up, down):  7.110E-05 1.760E-04
 
     Adding external electric field

     Computed dipole along edir(3) : 
        Dipole                0.0368 Ry au,          0.0935 Debye
        Dipole field          0.0000 Ry au, 
 
        Potential amp.       -0.0025 Ry
        Total length         54.2615 bohr
 
 
     Adding external electric field

     Computed dipole along edir(3) : 
        Dipole                0.0368 Ry au,          0.0935 Debye
        Dipole field          0.0000 Ry au, 
 
        Potential amp.       -0.0025 Ry
        Total length         54.2615 bohr
 

     total cpu time spent up to now is      600.4 secs

     total energy              =   -7398.02872846 Ry
     estimated scf accuracy    <       0.03619653 Ry

     total magnetization       =    80.28 Bohr mag/cell
     absolute magnetization    =    81.95 Bohr mag/cell

     iteration # 49     ecut=    50.00 Ry     beta= 0.10
     Davidson diagonalization with overlap
     ethr =  9.39E-07,  avg # of iterations =  2.0

     negative rho (up, down):  2.135E-04 4.130E-04
 
     Adding external electric field

     Computed dipole along edir(3) : 
        Dipole                0.0575 Ry au,          0.1463 Debye
        Dipole field          0.0000 Ry au, 
 
        Potential amp.       -0.0039 Ry
        Total length         54.2615 bohr
 
 
     Adding external electric field

     Computed dipole along edir(3) : 
        Dipole                0.0575 Ry au,          0.1463 Debye
        Dipole field          0.0000 Ry au, 
 
        Potential amp.       -0.0039 Ry
        Total length         54.2615 bohr
 

     total cpu time spent up to now is      611.5 secs

     total energy              =   -7398.02853349 Ry
     estimated scf accuracy    <       0.02753379 Ry

     total magnetization       =    80.24 Bohr mag/cell
     absolute magnetization    =    81.90 Bohr mag/cell

     iteration # 50     ecut=    50.00 Ry     beta= 0.10
     Davidson diagonalization with overlap
     ethr =  9.39E-07,  avg # of iterations =  2.0

     negative rho (up, down):  3.936E-04 5.971E-04
 
     Adding external electric field

     Computed dipole along edir(3) : 
        Dipole                0.0724 Ry au,          0.1840 Debye
        Dipole field          0.0000 Ry au, 
 
        Potential amp.       -0.0049 Ry
        Total length         54.2615 bohr
 
 
     Adding external electric field

     Computed dipole along edir(3) : 
        Dipole                0.0724 Ry au,          0.1840 Debye
        Dipole field          0.0000 Ry au, 
 
        Potential amp.       -0.0049 Ry
        Total length         54.2615 bohr
 

     total cpu time spent up to now is      622.8 secs

     total energy              =   -7398.02898057 Ry
     estimated scf accuracy    <       0.01360515 Ry

     total magnetization       =    80.16 Bohr mag/cell
     absolute magnetization    =    81.81 Bohr mag/cell

     iteration # 51     ecut=    50.00 Ry     beta= 0.10
     Davidson diagonalization with overlap
     ethr =  9.39E-07,  avg # of iterations =  2.0

     negative rho (up, down):  2.227E-04 3.669E-04
 
     Adding external electric field

     Computed dipole along edir(3) : 
        Dipole                0.1267 Ry au,          0.3222 Debye
        Dipole field          0.0001 Ry au, 
 
        Potential amp.       -0.0085 Ry
        Total length         54.2615 bohr
 
 
     Adding external electric field

     Computed dipole along edir(3) : 
        Dipole                0.1267 Ry au,          0.3222 Debye
        Dipole field          0.0001 Ry au, 
 
        Potential amp.       -0.0085 Ry
        Total length         54.2615 bohr
 

     total cpu time spent up to now is      634.2 secs

     total energy              =   -7398.02860980 Ry
     estimated scf accuracy    <       0.00729990 Ry

     total magnetization       =    80.09 Bohr mag/cell
     absolute magnetization    =    81.68 Bohr mag/cell

     iteration # 52     ecut=    50.00 Ry     beta= 0.10
     Davidson diagonalization with overlap
     ethr =  6.77E-07,  avg # of iterations =  2.0

     negative rho (up, down):  6.547E-04 8.191E-04
 
     Adding external electric field

     Computed dipole along edir(3) : 
        Dipole                0.1713 Ry au,          0.4355 Debye
        Dipole field          0.0001 Ry au, 
 
        Potential amp.       -0.0115 Ry
        Total length         54.2615 bohr
 
 
     Adding external electric field

     Computed dipole along edir(3) : 
        Dipole                0.1713 Ry au,          0.4355 Debye
        Dipole field          0.0001 Ry au, 
 
        Potential amp.       -0.0115 Ry
        Total length         54.2615 bohr
 

     total cpu time spent up to now is      645.6 secs

     total energy              =   -7398.02904133 Ry
     estimated scf accuracy    <       0.01976999 Ry

     total magnetization       =    80.24 Bohr mag/cell
     absolute magnetization    =    81.81 Bohr mag/cell

     iteration # 53     ecut=    50.00 Ry     beta= 0.10
     Davidson diagonalization with overlap
     ethr =  6.77E-07,  avg # of iterations =  1.5

     negative rho (up, down):  4.083E-04 4.847E-04
 
     Adding external electric field

     Computed dipole along edir(3) : 
        Dipole                0.1744 Ry au,          0.4432 Debye
        Dipole field          0.0001 Ry au, 
 
        Potential amp.       -0.0117 Ry
        Total length         54.2615 bohr
 
 
     Adding external electric field

     Computed dipole along edir(3) : 
        Dipole                0.1744 Ry au,          0.4432 Debye
        Dipole field          0.0001 Ry au, 
 
        Potential amp.       -0.0117 Ry
        Total length         54.2615 bohr
 

     total cpu time spent up to now is      656.4 secs

     total energy              =   -7398.02939679 Ry
     estimated scf accuracy    <       0.00497326 Ry

     total magnetization       =    80.14 Bohr mag/cell
     absolute magnetization    =    81.66 Bohr mag/cell

     iteration # 54     ecut=    50.00 Ry     beta= 0.10
     Davidson diagonalization with overlap
     ethr =  4.61E-07,  avg # of iterations =  2.0

     negative rho (up, down):  3.048E-06 2.284E-06
 
     Adding external electric field

     Computed dipole along edir(3) : 
        Dipole                0.1432 Ry au,          0.3639 Debye
        Dipole field          0.0001 Ry au, 
 
        Potential amp.       -0.0096 Ry
        Total length         54.2615 bohr
 
 
     Adding external electric field

     Computed dipole along edir(3) : 
        Dipole                0.1432 Ry au,          0.3639 Debye
        Dipole field          0.0001 Ry au, 
 
        Potential amp.       -0.0096 Ry
        Total length         54.2615 bohr
 

     total cpu time spent up to now is      667.6 secs

     total energy              =   -7398.02932782 Ry
     estimated scf accuracy    <       0.00565202 Ry

     total magnetization       =    80.05 Bohr mag/cell
     absolute magnetization    =    81.56 Bohr mag/cell

     iteration # 55     ecut=    50.00 Ry     beta= 0.10
     Davidson diagonalization with overlap
     ethr =  4.61E-07,  avg # of iterations =  3.0

     negative rho (up, down):  1.583E-05 1.218E-05
 
     Adding external electric field

     Computed dipole along edir(3) : 
        Dipole                0.1501 Ry au,          0.3816 Debye
        Dipole field          0.0001 Ry au, 
 
        Potential amp.       -0.0101 Ry
        Total length         54.2615 bohr
 
 
     Adding external electric field

     Computed dipole along edir(3) : 
        Dipole                0.1501 Ry au,          0.3816 Debye
        Dipole field          0.0001 Ry au, 
 
        Potential amp.       -0.0101 Ry
        Total length         54.2615 bohr
 

     total cpu time spent up to now is      679.5 secs

     total energy              =   -7398.02953960 Ry
     estimated scf accuracy    <       0.00241171 Ry

     total magnetization       =    80.14 Bohr mag/cell
     absolute magnetization    =    81.68 Bohr mag/cell

     iteration # 56     ecut=    50.00 Ry     beta= 0.10
     Davidson diagonalization with overlap
     ethr =  2.24E-07,  avg # of iterations =  1.5

     negative rho (up, down):  1.745E-05 1.403E-05
 
     Adding external electric field

     Computed dipole along edir(3) : 
        Dipole                0.1477 Ry au,          0.3754 Debye
        Dipole field          0.0001 Ry au, 
 
        Potential amp.       -0.0099 Ry
        Total length         54.2615 bohr
 
 
     Adding external electric field

     Computed dipole along edir(3) : 
        Dipole                0.1477 Ry au,          0.3754 Debye
        Dipole field          0.0001 Ry au, 
 
        Potential amp.       -0.0099 Ry
        Total length         54.2615 bohr
 

     total cpu time spent up to now is      689.9 secs

     total energy              =   -7398.02954166 Ry
     estimated scf accuracy    <       0.00184937 Ry

     total magnetization       =    80.11 Bohr mag/cell
     absolute magnetization    =    81.65 Bohr mag/cell

     iteration # 57     ecut=    50.00 Ry     beta= 0.10
     Davidson diagonalization with overlap
     ethr =  1.72E-07,  avg # of iterations =  2.0

     negative rho (up, down):  3.384E-05 2.223E-05
 
     Adding external electric field

     Computed dipole along edir(3) : 
        Dipole                0.1663 Ry au,          0.4226 Debye
        Dipole field          0.0001 Ry au, 
 
        Potential amp.       -0.0112 Ry
        Total length         54.2615 bohr
 
 
     Adding external electric field

     Computed dipole along edir(3) : 
        Dipole                0.1663 Ry au,          0.4226 Debye
        Dipole field          0.0001 Ry au, 
 
        Potential amp.       -0.0112 Ry
        Total length         54.2615 bohr
 

     total cpu time spent up to now is      701.2 secs

     total energy              =   -7398.02949609 Ry
     estimated scf accuracy    <       0.00215089 Ry

     total magnetization       =    80.14 Bohr mag/cell
     absolute magnetization    =    81.68 Bohr mag/cell

     iteration # 58     ecut=    50.00 Ry     beta= 0.10
     Davidson diagonalization with overlap
     ethr =  1.72E-07,  avg # of iterations =  2.0

     negative rho (up, down):  1.992E-05 1.205E-05
 
     Adding external electric field

     Computed dipole along edir(3) : 
        Dipole                0.1765 Ry au,          0.4486 Debye
        Dipole field          0.0001 Ry au, 
 
[...]
    -5.9514  -5.9327  -5.9257  -5.9050  -5.8921  -5.8574  -5.8178  -5.8119
    -5.7787  -5.7709  -5.7378  -5.7360  -5.7242  -5.6823  -5.6723  -5.6511
    -5.6437  -5.6319  -5.6032  -5.5934  -5.5807  -5.5622  -5.5290  -5.4836
    -5.4653  -5.4316  -5.3983  -5.3869  -5.3698  -5.3436  -5.3132  -5.2569
    -5.2364  -5.2043  -5.1839  -5.1672  -5.1000  -5.0732  -5.0333  -5.0030
    -4.9955  -4.9625  -4.9292  -4.9204  -4.8896  -4.8785  -4.8477  -4.8402
    -4.7801  -4.7497  -4.6978  -4.6928  -4.6558  -4.6194  -4.5850  -4.5362
    -4.5054  -4.4855  -4.4528  -4.4333  -4.4079  -4.3837  -4.3521  -4.3313
    -4.3190  -4.2630  -4.2134  -4.1834  -4.1692  -4.1261  -4.1046  -4.0954
    -4.0453  -4.0047  -3.9909  -3.9705  -3.9548  -3.9275  -3.8987  -3.8795
    -3.8372  -3.8308  -3.8118  -3.7871  -3.7760  -3.7249  -3.7146  -3.7011
    -3.6744  -3.6687  -3.6409  -3.6323  -3.6183  -3.5993  -3.5914  -3.5203
    -3.5154  -3.5028  -3.4956  -3.4758  -3.4645  -3.4611  -3.4279  -3.4222
    -3.4014  -3.3708  -3.3580  -3.3418  -3.3077  -3.2977  -3.2710  -3.2457
    -3.2313  -3.2015  -3.1986  -3.1567  -3.1490  -3.1366  -3.1181  -3.1110
    -3.0857  -3.0671  -3.0485  -3.0145  -2.9973  -2.9773  -2.9636  -2.9292
    -2.9087  -2.8946  -2.8742  -2.8511  -2.8290  -2.8206  -2.7906  -2.7735
    -2.7625  -2.7515  -2.7450  -2.7305  -2.7285  -2.7122  -2.7065  -2.7015
    -2.6598  -2.6522  -2.6339  -2.6192  -2.6026  -2.5912  -2.5662  -2.5611
    -2.5386  -2.5209  -2.4994  -2.4728  -2.4647  -2.4503  -2.4473  -2.4335
    -2.3915  -2.3840  -2.3668  -2.3540  -2.3217  -2.3066  -2.2740  -2.2636
    -2.2545  -2.2169  -2.2145  -2.1863  -2.1704  -2.1501  -2.1329  -2.1196
    -2.0890  -2.0763  -2.0572  -2.0443  -2.0359  -2.0189  -1.9914  -1.9697
    -1.9539  -1.9445  -1.9412  -1.9263  -1.8968  -1.8730  -1.8654  -1.8374
    -1.8168  -1.7974  -1.7713  -1.7510  -1.7465  -1.7332  -1.7111  -1.6838
    -1.6621  -1.6497  -1.6367  -1.6253  -1.5920  -1.5732  -1.5567  -1.5258
    -1.5134  -1.4956  -1.4902  -1.4672  -1.4417  -1.4221  -1.3958  -1.3815
    -1.3759  -1.3505  -1.3123  -1.2836  -1.2704  -1.2379  -1.2257  -1.2131
    -1.1448  -1.1328  -1.0734  -0.9813  -0.9551  -0.9373  -0.8516  -0.8360
    -0.7944  -0.7444  -0.7101  -0.5036  -0.3615  -0.3226  -0.2909  -0.1864
     0.1350   0.1566   0.1871   0.2255   0.2500   0.2585   0.2763   0.2893
     0.3071   0.3120   0.3370   0.3460   0.3524   0.3570   0.3698   0.3744
     0.3838   0.3869   0.4049   0.4107   0.4175   0.4211   0.4305   0.4418
     0.4427   0.4514   0.4612   0.4651   0.4706   0.4792   0.4805   0.4835
     0.4967   0.5111   0.5141   0.5207   0.5270   0.5311   0.5328   0.5458
     0.5576   0.5663   0.5726   0.5778   0.5805   0.5876   0.5960   0.6019
     0.6115   0.6328   0.6349   0.6365   0.6411   0.6501   0.6560   0.6640
     0.6714   0.6809   0.6841   0.6930   0.7025   0.7032   0.7049   0.7220
     0.7266   0.7392   0.7415   0.7544   0.7565   0.7647   0.7720   0.7758
     0.7780   0.7959   0.8110   0.8199   0.8354   0.8414   0.8595   0.8639
     0.8719   0.8840   0.8883   0.8941   0.8972   0.9086   0.9173   0.9229
     0.9323   0.9387   0.9472   0.9708   0.9717   1.0281   1.0301   1.0434
     1.1536   1.1873   1.6317   1.7095   1.7127   1.7153   1.7344   1.7445
     1.7653   1.8352   1.8790   1.8972   1.9217   1.9553   1.9641   1.9802
     2.0072   2.0262   2.0516   2.0619   2.0751   2.0765   2.0793   2.1373
     2.1529   2.1746   2.1858   2.2008   2.2243   2.2411   2.2560   2.2677
     2.2792   2.2840   2.3093   2.3147   2.3178   2.3296   2.3508   2.3549
     2.3631   2.3786   2.3868   2.4105   2.4231   2.4276   2.4553   2.4752
     2.4838   2.5168   2.5204   2.5220   2.5506   2.5641   2.5790   2.6108
     2.6160   2.6327   2.6480   2.6613   2.7054   2.7389   2.7537   2.7988
     2.8246   2.8534   2.8781   2.9007   2.9410   3.2844   3.3191   3.4783
     3.5911   3.8202   3.8822   3.9648   4.0273   4.0483   4.1089   4.5158
     4.6646   4.7884   4.9157   4.9284   4.9726   5.0771   5.4332   6.3373
     6.3820   6.5308   6.6022   6.6981   6.7583   6.8444   6.9032   6.9943
     7.0212   7.1013   7.1549   7.1918   7.3136   7.3448   7.3893   7.4517
     7.5505   7.5855   7.6320   7.6878   7.7146   7.7500   7.8216   7.8544
     7.8879   7.9442   7.9754   7.9942   8.0309   8.0550   8.0882   8.1294
     8.1503   8.1619   8.1923   8.2211   8.2641   8.2815   8.3074   8.3366
     8.3644   8.3788   8.4330   8.4743   8.4862   8.5062   8.5386   8.5437
     8.5591   8.5708   8.6005   8.6073   8.6304   8.6491   8.6770   8.6880
     8.7322   8.7457   8.7888   8.8141   8.8755   8.8877   8.9313

     the Fermi energy is     1.6002 ev

!    total energy              =   -7398.02988529 Ry
     estimated scf accuracy    <       0.00000064 Ry
     smearing contrib. (-TS)   =      -0.01673643 Ry
     internal energy E=F+TS    =   -7398.01314886 Ry

     The total energy is F=E-TS. E is the sum of the following terms:
     one-electron contribution =  -91631.95574372 Ry
     hartree contribution      =   46464.26416663 Ry
     xc contribution           =   -2260.28167150 Ry
     ewald contribution        =   40031.79254243 Ry
     Dispersion Correction     =      -1.83250175 Ry
     electric field correction =       0.00005906 Ry

     total magnetization       =    80.12 Bohr mag/cell
     absolute magnetization    =    81.65 Bohr mag/cell

     convergence has been achieved in  76 iterations

     negative rho (up, down):  9.267E-04 5.470E-04

     Forces acting on atoms (cartesian axes, Ry/au):

     atom    1 type  2   force =     0.00020423   -0.00085993    0.00007582
     atom    2 type  1   force =     0.00011412    0.00024816   -0.00020780
     atom    3 type  1   force =    -0.00024195   -0.00011936   -0.00011418
     atom    4 type  1   force =     0.00004274   -0.00018872    0.00060252
     atom    5 type  1   force =     0.00013185   -0.00029767   -0.00017076
     atom    6 type  1   force =     0.00033235    0.00045222    0.00036328
     atom    7 type  1   force =     0.00054936    0.00018392   -0.00052866
     atom    8 type  1   force =    -0.00010385    0.00050126    0.00027035
     atom    9 type  1   force =    -0.00048870    0.00100142   -0.00049289
     atom   10 type  1   force =     0.00036488    0.00020996    0.00018325
     atom   11 type  1   force =     0.00011400    0.00028944    0.00020714
     atom   12 type  1   force =     0.00022131   -0.00033064   -0.00002079
     atom   13 type  3   force =    -0.00055335   -0.00030603   -0.00004892
     atom   14 type  3   force =    -0.00016139   -0.00011245    0.00027707
     atom   15 type  3   force =    -0.00004296   -0.00007426   -0.00028868
     atom   16 type  3   force =     0.00021862    0.00033801   -0.00015291
     atom   17 type  4   force =    -0.00012178   -0.00003618    0.00023653
     atom   18 type  4   force =     0.00004646    0.00052950    0.00071953
     atom   19 type  4   force =     0.00017366    0.00075004    0.00011406
     atom   20 type  4   force =    -0.00054821   -0.00017791   -0.00030725
     atom   21 type  4   force =    -0.00010392    0.00015774    0.00003456
     atom   22 type  4   force =     0.00025530    0.00014527   -0.00086222
     atom   23 type  4   force =     0.00001456   -0.00023885   -0.00052258
     atom   24 type  4   force =     0.00006476    0.00060072   -0.00021918
     atom   25 type  4   force =    -0.00014629    0.00031113   -0.00049701
     atom   26 type  4   force =     0.00021159    0.00006293    0.00005235
     atom   27 type  4   force =     0.00025762   -0.00035408    0.00008700
     atom   28 type  4   force =     0.00004094    0.00035814    0.00017759
     atom   29 type  4   force =    -0.00032774   -0.00020400    0.00006044
     atom   30 type  4   force =    -0.00069178   -0.00025777   -0.00046814
     atom   31 type  4   force =     0.00000980   -0.00047668   -0.00007332
     atom   32 type  4   force =    -0.00000329    0.00034147    0.00020420
     atom   33 type  3   force =    -0.00015999    0.00003069    0.00006823
     atom   34 type  3   force =    -0.00022798   -0.00023014   -0.00008933
     atom   35 type  3   force =    -0.00020208    0.00000443   -0.00029943
     atom   36 type  3   force =    -0.00006488   -0.00017848   -0.00016927
     atom   37 type  4   force =    -0.00030486    0.00045868    0.00024003
     atom   38 type  4   force =     0.00020567    0.00040418    0.00035598
     atom   39 type  4   force =    -0.00029564    0.00003179   -0.00016688
     atom   40 type  4   force =    -0.00019969   -0.00018848   -0.00016453
     atom   41 type  4   force =    -0.00006453    0.00028114   -0.00003274
     atom   42 type  4   force =    -0.00006857    0.00054885   -0.00062727
     atom   43 type  4   force =    -0.00017198    0.00007793   -0.00023663
     atom   44 type  4   force =     0.00049287    0.00016814    0.00015390
     atom   45 type  4   force =    -0.00024373    0.00012865    0.00048617
     atom   46 type  4   force =     0.00021945    0.00057260   -0.00006663
     atom   47 type  4   force =     0.00017010    0.00027135    0.00015009
     atom   48 type  4   force =     0.00014721    0.00016767    0.00025536
     atom   49 type  4   force =    -0.00030011    0.00054251   -0.00023605
     atom   50 type  4   force =     0.00031703    0.00011600   -0.00036706
     atom   51 type  4   force =    -0.00014195    0.00007393   -0.00016486
     atom   52 type  4   force =    -0.00050241   -0.00008958    0.00001964
     atom   53 type  2   force =     0.00212468   -0.00389089    0.00547233
     atom   54 type  1   force =     0.00511311   -0.00225715    0.00360477
     atom   55 type  1   force =     0.00725650   -0.00369102    0.00266771
     atom   56 type  1   force =    -0.00190724    0.01027024    0.00593704
     atom   57 type  1   force =     0.00014993    0.02321287    0.01462036
     atom   58 type  1   force =     0.00218606   -0.00348095   -0.00167255
     atom   59 type  1   force =     0.00143560   -0.00838053    0.00035521
     atom   60 type  1   force =    -0.00512134   -0.00190305    0.00451337
     atom   61 type  1   force =    -0.00117596   -0.00079069    0.00646128
     atom   62 type  1   force =    -0.00429463    0.00831745    0.00586550
     atom   63 type  1   force =    -0.01111820    0.02608019    0.01854626
     atom   64 type  1   force =    -0.00205529    0.00088694    0.00118963
     atom   65 type  3   force =     0.04605764   -0.11390911   -0.01090352
     atom   66 type  3   force =    -0.00012747   -0.00410414    0.00338718
     atom   67 type  3   force =    -0.03915812    0.12654766    0.01397188
     atom   68 type  3   force =     0.06276794   -0.00170486   -0.00352888
     atom   69 type  4   force =     0.01374584   -0.01828298    0.00381034
     atom   70 type  4   force =    -0.00094104    0.00289106   -0.00081165
     atom   71 type  4   force =    -0.00165068    0.00321175   -0.00588901
     atom   72 type  4   force =     0.00402661    0.00182344   -0.00056285
     atom   73 type  4   force =     0.00088012   -0.01143463    0.00292047
     atom   74 type  4   force =     0.00122191   -0.00091574   -0.00103403
     atom   75 type  4   force =    -0.00043209    0.01310931    0.00393551
     atom   76 type  4   force =     0.00829514    0.00526825    0.00925418
     atom   77 type  4   force =     0.00708925   -0.00257117    0.00159968
     atom   78 type  4   force =     0.04400093   -0.14231070   -0.00520803
     atom   79 type  4   force =     0.00176051    0.00195839    0.00139439
     atom   80 type  4   force =    -0.00006685    0.00226185   -0.00178548
     atom   81 type  4   force =     0.06711351    0.00047315   -0.00603129
     atom   82 type  4   force =     0.00061727    0.00114920   -0.00110159
     atom   83 type  4   force =    -0.03926364    0.13492467    0.00269204
     atom   84 type  4   force =    -0.00280942   -0.01099914   -0.00408879
     atom   85 type  3   force =     0.03998271   -0.12002865   -0.01851578
     atom   86 type  3   force =    -0.06275274   -0.00171111    0.00688008
     atom   87 type  3   force =    -0.04489684    0.12581368    0.01811113
     atom   88 type  3   force =    -0.00176367    0.00003733    0.00250214
     atom   89 type  4   force =     0.00903775   -0.01542266    0.00416014
     atom   90 type  4   force =    -0.00476434    0.00144397    0.00073355
     atom   91 type  4   force =    -0.00890561    0.00815152   -0.00643248
     atom   92 type  4   force =     0.00008948    0.00013592   -0.00049012
     atom   93 type  4   force =    -0.00178129   -0.00835800    0.00744236
     atom   94 type  4   force =    -0.00488322    0.00084508    0.00064202
     atom   95 type  4   force =    -0.00563002    0.01339484    0.00784083
     atom   96 type  4   force =     0.00413944    0.00519828    0.00964155
     atom   97 type  4   force =     0.00006864    0.00045557    0.00069332
     atom   98 type  4   force =     0.04039049   -0.14156615   -0.00479949
     atom   99 type  4   force =    -0.06675790    0.00005488    0.00640732
     atom  100 type  4   force =    -0.00183960    0.00328103   -0.00261638
     atom  101 type  4   force =     0.00016688    0.00091322   -0.00042065
     atom  102 type  4   force =    -0.00622954    0.00431691   -0.00073632
     atom  103 type  4   force =    -0.04028034    0.13344309    0.00431340
     atom  104 type  4   force =    -0.00692615   -0.00988349   -0.00517271
     atom  105 type  2   force =     0.00413054   -0.00654295   -0.01816114
     atom  106 type  1   force =     0.02824520    0.01429465    0.01168794
     atom  107 type  1   force =     0.00866891   -0.00615417   -0.01396830
     atom  108 type  1   force =    -0.02844126    0.02171875    0.01870961
     atom  109 type  1   force =     0.00504189    0.01618063    0.00948330
     atom  110 type  1   force =    -0.00254334   -0.00881355   -0.00676409
     atom  111 type  1   force =    -0.00085423   -0.00948666   -0.01149431
     atom  112 type  1   force =     0.02926636    0.01756456    0.01139351
     atom  113 type  1   force =    -0.00070051   -0.00502066   -0.01379294
     atom  114 type  1   force =    -0.02966068    0.02076348    0.01852645
     atom  115 type  1   force =    -0.00718928    0.01860969    0.01221240
     atom  116 type  1   force =    -0.00553938   -0.00438285   -0.00291383
     atom  117 type  3   force =     0.01424205   -0.17391847   -0.10884916
     atom  118 type  3   force =     0.00513645   -0.00848875   -0.01273188
     atom  119 type  3   force =    -0.04466824    0.12490626   -0.00193265
     atom  120 type  3   force =     0.09507196   -0.04105804   -0.07978047
     atom  121 type  4   force =     0.00608829   -0.01712010    0.03725510
     atom  122 type  4   force =    -0.00348140    0.00368610    0.00441320
     atom  123 type  4   force =    -0.00084094    0.00260180   -0.00291204
     atom  124 type  4   force =     0.00852468    0.00213323    0.02700504
     atom  125 type  4   force =     0.00985004   -0.01694039    0.01582524
     atom  126 type  4   force =    -0.00750829    0.00101875   -0.00300992
     atom  127 type  4   force =     0.00400261    0.00972094    0.00050149
     atom  128 type  4   force =    -0.00058803   -0.00113849    0.03006823
     atom  129 type  4   force =    -0.00761581    0.02558768    0.00116088
     atom  130 type  4   force =     0.04345988   -0.14598521   -0.00189784
     atom  131 type  4   force =    -0.01751892   -0.00040210    0.00283423
     atom  132 type  4   force =     0.00332476    0.00266120    0.00200553
     atom  133 type  4   force =     0.06978461    0.00365586   -0.00190702
     atom  134 type  4   force =     0.00091272    0.00357564    0.00273721
     atom  135 type  4   force =    -0.02760081    0.17233922    0.00602571
     atom  136 type  4   force =     0.01967155   -0.00861433    0.00397864
     atom  137 type  3   force =     0.00908444   -0.16687775   -0.09431700
     atom  138 type  3   force =    -0.06462843   -0.00210467   -0.00501616
     atom  139 type  3   force =    -0.04872679    0.11825524    0.00147677
     atom  140 type  3   force =     0.03144937   -0.04324270   -0.07375329
     atom  141 type  4   force =     0.00462615   -0.01335698    0.03217648
     atom  142 type  4   force =    -0.00546180   -0.00030385    0.00425694
     atom  143 type  4   force =    -0.00817492    0.00812994   -0.00356224
     atom  144 type  4   force =     0.00386932    0.00133022    0.02762849
     atom  145 type  4   force =     0.00688056   -0.01304605    0.03220602
     atom  146 type  4   force =    -0.00879393   -0.00173756   -0.00297144
     atom  147 type  4   force =     0.00033692    0.00990759    0.00266970
     atom  148 type  4   force =    -0.00788833    0.00116782    0.02895458
     atom  149 type  4   force =    -0.01311719    0.02950160    0.00046892
     atom  150 type  4   force =     0.03983880   -0.13839720   -0.00137630
     atom  151 type  4   force =    -0.08627074   -0.00173689    0.00913243
     atom  152 type  4   force =     0.00114514    0.00389458    0.00144174
     atom  153 type  4   force =    -0.00343108    0.00084004    0.00298737
     atom  154 type  4   force =    -0.00592612    0.00594243    0.00133085
     atom  155 type  4   force =    -0.02802769    0.16655610    0.00480366
     atom  156 type  4   force =     0.01066733   -0.00971874   -0.00140198
     atom  157 type  4   force =    -0.00262405    0.00155944   -0.00123098
     atom  158 type  5   force =     0.00388009   -0.00142789    0.00082284

     Total force =     0.671565     Total SCF correction =     0.003301
 
     init_run     :      6.91s CPU      7.52s WALL (       1 calls)
     electrons    :    864.14s CPU    903.30s WALL (       1 calls)
     forces       :      3.60s CPU      3.85s WALL (       1 calls)
     force_london :      0.09s CPU      0.09s WALL (       1 calls)

     Called by init_run:
     wfcinit      :      4.01s CPU      4.14s WALL (       1 calls)
     potinit      :      0.59s CPU      0.78s WALL (       1 calls)
     hinit0       :      1.37s CPU      1.48s WALL (       1 calls)

     Called by electrons:
     c_bands      :    672.70s CPU    693.80s WALL (      76 calls)
     sum_band     :    123.30s CPU    133.22s WALL (      76 calls)
     v_of_rho     :     12.97s CPU     13.79s WALL (      77 calls)
     newd         :     37.74s CPU     45.18s WALL (      77 calls)
     mix_rho      :     16.94s CPU     17.06s WALL (      76 calls)
     energy_londo :      0.08s CPU      0.08s WALL (       1 calls)

     Called by c_bands:
     init_us_2    :      1.53s CPU      1.59s WALL (     308 calls)
     init_us_2:cp :      1.53s CPU      1.59s WALL (     308 calls)
     regterg      :    659.03s CPU    679.95s WALL (     155 calls)

     Called by *egterg:
     rdiaghg      :    171.33s CPU    181.40s WALL (     569 calls)
     h_psi        :    256.86s CPU    262.06s WALL (     571 calls)
     s_psi        :     41.02s CPU     41.05s WALL (     571 calls)
     g_psi        :      0.30s CPU      0.30s WALL (     414 calls)

     Called by h_psi:
     h_psi:calbec :     76.42s CPU     80.67s WALL (     571 calls)
     vloc_psi     :    138.11s CPU    138.62s WALL (     571 calls)
     add_vuspsi   :     41.86s CPU     42.29s WALL (     571 calls)

     General routines
     calbec       :    112.78s CPU    119.08s WALL (     731 calls)
     fft          :     25.78s CPU     26.92s WALL (    1399 calls)
     ffts         :     11.11s CPU     11.13s WALL (    9455 calls)
     fftw         :    160.56s CPU    161.11s WALL (  257296 calls)
     interpolate  :      1.07s CPU      1.15s WALL (     154 calls)
 
     Parallel routines
 
     PWSCF        :  14m36.58s CPU  15m16.89s WALL

 
   This run was terminated on:  23: 4:30  19Nov2025            

=------------------------------------------------------------------------------=
   JOB DONE.
=------------------------------------------------------------------------------=
