
     Program PWSCF v.7.2 starts on 19Nov2025 at 21: 5:28 

     This program is part of the open-source Quantum ESPRESSO suite
     for quantum simulation of materials; please cite
         "P. Giannozzi et al., J. Phys.:Condens. Matter 21 395502 (2009);
         "P. Giannozzi et al., J. Phys.:Condens. Matter 29 465901 (2017);
         "P. Giannozzi et al., J. Chem. Phys. 152 154105 (2020);
          URL http://www.quantum-espresso.org", 
     in publications or presentations arising from this work. More details at
     http://www.quantum-espresso.org/quote

     Parallel version (MPI), running on    64 processors

     MPI processes distributed on     4 nodes
     471695 MiB available memory on the printing compute node when the environment starts
 
     Reading input from PWINPUT_atm157_zm

     Current dimensions of program PWSCF are:
     Max number of different atomic species (ntypx) = 10
     Max number of k-points (npk) =  40000
     Max angular momentum in pseudopotentials (lmaxx) =  4
     Presently no symmetry can be used with electric field

     file Ni.pbe-n-rrkjus_psl.1.0.0.UPF: wavefunction(s)  3D renormalized
     file Mn.pbe-spn-rrkjus_psl.0.3.1.UPF: wavefunction(s)  3D renormalized
     file O.pbe-rrkjus.UPF: wavefunction(s)  2S renormalized
     file H.pbe-rrkjus.UPF: wavefunction(s)  1S renormalized

     gamma-point specific algorithms are used
 
     R & G space division:  proc/nbgrp/npool/nimage =      64
     Subspace diagonalization in iterative solution of the eigenvalue problem:
     one sub-group per band group will be used
     custom distributed-memory algorithm (size of sub-group:  6*  6 procs)

 
     Parallelization info
     --------------------
     sticks:   dense  smooth     PW     G-vecs:    dense   smooth      PW
     Min         208      82     20                59912    15118    1876
     Max         210      84     22                59974    15196    1926
     Sum       13399    5355   1345              3836275   970529  121367
 
     Using Slab Decomposition
 


     bravais-lattice index     =            0
     lattice parameter (alat)  =      17.7004  a.u.
     unit-cell volume          =   20319.7251 (a.u.)^3
     number of atoms/cell      =          158
     number of atomic types    =            5
     number of electrons       =      1078.00
     number of Kohn-Sham states=          647
     kinetic-energy cutoff     =      50.0000  Ry
     charge density cutoff     =     500.0000  Ry
     scf convergence threshold =      1.0E-06
     mixing beta               =       0.1000
     number of iterations used =            8  local-TF  mixing
     Exchange-correlation=  SLA  PW   PBE  PBE
                           (   1   4   3   4   0   0   0)

     celldm(1)=  17.700384  celldm(2)=   0.000000  celldm(3)=   0.000000
     celldm(4)=   0.000000  celldm(5)=   0.000000  celldm(6)=   0.000000

     crystal axes: (cart. coord. in units of alat)
               a(1) = (   1.000000   0.000000   0.000000 )  
               a(2) = (   0.000000   1.075730   0.000000 )  
               a(3) = (   0.000000   0.000000   3.406172 )  

     reciprocal axes: (cart. coord. in units 2 pi/alat)
               b(1) = (  1.000000  0.000000  0.000000 )  
               b(2) = (  0.000000  0.929602  0.000000 )  
               b(3) = (  0.000000  0.000000  0.293585 )  


     PseudoPot. # 1 for Ni read from file:
     ~/PSEUDO/Ni.pbe-n-rrkjus_psl.1.0.0.UPF
     MD5 check sum: Not computed, couldn't open file
     Pseudo is Ultrasoft + core correction, Zval = 10.0
     Generated using "atomic" code by A. Dal Corso  v.5.1.2
     Using radial grid of 1195 points,  6 beta functions with: 
                l(1) =   0
                l(2) =   0
                l(3) =   1
                l(4) =   1
                l(5) =   2
                l(6) =   2
     Q(r) pseudized with 0 coefficients 


     PseudoPot. # 2 for Mn read from file:
     ~/PSEUDO/Mn.pbe-spn-rrkjus_psl.0.3.1.UPF
     MD5 check sum: Not computed, couldn't open file
     Pseudo is Ultrasoft + core correction, Zval = 15.0
     Generated using &quot;atomic&quot; code by A. Dal Corso  v.6.2.2
     Using radial grid of 1187 points,  6 beta functions with: 
                l(1) =   0
                l(2) =   0
                l(3) =   1
                l(4) =   1
                l(5) =   2
                l(6) =   2
     Q(r) pseudized with 0 coefficients 


     PseudoPot. # 3 for P  read from file:
     ~/PSEUDO/P.pbe-n-rrkjus_psl.1.0.0.UPF
     MD5 check sum: Not computed, couldn't open file
     Pseudo is Ultrasoft + core correction, Zval =  5.0
     Generated using "atomic" code by A. Dal Corso  v.5.1
     Using radial grid of 1147 points,  6 beta functions with: 
                l(1) =   0
                l(2) =   0
                l(3) =   1
                l(4) =   1
                l(5) =   2
                l(6) =   2
     Q(r) pseudized with 0 coefficients 


     PseudoPot. # 4 for O  read from file:
     ~/PSEUDO/O.pbe-rrkjus.UPF
     MD5 check sum: Not computed, couldn't open file
     Pseudo is Ultrasoft, Zval =  6.0
     Generated by new atomic code, or converted to UPF format
     Using radial grid of 1269 points,  4 beta functions with: 
                l(1) =   0
                l(2) =   0
                l(3) =   1
                l(4) =   1
     Q(r) pseudized with 0 coefficients 


     PseudoPot. # 5 for H  read from file:
     ~/PSEUDO/H.pbe-rrkjus.UPF
     MD5 check sum: Not computed, couldn't open file
     Pseudo is Ultrasoft, Zval =  1.0
     Generated by new atomic code, or converted to UPF format
     Using radial grid of 1061 points,  2 beta functions with: 
                l(1) =   0
                l(2) =   0
     Q(r) pseudized with 0 coefficients 


     atomic species   valence    mass     pseudopotential
     Ni               10.00    58.69300     Ni( 1.00)
     Mn               15.00    54.93800     Mn( 1.00)
     P                 5.00    30.97300     P ( 1.00)
     O                 6.00    15.99900     O ( 1.00)
     H                 1.00     1.00790     H ( 1.00)

     Starting magnetic structure 
     atomic species   magnetization
     Ni              1.000
     Mn              1.000
     P               1.000
     O               1.000
     H               0.000

     No symmetry found



   Cartesian axes

     site n.     atom                  positions (alat units)
         1        Mn     tau(   1) = (   0.2514725   0.8403621   1.6922649  )
         2        Ni     tau(   2) = (   0.4981613   0.7732174   1.3698899  )
         3        Ni     tau(   3) = (   0.0016400   0.2965188   1.6763153  )
         4        Ni     tau(   4) = (   0.2604917   0.2384823   1.3674854  )
         5        Ni     tau(   5) = (   0.9976394   1.0763275   1.5332471  )
         6        Ni     tau(   6) = (   0.2562433   0.5373049   1.5311374  )
         7        Ni     tau(   7) = (   0.7534975   0.8335100   1.6761660  )
         8        Ni     tau(   8) = (   0.9915982   0.7733775   1.3721323  )
         9        Ni     tau(   9) = (   0.5140351   0.3046720   1.7065963  )
        10        Ni     tau(  10) = (   0.7602191   0.2367081   1.3680604  )
        11        Ni     tau(  11) = (   0.5007003   1.0777795   1.5342653  )
        12        Ni     tau(  12) = (   0.7546321   0.5336828   1.5343376  )
        13        P      tau(  13) = (   0.2114324   0.9730718   1.3787149  )
        14        P      tau(  14) = (   0.4677209   0.6466717   1.6883849  )
        15        P      tau(  15) = (   0.2879347   0.1165823   1.6895124  )
        16        P      tau(  16) = (   0.0433043   0.4322061   1.3717573  )
        17        O      tau(  17) = (   0.1354319   0.9024246   1.5162361  )
        18        O      tau(  18) = (   0.3901476   0.7094618   1.5447118  )
        19        O      tau(  19) = (   0.3653522   0.1703016   1.5451332  )
        20        O      tau(  20) = (   0.1220603   0.3621553   1.5078476  )
        21        O      tau(  21) = (   0.1483602   0.8811988   1.2566198  )
        22        O      tau(  22) = (   0.4071019   0.7461546   1.8042590  )
        23        O      tau(  23) = (   0.3454364   0.2138238   1.8062783  )
        24        O      tau(  24) = (   0.1034528   0.3447440   1.2451229  )
        25        O      tau(  25) = (   0.1022912   0.5877007   1.3760419  )
        26        O      tau(  26) = (   0.3424242   1.0329279   1.6966988  )
        27        O      tau(  27) = (   0.3794667   0.4262365   1.3824156  )
        28        O      tau(  28) = (   0.1224475   0.1157300   1.6781663  )
        29        O      tau(  29) = (   0.1306686   0.6530965   1.6813924  )
        30        O      tau(  30) = (   0.4060763   0.4924401   1.6874378  )
        31        O      tau(  31) = (   0.1505415   0.0512368   1.3772435  )
        32        O      tau(  32) = (   0.3750906   0.9649156   1.3868523  )
        33        P      tau(  33) = (   0.7107969   0.9709559   1.3722571  )
        34        P      tau(  34) = (   0.9650128   0.6455956   1.6946891  )
        35        P      tau(  35) = (   0.7894270   0.1050360   1.6939332  )
        36        P      tau(  36) = (   0.5438507   0.4295248   1.3733739  )
        37        O      tau(  37) = (   0.6327050   0.9000346   1.5082036  )
        38        O      tau(  38) = (   0.8878570   0.7057763   1.5484453  )
        39        O      tau(  39) = (   0.8648281   0.1699114   1.5490065  )
        40        O      tau(  40) = (   0.6200951   0.3574703   1.5092594  )
        41        O      tau(  41) = (   0.6501234   0.8827865   1.2460499  )
        42        O      tau(  42) = (   0.9049968   0.7432969   1.8094969  )
        43        O      tau(  43) = (   0.8531982   0.1989439   1.8109223  )
        44        O      tau(  44) = (   0.6040842   0.3418719   1.2462640  )
        45        O      tau(  45) = (   0.6050226   0.5845474   1.3766490  )
        46        O      tau(  46) = (   0.8468877   1.0236478   1.6902311  )
        47        O      tau(  47) = (   0.8794716   0.4244841   1.3846896  )
        48        O      tau(  48) = (   0.6245466   0.1082359   1.6834857  )
        49        O      tau(  49) = (   0.6319549   0.6522194   1.6764679  )
        50        O      tau(  50) = (   0.9116309   0.4875625   1.6930196  )
        51        O      tau(  51) = (   0.6514964   0.0501678   1.3760815  )
        52        O      tau(  52) = (   0.8747806   0.9631357   1.3846982  )
        53        Mn     tau(  53) = (   0.2404744   0.8246335   1.0701417  )
        54        Ni     tau(  54) = (   0.4968126   0.7601755   0.7454373  )
        55        Ni     tau(  55) = (   0.0066150   0.2811828   1.0628866  )
        56        Ni     tau(  56) = (   0.2585722   0.2230943   0.7421070  )
        57        Ni     tau(  57) = (   0.9987350   1.0571496   0.9014992  )
        58        Ni     tau(  58) = (   0.2517397   0.5205596   0.9040596  )
        59        Ni     tau(  59) = (   0.7451645   0.8212628   1.0648168  )
        60        Ni     tau(  60) = (   0.9939181   0.7613889   0.7462324  )
        61        Ni     tau(  61) = (   0.5111533   0.2799173   1.0618053  )
        62        Ni     tau(  62) = (   0.7606326   0.2194352   0.7418547  )
        63        Ni     tau(  63) = (   0.5024065   1.0563218   0.8999416  )
        64        Ni     tau(  64) = (   0.7529977   0.5192985   0.9024691  )
        65        P      tau(  65) = (   0.2092944   0.9606182   0.7524883  )
        66        P      tau(  66) = (   0.4655727   0.6234620   1.0595283  )
        67        P      tau(  67) = (   0.2910699   0.0902448   1.0573821  )
        68        P      tau(  68) = (   0.0396216   0.4163480   0.7471080  )
        69        O      tau(  69) = (   0.1294378   0.8888345   0.8859300  )
        70        O      tau(  70) = (   0.3874505   0.6929859   0.9232915  )
        71        O      tau(  71) = (   0.3702540   0.1589885   0.9209891  )
        72        O      tau(  72) = (   0.1184398   0.3458043   0.8831565  )
        73        O      tau(  73) = (   0.1451572   0.8725966   0.6282341  )
        74        O      tau(  74) = (   0.4048762   0.7120670   1.1852426  )
        75        O      tau(  75) = (   0.3523506   0.1775664   1.1834175  )
        76        O      tau(  76) = (   0.1017610   0.3285569   0.6213347  )
        77        O      tau(  77) = (   0.0975396   0.5724373   0.7511996  )
        78        O      tau(  78) = (   0.3483552   1.0190030   1.0599597  )
        79        O      tau(  79) = (   0.3784305   0.4100203   0.7560991  )
        80        O      tau(  80) = (   0.1268237   0.0943029   1.0477175  )
        81        O      tau(  81) = (   0.1212267   0.6299255   1.0507023  )
        82        O      tau(  82) = (   0.4053315   0.4684472   1.0569297  )
        83        O      tau(  83) = (   0.1536621   0.0322003   0.7496532  )
        84        O      tau(  84) = (   0.3732349   0.9506802   0.7613277  )
        85        P      tau(  85) = (   0.7119823   0.9571059   0.7496908  )
        86        P      tau(  86) = (   0.9615208   0.6238477   1.0606987  )
        87        P      tau(  87) = (   0.7927710   0.0845145   1.0577754  )
        88        P      tau(  88) = (   0.5426404   0.4144760   0.7459181  )
        89        O      tau(  89) = (   0.6326879   0.8866267   0.8856678  )
        90        O      tau(  90) = (   0.8842163   0.6958291   0.9244764  )
        91        O      tau(  91) = (   0.8716178   0.1552836   0.9216415  )
        92        O      tau(  92) = (   0.6212010   0.3433751   0.8818834  )
        93        O      tau(  93) = (   0.6507714   0.8687427   0.6238197  )
        94        O      tau(  94) = (   0.9014054   0.7139543   1.1859242  )
        95        O      tau(  95) = (   0.8548963   0.1722994   1.1834447  )
        96        O      tau(  96) = (   0.6044469   0.3253792   0.6209553  )
        97        O      tau(  97) = (   0.6024424   0.5698225   0.7490903  )
        98        O      tau(  98) = (   0.8498940   1.0129567   1.0594762  )
        99        O      tau(  99) = (   0.8798395   0.4080910   0.7564148  )
       100        O      tau( 100) = (   0.6286921   0.0909721   1.0472573  )
       101        O      tau( 101) = (   0.6294973   0.6302838   1.0497366  )
       102        O      tau( 102) = (   0.9024339   0.4685397   1.0573501  )
       103        O      tau( 103) = (   0.6547812   0.0286072   0.7473283  )
       104        O      tau( 104) = (   0.8760507   0.9507690   0.7605412  )
       105        Mn     tau( 105) = (   0.2404744   0.8121420   0.4502541  )
       106        Ni     tau( 106) = (   0.4968126   0.7476840   0.1255496  )
       107        Ni     tau( 107) = (   0.0066150   0.2686914   0.4429989  )
       108        Ni     tau( 108) = (   0.2585722   0.2106028   0.1222194  )
       109        Ni     tau( 109) = (   0.9987350   1.0446581   0.2816116  )
       110        Ni     tau( 110) = (   0.2517397   0.5080681   0.2841720  )
       111        Ni     tau( 111) = (   0.7451645   0.8087713   0.4449291  )
       112        Ni     tau( 112) = (   0.9939181   0.7488974   0.1263448  )
       113        Ni     tau( 113) = (   0.5111533   0.2674258   0.4419177  )
       114        Ni     tau( 114) = (   0.7606326   0.2069438   0.1219670  )
       115        Ni     tau( 115) = (   0.5024065   1.0438304   0.2800540  )
       116        Ni     tau( 116) = (   0.7529977   0.5068070   0.2825815  )
       117        P      tau( 117) = (   0.2092944   0.9481267   0.1326007  )
       118        P      tau( 118) = (   0.4655727   0.6109705   0.4396407  )
       119        P      tau( 119) = (   0.2910699   0.0777534   0.4374945  )
       120        P      tau( 120) = (   0.0396216   0.4038566   0.1272204  )
       121        O      tau( 121) = (   0.1294378   0.8763430   0.2660424  )
       122        O      tau( 122) = (   0.3874505   0.6804944   0.3034039  )
       123        O      tau( 123) = (   0.3702540   0.1464970   0.3011014  )
       124        O      tau( 124) = (   0.1184398   0.3333129   0.2632689  )
       125        O      tau( 125) = (   0.1451572   0.8601051   0.0083464  )
       126        O      tau( 126) = (   0.4048762   0.6995756   0.5653550  )
       127        O      tau( 127) = (   0.3523506   0.1650749   0.5635298  )
       128        O      tau( 128) = (   0.1017610   0.3160655   0.0014470  )
       129        O      tau( 129) = (   0.0975396   0.5599458   0.1313120  )
       130        O      tau( 130) = (   0.3483552   1.0065115   0.4400720  )
       131        O      tau( 131) = (   0.3784305   0.3975288   0.1362114  )
       132        O      tau( 132) = (   0.1268237   0.0818115   0.4278298  )
       133        O      tau( 133) = (   0.1212267   0.6174340   0.4308146  )
       134        O      tau( 134) = (   0.4053315   0.4559557   0.4370420  )
       135        O      tau( 135) = (   0.1536621   0.0197088   0.1297656  )
       136        O      tau( 136) = (   0.3732349   0.9381887   0.1414400  )
       137        P      tau( 137) = (   0.7119823   0.9446144   0.1298032  )
       138        P      tau( 138) = (   0.9615208   0.6113562   0.4408111  )
       139        P      tau( 139) = (   0.7927710   0.0720230   0.4378878  )
       140        P      tau( 140) = (   0.5426404   0.4019845   0.1260304  )
       141        O      tau( 141) = (   0.6326879   0.8741353   0.2657802  )
       142        O      tau( 142) = (   0.8842163   0.6833376   0.3045887  )
       143        O      tau( 143) = (   0.8716178   0.1427921   0.3017538  )
       144        O      tau( 144) = (   0.6212010   0.3308836   0.2619957  )
       145        O      tau( 145) = (   0.6507714   0.8562512   0.0039320  )
       146        O      tau( 146) = (   0.9014054   0.7014628   0.5660366  )
       147        O      tau( 147) = (   0.8548963   0.1598079   0.5635571  )
       148        O      tau( 148) = (   0.6044469   0.3128877   0.0010676  )
       149        O      tau( 149) = (   0.6024424   0.5573310   0.1292027  )
       150        O      tau( 150) = (   0.8498940   1.0004653   0.4395886  )
       151        O      tau( 151) = (   0.8798395   0.3955995   0.1365272  )
       152        O      tau( 152) = (   0.6286921   0.0784807   0.4273696  )
       153        O      tau( 153) = (   0.6294973   0.6177923   0.4298489  )
       154        O      tau( 154) = (   0.9024339   0.4560482   0.4374624  )
       155        O      tau( 155) = (   0.6547812   0.0161158   0.1274406  )
       156        O      tau( 156) = (   0.8760507   0.9382775   0.1406535  )
       157        O      tau( 157) = (   0.6249036   0.3860534   1.8430224  )
       158        H      tau( 158) = (   0.7081905   0.3257877   1.8689877  )

     -------------------------------------------------
     Parameters for Dispersion (Grimme-D2) Correction:
     -------------------------------------------------
       atom      VdW radius       C_6     

        Ni         2.952        374.666
        Mn         2.952        374.666
        P          3.222        271.980
        O          2.536         24.284
        H          1.892          4.857

     number of k points=     1  Gaussian smearing, width (Ry)=  0.0100
                       cart. coord. in units 2pi/alat
        k(    1) = (   0.0000000   0.0000000   0.0000000), wk =   1.0000000

     Dense  grid:  1918138 G-vectors     FFT dimensions: ( 125, 135, 432)

     Smooth grid:   485265 G-vectors     FFT dimensions: (  80,  90, 288)

     Estimated max dynamical RAM per process >     320.12 MB

     Estimated total dynamical RAM >      20.01 GB
     Generating pointlists ...
     new r_m :   0.0799 (alat units)  1.4144 (a.u.) for type    1
     new r_m :   0.0869 (alat units)  1.5388 (a.u.) for type    2
     new r_m :   0.0650 (alat units)  1.1499 (a.u.) for type    3
     new r_m :   0.0437 (alat units)  0.7742 (a.u.) for type    4
     new r_m :   0.0437 (alat units)  0.7742 (a.u.) for type    5

     Initial potential from superposition of free atoms

     starting charge    1077.8900, renormalised to    1078.0000

     negative rho (up, down):  1.224E-03 4.542E-04
 
     Adding external electric field

     Computed dipole along edir(3) : 
        Dipole                1.6256 Ry au,          4.1320 Debye
        Dipole field          0.0010 Ry au, 
 
        Potential amp.       -0.1091 Ry
        Total length         54.2615 bohr
 
 
     Adding external electric field

     Computed dipole along edir(3) : 
        Dipole                1.6256 Ry au,          4.1320 Debye
        Dipole field          0.0010 Ry au, 
 
        Potential amp.       -0.1091 Ry
        Total length         54.2615 bohr
 
     Starting wfcs are  812 randomized atomic wfcs

     total cpu time spent up to now is       15.4 secs

     Self-consistent Calculation

     iteration #  1     ecut=    50.00 Ry     beta= 0.10
     Davidson diagonalization with overlap
     ethr =  1.00E-02,  avg # of iterations =  6.0

     negative rho (up, down):  3.565E-01 4.396E-07
 
     Adding external electric field

     Computed dipole along edir(3) : 
        Dipole               -2.7006 Ry au,         -6.8643 Debye
        Dipole field         -0.0017 Ry au, 
 
        Potential amp.        0.1813 Ry
        Total length         54.2615 bohr
 
 
     Adding external electric field

     Computed dipole along edir(3) : 
        Dipole               -2.7006 Ry au,         -6.8643 Debye
        Dipole field         -0.0017 Ry au, 
 
        Potential amp.        0.1813 Ry
        Total length         54.2615 bohr
 

     total cpu time spent up to now is       42.4 secs

     total energy              =   -7178.22683275 Ry
     estimated scf accuracy    <     750.08326724 Ry

     total magnetization       =   216.00 Bohr mag/cell
     absolute magnetization    =   296.83 Bohr mag/cell

     iteration #  2     ecut=    50.00 Ry     beta= 0.10
     Davidson diagonalization with overlap
     ethr =  1.00E-02,  avg # of iterations =  2.0

     negative rho (up, down):  3.250E-01 4.166E-07
 
     Adding external electric field

     Computed dipole along edir(3) : 
        Dipole               -2.0532 Ry au,         -5.2188 Debye
        Dipole field         -0.0013 Ry au, 
 
        Potential amp.        0.1378 Ry
        Total length         54.2615 bohr
 
 
     Adding external electric field

     Computed dipole along edir(3) : 
        Dipole               -2.0532 Ry au,         -5.2188 Debye
        Dipole field         -0.0013 Ry au, 
 
        Potential amp.        0.1378 Ry
        Total length         54.2615 bohr
 

     total cpu time spent up to now is       58.5 secs

     total energy              =   -7265.12009097 Ry
     estimated scf accuracy    <     141.89971416 Ry

     total magnetization       =   150.49 Bohr mag/cell
     absolute magnetization    =   200.49 Bohr mag/cell

     iteration #  3     ecut=    50.00 Ry     beta= 0.10
     Davidson diagonalization with overlap
     ethr =  1.00E-02,  avg # of iterations =  1.5

     negative rho (up, down):  2.841E-01 3.309E-07
 
     Adding external electric field

     Computed dipole along edir(3) : 
        Dipole               -1.8265 Ry au,         -4.6424 Debye
        Dipole field         -0.0011 Ry au, 
 
        Potential amp.        0.1226 Ry
        Total length         54.2615 bohr
 
 
     Adding external electric field

     Computed dipole along edir(3) : 
        Dipole               -1.8265 Ry au,         -4.6424 Debye
        Dipole field         -0.0011 Ry au, 
 
        Potential amp.        0.1226 Ry
        Total length         54.2615 bohr
 

     total cpu time spent up to now is       71.3 secs

     total energy              =   -7295.21425244 Ry
     estimated scf accuracy    <      92.87899204 Ry

     total magnetization       =   124.90 Bohr mag/cell
     absolute magnetization    =   178.77 Bohr mag/cell

     iteration #  4     ecut=    50.00 Ry     beta= 0.10
     Davidson diagonalization with overlap
     ethr =  8.62E-03,  avg # of iterations =  1.5

     negative rho (up, down):  2.002E-01 4.386E-08
 
     Adding external electric field

     Computed dipole along edir(3) : 
        Dipole               -1.7390 Ry au,         -4.4201 Debye
        Dipole field         -0.0011 Ry au, 
 
        Potential amp.        0.1167 Ry
        Total length         54.2615 bohr
 
 
     Adding external electric field

     Computed dipole along edir(3) : 
        Dipole               -1.7390 Ry au,         -4.4201 Debye
        Dipole field         -0.0011 Ry au, 
 
        Potential amp.        0.1167 Ry
        Total length         54.2615 bohr
 

     total cpu time spent up to now is       84.2 secs

     total energy              =   -7333.30682727 Ry
     estimated scf accuracy    <      77.55477572 Ry

     total magnetization       =   109.86 Bohr mag/cell
     absolute magnetization    =   164.52 Bohr mag/cell

     iteration #  5     ecut=    50.00 Ry     beta= 0.10
     Davidson diagonalization with overlap
     ethr =  7.19E-03,  avg # of iterations =  1.5

     negative rho (up, down):  8.693E-04 1.660E-06
 
     Adding external electric field

     Computed dipole along edir(3) : 
        Dipole               -1.2307 Ry au,         -3.1282 Debye
        Dipole field         -0.0008 Ry au, 
 
        Potential amp.        0.0826 Ry
        Total length         54.2615 bohr
 
 
     Adding external electric field

     Computed dipole along edir(3) : 
        Dipole               -1.2307 Ry au,         -3.1282 Debye
        Dipole field         -0.0008 Ry au, 
 
        Potential amp.        0.0826 Ry
        Total length         54.2615 bohr
 

     total cpu time spent up to now is       97.3 secs

     total energy              =   -7390.04661191 Ry
     estimated scf accuracy    <      56.44992650 Ry

     total magnetization       =    88.00 Bohr mag/cell
     absolute magnetization    =   143.95 Bohr mag/cell

     iteration #  6     ecut=    50.00 Ry     beta= 0.10
     Davidson diagonalization with overlap
     ethr =  5.24E-03,  avg # of iterations =  2.0

     negative rho (up, down):  5.672E-05 1.089E-05
 
     Adding external electric field

     Computed dipole along edir(3) : 
        Dipole               -0.9953 Ry au,         -2.5297 Debye
        Dipole field         -0.0006 Ry au, 
 
        Potential amp.        0.0668 Ry
        Total length         54.2615 bohr
 
 
     Adding external electric field

     Computed dipole along edir(3) : 
        Dipole               -0.9953 Ry au,         -2.5297 Debye
        Dipole field         -0.0006 Ry au, 
 
        Potential amp.        0.0668 Ry
        Total length         54.2615 bohr
 

     total cpu time spent up to now is      110.4 secs

     total energy              =   -7395.75965221 Ry
     estimated scf accuracy    <      13.81586141 Ry

     total magnetization       =    73.06 Bohr mag/cell
     absolute magnetization    =   102.82 Bohr mag/cell

     iteration #  7     ecut=    50.00 Ry     beta= 0.10
     Davidson diagonalization with overlap
     ethr =  1.28E-03,  avg # of iterations =  5.5

     negative rho (up, down):  3.921E-06 7.521E-06
 
     Adding external electric field

     Computed dipole along edir(3) : 
        Dipole               -0.7478 Ry au,         -1.9008 Debye
        Dipole field         -0.0005 Ry au, 
 
        Potential amp.        0.0502 Ry
        Total length         54.2615 bohr
 
 
     Adding external electric field

     Computed dipole along edir(3) : 
        Dipole               -0.7478 Ry au,         -1.9008 Debye
        Dipole field         -0.0005 Ry au, 
 
        Potential amp.        0.0502 Ry
        Total length         54.2615 bohr
 

     total cpu time spent up to now is      130.4 secs

     total energy              =   -7396.94628102 Ry
     estimated scf accuracy    <       9.11955187 Ry

     total magnetization       =    72.28 Bohr mag/cell
     absolute magnetization    =    92.29 Bohr mag/cell

     iteration #  8     ecut=    50.00 Ry     beta= 0.10
     Davidson diagonalization with overlap
     ethr =  8.46E-04,  avg # of iterations =  1.5

     negative rho (up, down):  1.107E-06 1.017E-05
 
     Adding external electric field

     Computed dipole along edir(3) : 
        Dipole               -0.7221 Ry au,         -1.8355 Debye
        Dipole field         -0.0004 Ry au, 
 
        Potential amp.        0.0485 Ry
        Total length         54.2615 bohr
 
 
     Adding external electric field

     Computed dipole along edir(3) : 
        Dipole               -0.7221 Ry au,         -1.8355 Debye
        Dipole field         -0.0004 Ry au, 
 
        Potential amp.        0.0485 Ry
        Total length         54.2615 bohr
 

     total cpu time spent up to now is      142.9 secs

     total energy              =   -7397.49200855 Ry
     estimated scf accuracy    <       1.83671199 Ry

     total magnetization       =    80.01 Bohr mag/cell
     absolute magnetization    =    94.99 Bohr mag/cell

     iteration #  9     ecut=    50.00 Ry     beta= 0.10
     Davidson diagonalization with overlap
     ethr =  1.70E-04,  avg # of iterations = 12.0

     negative rho (up, down):  1.707E-07 2.011E-06
 
     Adding external electric field

     Computed dipole along edir(3) : 
        Dipole               -0.6939 Ry au,         -1.7638 Debye
        Dipole field         -0.0004 Ry au, 
 
        Potential amp.        0.0466 Ry
        Total length         54.2615 bohr
 
 
     Adding external electric field

     Computed dipole along edir(3) : 
        Dipole               -0.6939 Ry au,         -1.7638 Debye
        Dipole field         -0.0004 Ry au, 
 
        Potential amp.        0.0466 Ry
        Total length         54.2615 bohr
 

     total cpu time spent up to now is      166.3 secs

     total energy              =   -7397.63582773 Ry
     estimated scf accuracy    <       1.19328327 Ry

     total magnetization       =    79.99 Bohr mag/cell
     absolute magnetization    =    91.95 Bohr mag/cell

     iteration # 10     ecut=    50.00 Ry     beta= 0.10
     Davidson diagonalization with overlap
     ethr =  1.11E-04,  avg # of iterations =  1.5

     negative rho (up, down):  1.335E-08 3.665E-07
 
     Adding external electric field

     Computed dipole along edir(3) : 
        Dipole               -0.6865 Ry au,         -1.7450 Debye
        Dipole field         -0.0004 Ry au, 
 
        Potential amp.        0.0461 Ry
        Total length         54.2615 bohr
 
 
     Adding external electric field

     Computed dipole along edir(3) : 
        Dipole               -0.6865 Ry au,         -1.7450 Debye
        Dipole field         -0.0004 Ry au, 
 
        Potential amp.        0.0461 Ry
        Total length         54.2615 bohr
 

     total cpu time spent up to now is      178.0 secs

     total energy              =   -7397.79048803 Ry
     estimated scf accuracy    <       0.73058526 Ry

     total magnetization       =    79.21 Bohr mag/cell
     absolute magnetization    =    89.60 Bohr mag/cell

     iteration # 11     ecut=    50.00 Ry     beta= 0.10
     Davidson diagonalization with overlap
     ethr =  6.78E-05,  avg # of iterations =  2.0

     negative rho (up, down):  3.214E-09 3.223E-07
 
     Adding external electric field

     Computed dipole along edir(3) : 
        Dipole               -0.6680 Ry au,         -1.6978 Debye
        Dipole field         -0.0004 Ry au, 
 
        Potential amp.        0.0448 Ry
        Total length         54.2615 bohr
 
 
     Adding external electric field

     Computed dipole along edir(3) : 
        Dipole               -0.6680 Ry au,         -1.6978 Debye
        Dipole field         -0.0004 Ry au, 
 
        Potential amp.        0.0448 Ry
        Total length         54.2615 bohr
 

     total cpu time spent up to now is      191.4 secs

     total energy              =   -7397.80489244 Ry
     estimated scf accuracy    <       0.78602204 Ry

     total magnetization       =    78.84 Bohr mag/cell
     absolute magnetization    =    86.86 Bohr mag/cell

     iteration # 12     ecut=    50.00 Ry     beta= 0.10
     Davidson diagonalization with overlap
     ethr =  6.78E-05,  avg # of iterations =  1.0

     negative rho (up, down):  1.127E-09 1.501E-07
 
     Adding external electric field

     Computed dipole along edir(3) : 
        Dipole               -0.6717 Ry au,         -1.7072 Debye
        Dipole field         -0.0004 Ry au, 
 
        Potential amp.        0.0451 Ry
        Total length         54.2615 bohr
 
 
     Adding external electric field

     Computed dipole along edir(3) : 
        Dipole               -0.6717 Ry au,         -1.7072 Debye
        Dipole field         -0.0004 Ry au, 
 
        Potential amp.        0.0451 Ry
        Total length         54.2615 bohr
 

     total cpu time spent up to now is      202.6 secs

     total energy              =   -7397.93267135 Ry
     estimated scf accuracy    <       0.34722475 Ry

     total magnetization       =    80.10 Bohr mag/cell
     absolute magnetization    =    87.55 Bohr mag/cell

     iteration # 13     ecut=    50.00 Ry     beta= 0.10
     Davidson diagonalization with overlap
     ethr =  3.22E-05,  avg # of iterations =  2.0

     negative rho (up, down):  5.955E-09 3.309E-05
 
     Adding external electric field

     Computed dipole along edir(3) : 
        Dipole               -0.5696 Ry au,         -1.4478 Debye
        Dipole field         -0.0004 Ry au, 
 
        Potential amp.        0.0382 Ry
        Total length         54.2615 bohr
 
 
     Adding external electric field

     Computed dipole along edir(3) : 
        Dipole               -0.5696 Ry au,         -1.4478 Debye
        Dipole field         -0.0004 Ry au, 
 
        Potential amp.        0.0382 Ry
        Total length         54.2615 bohr
 

     total cpu time spent up to now is      216.0 secs

     total energy              =   -7397.94923361 Ry
     estimated scf accuracy    <       1.81170632 Ry

     total magnetization       =    76.23 Bohr mag/cell
     absolute magnetization    =    81.48 Bohr mag/cell

     iteration # 14     ecut=    50.00 Ry     beta= 0.10
     Davidson diagonalization with overlap
     ethr =  3.22E-05,  avg # of iterations =  2.0

     negative rho (up, down):  6.113E-06 3.765E-05
 
     Adding external electric field

     Computed dipole along edir(3) : 
        Dipole               -0.5273 Ry au,         -1.3403 Debye
        Dipole field         -0.0003 Ry au, 
 
        Potential amp.        0.0354 Ry
        Total length         54.2615 bohr
 
 
     Adding external electric field

     Computed dipole along edir(3) : 
        Dipole               -0.5273 Ry au,         -1.3403 Debye
        Dipole field         -0.0003 Ry au, 
 
        Potential amp.        0.0354 Ry
        Total length         54.2615 bohr
 

     total cpu time spent up to now is      229.1 secs

     total energy              =   -7398.03129303 Ry
     estimated scf accuracy    <       0.19656020 Ry

     total magnetization       =    81.23 Bohr mag/cell
     absolute magnetization    =    83.89 Bohr mag/cell

     iteration # 15     ecut=    50.00 Ry     beta= 0.10
     Davidson diagonalization with overlap
     ethr =  1.82E-05,  avg # of iterations = 10.0

     negative rho (up, down):  1.099E-05 1.376E-05
 
     Adding external electric field

     Computed dipole along edir(3) : 
        Dipole               -0.4856 Ry au,         -1.2343 Debye
        Dipole field         -0.0003 Ry au, 
 
        Potential amp.        0.0326 Ry
        Total length         54.2615 bohr
 
 
     Adding external electric field

     Computed dipole along edir(3) : 
        Dipole               -0.4856 Ry au,         -1.2343 Debye
        Dipole field         -0.0003 Ry au, 
 
        Potential amp.        0.0326 Ry
        Total length         54.2615 bohr
 

     total cpu time spent up to now is      249.0 secs

     total energy              =   -7398.03261426 Ry
     estimated scf accuracy    <       0.10275678 Ry

     total magnetization       =    80.91 Bohr mag/cell
     absolute magnetization    =    82.88 Bohr mag/cell

     iteration # 16     ecut=    50.00 Ry     beta= 0.10
     Davidson diagonalization with overlap
     ethr =  9.53E-06,  avg # of iterations = 11.5

     negative rho (up, down):  1.959E-06 1.480E-06
 
     Adding external electric field

     Computed dipole along edir(3) : 
        Dipole               -0.4358 Ry au,         -1.1076 Debye
        Dipole field         -0.0003 Ry au, 
 
        Potential amp.        0.0292 Ry
        Total length         54.2615 bohr
 
 
     Adding external electric field

     Computed dipole along edir(3) : 
        Dipole               -0.4358 Ry au,         -1.1076 Debye
        Dipole field         -0.0003 Ry au, 
 
        Potential amp.        0.0292 Ry
        Total length         54.2615 bohr
 

     total cpu time spent up to now is      271.3 secs

     total energy              =   -7398.03138952 Ry
     estimated scf accuracy    <       0.07148925 Ry

     total magnetization       =    80.64 Bohr mag/cell
     absolute magnetization    =    82.29 Bohr mag/cell

     iteration # 17     ecut=    50.00 Ry     beta= 0.10
     Davidson diagonalization with overlap
     ethr =  6.63E-06,  avg # of iterations =  6.0

     negative rho (up, down):  7.797E-08 3.343E-06
 
     Adding external electric field

     Computed dipole along edir(3) : 
        Dipole               -0.4154 Ry au,         -1.0560 Debye
        Dipole field         -0.0003 Ry au, 
 
        Potential amp.        0.0279 Ry
        Total length         54.2615 bohr
 
 
     Adding external electric field

     Computed dipole along edir(3) : 
        Dipole               -0.4154 Ry au,         -1.0560 Debye
        Dipole field         -0.0003 Ry au, 
 
        Potential amp.        0.0279 Ry
        Total length         54.2615 bohr
 

     total cpu time spent up to now is      285.6 secs

     total energy              =   -7398.03416293 Ry
     estimated scf accuracy    <       0.06197034 Ry

     total magnetization       =    80.21 Bohr mag/cell
     absolute magnetization    =    81.76 Bohr mag/cell

     iteration # 18     ecut=    50.00 Ry     beta= 0.10
     Davidson diagonalization with overlap
     ethr =  5.75E-06,  avg # of iterations =  1.5

     negative rho (up, down):  3.568E-09 1.425E-07
 
     Adding external electric field

     Computed dipole along edir(3) : 
        Dipole               -0.3688 Ry au,         -0.9373 Debye
        Dipole field         -0.0002 Ry au, 
 
        Potential amp.        0.0247 Ry
        Total length         54.2615 bohr
 
 
     Adding external electric field

     Computed dipole along edir(3) : 
        Dipole               -0.3688 Ry au,         -0.9373 Debye
        Dipole field         -0.0002 Ry au, 
 
        Potential amp.        0.0247 Ry
        Total length         54.2615 bohr
 

     total cpu time spent up to now is      297.3 secs

     total energy              =   -7398.03276642 Ry
     estimated scf accuracy    <       0.06361491 Ry

     total magnetization       =    80.33 Bohr mag/cell
     absolute magnetization    =    81.81 Bohr mag/cell

     iteration # 19     ecut=    50.00 Ry     beta= 0.10
     Davidson diagonalization with overlap
     ethr =  5.75E-06,  avg # of iterations =  1.0
 
     Adding external electric field

     Computed dipole along edir(3) : 
        Dipole               -0.3344 Ry au,         -0.8500 Debye
        Dipole field         -0.0002 Ry au, 
 
        Potential amp.        0.0224 Ry
        Total length         54.2615 bohr
 
 
     Adding external electric field

     Computed dipole along edir(3) : 
        Dipole               -0.3344 Ry au,         -0.8500 Debye
        Dipole field         -0.0002 Ry au, 
 
        Potential amp.        0.0224 Ry
        Total length         54.2615 bohr
 

     total cpu time spent up to now is      308.5 secs

     total energy              =   -7398.03251652 Ry
     estimated scf accuracy    <       0.04748265 Ry

     total magnetization       =    80.59 Bohr mag/cell
     absolute magnetization    =    82.02 Bohr mag/cell

     iteration # 20     ecut=    50.00 Ry     beta= 0.10
     Davidson diagonalization with overlap
     ethr =  4.40E-06,  avg # of iterations =  1.5
 
     Adding external electric field

     Computed dipole along edir(3) : 
        Dipole               -0.2923 Ry au,         -0.7431 Debye
        Dipole field         -0.0002 Ry au, 
 
        Potential amp.        0.0196 Ry
        Total length         54.2615 bohr
 
 
     Adding external electric field

     Computed dipole along edir(3) : 
        Dipole               -0.2923 Ry au,         -0.7431 Debye
        Dipole field         -0.0002 Ry au, 
 
        Potential amp.        0.0196 Ry
        Total length         54.2615 bohr
 

     total cpu time spent up to now is      320.6 secs

     total energy              =   -7398.03270988 Ry
     estimated scf accuracy    <       0.04710918 Ry

     total magnetization       =    80.14 Bohr mag/cell
     absolute magnetization    =    81.62 Bohr mag/cell

     iteration # 21     ecut=    50.00 Ry     beta= 0.10
     Davidson diagonalization with overlap
     ethr =  4.37E-06,  avg # of iterations =  1.5

     negative rho (up, down):  5.815E-09 1.731E-08
 
     Adding external electric field

     Computed dipole along edir(3) : 
        Dipole               -0.2591 Ry au,         -0.6585 Debye
        Dipole field         -0.0002 Ry au, 
 
        Potential amp.        0.0174 Ry
        Total length         54.2615 bohr
 
 
     Adding external electric field

     Computed dipole along edir(3) : 
        Dipole               -0.2591 Ry au,         -0.6585 Debye
        Dipole field         -0.0002 Ry au, 
 
        Potential amp.        0.0174 Ry
        Total length         54.2615 bohr
 

     total cpu time spent up to now is      332.9 secs

     total energy              =   -7398.03266375 Ry
     estimated scf accuracy    <       0.04507527 Ry

     total magnetization       =    80.29 Bohr mag/cell
     absolute magnetization    =    81.75 Bohr mag/cell

     iteration # 22     ecut=    50.00 Ry     beta= 0.10
     Davidson diagonalization with overlap
     ethr =  4.18E-06,  avg # of iterations =  1.5
 
     Adding external electric field

     Computed dipole along edir(3) : 
        Dipole               -0.2650 Ry au,         -0.6737 Debye
        Dipole field         -0.0002 Ry au, 
 
        Potential amp.        0.0178 Ry
        Total length         54.2615 bohr
 
 
     Adding external electric field

     Computed dipole along edir(3) : 
        Dipole               -0.2650 Ry au,         -0.6737 Debye
        Dipole field         -0.0002 Ry au, 
 
        Potential amp.        0.0178 Ry
        Total length         54.2615 bohr
 

     total cpu time spent up to now is      344.3 secs

     total energy              =   -7398.03141729 Ry
     estimated scf accuracy    <       0.04573904 Ry

     total magnetization       =    80.27 Bohr mag/cell
     absolute magnetization    =    81.70 Bohr mag/cell

     iteration # 23     ecut=    50.00 Ry     beta= 0.10
     Davidson diagonalization with overlap
     ethr =  4.18E-06,  avg # of iterations =  1.5

     negative rho (up, down):  2.095E-07 2.668E-08
 
     Adding external electric field

     Computed dipole along edir(3) : 
        Dipole               -0.3564 Ry au,         -0.9059 Debye
        Dipole field         -0.0002 Ry au, 
 
        Potential amp.        0.0239 Ry
        Total length         54.2615 bohr
 
 
     Adding external electric field

     Computed dipole along edir(3) : 
        Dipole               -0.3564 Ry au,         -0.9059 Debye
        Dipole field         -0.0002 Ry au, 
 
        Potential amp.        0.0239 Ry
        Total length         54.2615 bohr
 

     total cpu time spent up to now is      356.2 secs

     total energy              =   -7398.02963794 Ry
     estimated scf accuracy    <       0.06010419 Ry

     total magnetization       =    80.25 Bohr mag/cell
     absolute magnetization    =    81.90 Bohr mag/cell

     iteration # 24     ecut=    50.00 Ry     beta= 0.10
     Davidson diagonalization with overlap
     ethr =  4.18E-06,  avg # of iterations =  1.5

     negative rho (up, down):  7.515E-07 2.110E-07
 
     Adding external electric field

     Computed dipole along edir(3) : 
        Dipole               -0.3902 Ry au,         -0.9918 Debye
        Dipole field         -0.0002 Ry au, 
 
        Potential amp.        0.0262 Ry
        Total length         54.2615 bohr
 
 
     Adding external electric field

     Computed dipole along edir(3) : 
        Dipole               -0.3902 Ry au,         -0.9918 Debye
        Dipole field         -0.0002 Ry au, 
 
        Potential amp.        0.0262 Ry
        Total length         54.2615 bohr
 

     total cpu time spent up to now is      368.2 secs

     total energy              =   -7398.03140608 Ry
     estimated scf accuracy    <       0.03847681 Ry

     total magnetization       =    80.26 Bohr mag/cell
     absolute magnetization    =    81.60 Bohr mag/cell

     iteration # 25     ecut=    50.00 Ry     beta= 0.10
     Davidson diagonalization with overlap
     ethr =  3.57E-06,  avg # of iterations =  1.0

     negative rho (up, down):  1.779E-06 9.030E-07
 
     Adding external electric field

     Computed dipole along edir(3) : 
        Dipole               -0.4357 Ry au,         -1.1075 Debye
        Dipole field         -0.0003 Ry au, 
 
        Potential amp.        0.0292 Ry
        Total length         54.2615 bohr
 
 
     Adding external electric field

     Computed dipole along edir(3) : 
        Dipole               -0.4357 Ry au,         -1.1075 Debye
        Dipole field         -0.0003 Ry au, 
 
        Potential amp.        0.0292 Ry
        Total length         54.2615 bohr
 

     total cpu time spent up to now is      379.7 secs

     total energy              =   -7398.03179055 Ry
     estimated scf accuracy    <       0.03317942 Ry

     total magnetization       =    80.36 Bohr mag/cell
     absolute magnetization    =    81.66 Bohr mag/cell

     iteration # 26     ecut=    50.00 Ry     beta= 0.10
     Davidson diagonalization with overlap
     ethr =  3.08E-06,  avg # of iterations =  1.5

     negative rho (up, down):  3.660E-06 9.551E-07
 
     Adding external electric field

     Computed dipole along edir(3) : 
        Dipole               -0.4436 Ry au,         -1.1276 Debye
        Dipole field         -0.0003 Ry au, 
 
        Potential amp.        0.0298 Ry
        Total length         54.2615 bohr
 
 
     Adding external electric field

     Computed dipole along edir(3) : 
        Dipole               -0.4436 Ry au,         -1.1276 Debye
        Dipole field         -0.0003 Ry au, 
 
        Potential amp.        0.0298 Ry
        Total length         54.2615 bohr
 

     total cpu time spent up to now is      392.1 secs

     total energy              =   -7398.03118769 Ry
     estimated scf accuracy    <       0.03209806 Ry

     total magnetization       =    80.28 Bohr mag/cell
     absolute magnetization    =    81.55 Bohr mag/cell

     iteration # 27     ecut=    50.00 Ry     beta= 0.10
     Davidson diagonalization with overlap
     ethr =  2.98E-06,  avg # of iterations =  1.0

     negative rho (up, down):  8.869E-07 2.042E-07
 
     Adding external electric field

     Computed dipole along edir(3) : 
        Dipole               -0.3836 Ry au,         -0.9750 Debye
        Dipole field         -0.0002 Ry au, 
 
        Potential amp.        0.0257 Ry
        Total length         54.2615 bohr
 
 
     Adding external electric field

     Computed dipole along edir(3) : 
        Dipole               -0.3836 Ry au,         -0.9750 Debye
        Dipole field         -0.0002 Ry au, 
 
        Potential amp.        0.0257 Ry
        Total length         54.2615 bohr
 

     total cpu time spent up to now is      403.4 secs

     total energy              =   -7398.03121014 Ry
     estimated scf accuracy    <       0.03511975 Ry

     total magnetization       =    80.25 Bohr mag/cell
     absolute magnetization    =    81.49 Bohr mag/cell

     iteration # 28     ecut=    50.00 Ry     beta= 0.10
     Davidson diagonalization with overlap
     ethr =  2.98E-06,  avg # of iterations =  1.5

     negative rho (up, down):  4.440E-03 3.523E-03
 
     Adding external electric field

     Computed dipole along edir(3) : 
        Dipole                0.0743 Ry au,          0.1888 Debye
        Dipole field          0.0000 Ry au, 
 
        Potential amp.       -0.0050 Ry
        Total length         54.2615 bohr
 
 
     Adding external electric field

     Computed dipole along edir(3) : 
        Dipole                0.0743 Ry au,          0.1888 Debye
        Dipole field          0.0000 Ry au, 
 
        Potential amp.       -0.0050 Ry
        Total length         54.2615 bohr
 

     total cpu time spent up to now is      415.4 secs

     total energy              =   -7398.02650197 Ry
     estimated scf accuracy    <       0.02993410 Ry

     total magnetization       =    80.26 Bohr mag/cell
     absolute magnetization    =    81.55 Bohr mag/cell

     iteration # 29     ecut=    50.00 Ry     beta= 0.10
     Davidson diagonalization with overlap
     c_bands:  3 eigenvalues not converged
     c_bands:  3 eigenvalues not converged
     ethr =  2.78E-06,  avg # of iterations = 20.0

     negative rho (up, down):  4.157E-03 3.132E-03
 
     Adding external electric field

     Computed dipole along edir(3) : 
        Dipole                0.0787 Ry au,          0.2001 Debye
        Dipole field          0.0000 Ry au, 
 
        Potential amp.       -0.0053 Ry
        Total length         54.2615 bohr
 
 
     Adding external electric field

     Computed dipole along edir(3) : 
        Dipole                0.0787 Ry au,          0.2001 Debye
        Dipole field          0.0000 Ry au, 
 
        Potential amp.       -0.0053 Ry
        Total length         54.2615 bohr
 

     total cpu time spent up to now is      441.1 secs

     total energy              =   -7398.02689543 Ry
     estimated scf accuracy    <       0.01545573 Ry

     total magnetization       =    80.33 Bohr mag/cell
     absolute magnetization    =    81.68 Bohr mag/cell

     iteration # 30     ecut=    50.00 Ry     beta= 0.10
     Davidson diagonalization with overlap
     ethr =  1.43E-06,  avg # of iterations = 14.5

     negative rho (up, down):  4.087E-03 3.162E-03
 
     Adding external electric field

     Computed dipole along edir(3) : 
        Dipole                0.1698 Ry au,          0.4315 Debye
        Dipole field          0.0001 Ry au, 
 
        Potential amp.       -0.0114 Ry
        Total length         54.2615 bohr
 
 
     Adding external electric field

     Computed dipole along edir(3) : 
        Dipole                0.1698 Ry au,          0.4315 Debye
        Dipole field          0.0001 Ry au, 
 
        Potential amp.       -0.0114 Ry
        Total length         54.2615 bohr
 

     total cpu time spent up to now is      459.6 secs

     total energy              =   -7398.02725331 Ry
     estimated scf accuracy    <       0.01367569 Ry

     total magnetization       =    80.30 Bohr mag/cell
     absolute magnetization    =    81.64 Bohr mag/cell

     iteration # 31     ecut=    50.00 Ry     beta= 0.10
     Davidson diagonalization with overlap
     ethr =  1.27E-06,  avg # of iterations =  2.0

     negative rho (up, down):  8.757E-03 7.603E-03
 
     Adding external electric field

     Computed dipole along edir(3) : 
        Dipole                0.3772 Ry au,          0.9587 Debye
        Dipole field          0.0002 Ry au, 
 
        Potential amp.       -0.0253 Ry
        Total length         54.2615 bohr
 
 
     Adding external electric field

     Computed dipole along edir(3) : 
        Dipole                0.3772 Ry au,          0.9587 Debye
        Dipole field          0.0002 Ry au, 
 
        Potential amp.       -0.0253 Ry
        Total length         54.2615 bohr
 

     total cpu time spent up to now is      472.4 secs

     total energy              =   -7398.02875428 Ry
     estimated scf accuracy    <       0.00920999 Ry

     total magnetization       =    80.25 Bohr mag/cell
     absolute magnetization    =    81.61 Bohr mag/cell

     iteration # 32     ecut=    50.00 Ry     beta= 0.10
     Davidson diagonalization with overlap
     ethr =  8.54E-07,  avg # of iterations = 14.0

     negative rho (up, down):  1.714E-03 1.421E-03
 
     Adding external electric field

     Computed dipole along edir(3) : 
        Dipole                0.3211 Ry au,          0.8161 Debye
        Dipole field          0.0002 Ry au, 
 
        Potential amp.       -0.0215 Ry
        Total length         54.2615 bohr
 
 
     Adding external electric field

     Computed dipole along edir(3) : 
        Dipole                0.3211 Ry au,          0.8161 Debye
        Dipole field          0.0002 Ry au, 
 
        Potential amp.       -0.0215 Ry
        Total length         54.2615 bohr
 

     total cpu time spent up to now is      492.8 secs

     total energy              =   -7398.02920391 Ry
     estimated scf accuracy    <       0.00634187 Ry

     total magnetization       =    80.20 Bohr mag/cell
     absolute magnetization    =    81.60 Bohr mag/cell

     iteration # 33     ecut=    50.00 Ry     beta= 0.10
     Davidson diagonalization with overlap
     c_bands:  2 eigenvalues not converged
     ethr =  5.88E-07,  avg # of iterations = 12.0

     negative rho (up, down):  1.611E-03 1.145E-03
 
     Adding external electric field

     Computed dipole along edir(3) : 
        Dipole                0.3278 Ry au,          0.8332 Debye
        Dipole field          0.0002 Ry au, 
 
        Potential amp.       -0.0220 Ry
        Total length         54.2615 bohr
 
 
     Adding external electric field

     Computed dipole along edir(3) : 
        Dipole                0.3278 Ry au,          0.8332 Debye
        Dipole field          0.0002 Ry au, 
 
        Potential amp.       -0.0220 Ry
        Total length         54.2615 bohr
 

     total cpu time spent up to now is      511.5 secs

     total energy              =   -7398.02936909 Ry
     estimated scf accuracy    <       0.00261027 Ry

     total magnetization       =    80.22 Bohr mag/cell
     absolute magnetization    =    81.68 Bohr mag/cell

     iteration # 34     ecut=    50.00 Ry     beta= 0.10
     Davidson diagonalization with overlap
     ethr =  2.42E-07,  avg # of iterations =  2.0

     negative rho (up, down):  1.971E-04 1.576E-04
 
     Adding external electric field

     Computed dipole along edir(3) : 
        Dipole                0.2745 Ry au,          0.6976 Debye
        Dipole field          0.0002 Ry au, 
 
        Potential amp.       -0.0184 Ry
        Total length         54.2615 bohr
 
 
     Adding external electric field

     Computed dipole along edir(3) : 
        Dipole                0.2745 Ry au,          0.6976 Debye
        Dipole field          0.0002 Ry au, 
 
        Potential amp.       -0.0184 Ry
        Total length         54.2615 bohr
 

     total cpu time spent up to now is      524.4 secs

     total energy              =   -7398.02947535 Ry
     estimated scf accuracy    <       0.00193259 Ry

     total magnetization       =    80.16 Bohr mag/cell
     absolute magnetization    =    81.62 Bohr mag/cell

     iteration # 35     ecut=    50.00 Ry     beta= 0.10
     Davidson diagonalization with overlap
     ethr =  1.79E-07,  avg # of iterations =  2.0

     negative rho (up, down):  4.675E-04 4.772E-04
 
     Adding external electric field

     Computed dipole along edir(3) : 
        Dipole                0.2900 Ry au,          0.7370 Debye
        Dipole field          0.0002 Ry au, 
 
        Potential amp.       -0.0195 Ry
        Total length         54.2615 bohr
 
 
     Adding external electric field

     Computed dipole along edir(3) : 
        Dipole                0.2900 Ry au,          0.7370 Debye
        Dipole field          0.0002 Ry au, 
 
        Potential amp.       -0.0195 Ry
        Total length         54.2615 bohr
 

     total cpu time spent up to now is      537.6 secs

     total energy              =   -7398.02965996 Ry
     estimated scf accuracy    <       0.00106586 Ry

     total magnetization       =    80.16 Bohr mag/cell
     absolute magnetization    =    81.63 Bohr mag/cell

     iteration # 36     ecut=    50.00 Ry     beta= 0.10
     Davidson diagonalization with overlap
     c_bands:  1 eigenvalues not converged
     ethr =  9.89E-08,  avg # of iterations = 11.0

     negative rho (up, down):  3.338E-04 3.433E-04
 
     Adding external electric field

     Computed dipole along edir(3) : 
        Dipole                0.2844 Ry au,          0.7229 Debye
        Dipole field          0.0002 Ry au, 
 
        Potential amp.       -0.0191 Ry
        Total length         54.2615 bohr
 
 
     Adding external electric field

     Computed dipole along edir(3) : 
        Dipole                0.2844 Ry au,          0.7229 Debye
        Dipole field          0.0002 Ry au, 
 
        Potential amp.       -0.0191 Ry
        Total length         54.2615 bohr
 

     total cpu time spent up to now is      554.9 secs

     total energy              =   -7398.02971608 Ry
     estimated scf accuracy    <       0.00075141 Ry

     total magnetization       =    80.14 Bohr mag/cell
     absolute magnetization    =    81.65 Bohr mag/cell

     iteration # 37     ecut=    50.00 Ry     beta= 0.10
     Davidson diagonalization with overlap
     ethr =  6.97E-08,  avg # of iterations =  2.0

     negative rho (up, down):  7.649E-05 5.940E-05
 
     Adding external electric field

     Computed dipole along edir(3) : 
        Dipole                0.2822 Ry au,          0.7174 Debye
        Dipole field          0.0002 Ry au, 
 
        Potential amp.       -0.0189 Ry
        Total length         54.2615 bohr
 
 
     Adding external electric field

     Computed dipole along edir(3) : 
        Dipole                0.2822 Ry au,          0.7174 Debye
        Dipole field          0.0002 Ry au, 
 
        Potential amp.       -0.0189 Ry
        Total length         54.2615 bohr
 

     total cpu time spent up to now is      567.5 secs

     total energy              =   -7398.02975545 Ry
     estimated scf accuracy    <       0.00054951 Ry

     total magnetization       =    80.13 Bohr mag/cell
     absolute magnetization    =    81.66 Bohr mag/cell

     iteration # 38     ecut=    50.00 Ry     beta= 0.10
     Davidson diagonalization with overlap
     ethr =  5.10E-08,  avg # of iterations =  2.0

     negative rho (up, down):  5.082E-05 3.281E-05
 
     Adding external electric field

     Computed dipole along edir(3) : 
        Dipole                0.2809 Ry au,          0.7139 Debye
        Dipole field          0.0002 Ry au, 
 
        Potential amp.       -0.0189 Ry
        Total length         54.2615 bohr
 
 
     Adding external electric field

     Computed dipole along edir(3) : 
        Dipole                0.2809 Ry au,          0.7139 Debye
        Dipole field          0.0002 Ry au, 
 
        Potential amp.       -0.0189 Ry
        Total length         54.2615 bohr
 

     total cpu time spent up to now is      580.6 secs

     total energy              =   -7398.02977463 Ry
     estimated scf accuracy    <       0.00036787 Ry

     total magnetization       =    80.12 Bohr mag/cell
     absolute magnetization    =    81.65 Bohr mag/cell

     iteration # 39     ecut=    50.00 Ry     beta= 0.10
     Davidson diagonalization with overlap
     ethr =  3.41E-08,  avg # of iterations =  1.0

     negative rho (up, down):  6.872E-05 3.379E-05
 
     Adding external electric field

     Computed dipole along edir(3) : 
        Dipole                0.2898 Ry au,          0.7367 Debye
        Dipole field          0.0002 Ry au, 
 
        Potential amp.       -0.0195 Ry
        Total length         54.2615 bohr
 
 
     Adding external electric field

     Computed dipole along edir(3) : 
        Dipole                0.2898 Ry au,          0.7367 Debye
        Dipole field          0.0002 Ry au, 
 
        Potential amp.       -0.0195 Ry
        Total length         54.2615 bohr
 

     total cpu time spent up to now is      591.7 secs

     total energy              =   -7398.02980008 Ry
     estimated scf accuracy    <       0.00032508 Ry

     total magnetization       =    80.12 Bohr mag/cell
     absolute magnetization    =    81.65 Bohr mag/cell

     iteration # 40     ecut=    50.00 Ry     beta= 0.10
     Davidson diagonalization with overlap
     ethr =  3.02E-08,  avg # of iterations =  2.0

     negative rho (up, down):  2.845E-04 1.981E-04
 
     Adding external electric field

     Computed dipole along edir(3) : 
        Dipole                0.3026 Ry au,          0.7692 Debye
        Dipole field          0.0002 Ry au, 
 
        Potential amp.       -0.0203 Ry
        Total length         54.2615 bohr
 
 
     Adding external electric field

     Computed dipole along edir(3) : 
        Dipole                0.3026 Ry au,          0.7692 Debye
        Dipole field          0.0002 Ry au, 
 
        Potential amp.       -0.0203 Ry
        Total length         54.2615 bohr
 

     total cpu time spent up to now is      605.1 secs

     total energy              =   -7398.02982948 Ry
     estimated scf accuracy    <       0.00025046 Ry

     total magnetization       =    80.12 Bohr mag/cell
     absolute magnetization    =    81.64 Bohr mag/cell

     iteration # 41     ecut=    50.00 Ry     beta= 0.10
     Davidson diagonalization with overlap
     ethr =  2.32E-08,  avg # of iterations =  1.5

     negative rho (up, down):  3.008E-04 1.310E-04
 
     Adding external electric field

     Computed dipole along edir(3) : 
        Dipole                0.2995 Ry au,          0.7613 Debye
        Dipole field          0.0002 Ry au, 
 
        Potential amp.       -0.0201 Ry
        Total length         54.2615 bohr
 
 
     Adding external electric field

     Computed dipole along edir(3) : 
        Dipole                0.2995 Ry au,          0.7613 Debye
        Dipole field          0.0002 Ry au, 
 
        Potential amp.       -0.0201 Ry
        Total length         54.2615 bohr
 

     total cpu time spent up to now is      617.2 secs

     total energy              =   -7398.02981974 Ry
     estimated scf accuracy    <       0.00023139 Ry

     total magnetization       =    80.12 Bohr mag/cell
     absolute magnetization    =    81.64 Bohr mag/cell

     iteration # 42     ecut=    50.00 Ry     beta= 0.10
     Davidson diagonalization with overlap
     ethr =  2.15E-08,  avg # of iterations =  2.0

     negative rho (up, down):  2.000E-04 4.875E-05
 
     Adding external electric field

     Computed dipole along edir(3) : 
        Dipole                0.2926 Ry au,          0.7436 Debye
        Dipole field          0.0002 Ry au, 
 
        Potential amp.       -0.0196 Ry
        Total length         54.2615 bohr
 
 
     Adding external electric field

     Computed dipole along edir(3) : 
        Dipole                0.2926 Ry au,          0.7436 Debye
        Dipole field          0.0002 Ry au, 
 
        Potential amp.       -0.0196 Ry
        Total length         54.2615 bohr
 

     total cpu time spent up to now is      629.5 secs

     total energy              =   -7398.02980633 Ry
     estimated scf accuracy    <       0.00017422 Ry

     total magnetization       =    80.13 Bohr mag/cell
     absolute magnetization    =    81.64 Bohr mag/cell

     iteration # 43     ecut=    50.00 Ry     beta= 0.10
     Davidson diagonalization with overlap
     ethr =  1.62E-08,  avg # of iterations =  1.5

     negative rho (up, down):  2.145E-04 4.217E-05
 
     Adding external electric field

     Computed dipole along edir(3) : 
        Dipole                0.2890 Ry au,          0.7346 Debye
        Dipole field          0.0002 Ry au, 
 
        Potential amp.       -0.0194 Ry
        Total length         54.2615 bohr
 
 
     Adding external electric field

     Computed dipole along edir(3) : 
        Dipole                0.2890 Ry au,          0.7346 Debye
        Dipole field          0.0002 Ry au, 
 
        Potential amp.       -0.0194 Ry
        Total length         54.2615 bohr
 

     total cpu time spent up to now is      641.3 secs

     total energy              =   -7398.02980020 Ry
     estimated scf accuracy    <       0.00015006 Ry

     total magnetization       =    80.13 Bohr mag/cell
     absolute magnetization    =    81.64 Bohr mag/cell

     iteration # 44     ecut=    50.00 Ry     beta= 0.10
     Davidson diagonalization with overlap
     ethr =  1.39E-08,  avg # of iterations =  2.0

     negative rho (up, down):  8.006E-04 4.123E-04
 
     Adding external electric field

     Computed dipole along edir(3) : 
        Dipole                0.3012 Ry au,          0.7655 Debye
        Dipole field          0.0002 Ry au, 
 
        Potential amp.       -0.0202 Ry
        Total length         54.2615 bohr
 
 
     Adding external electric field

     Computed dipole along edir(3) : 
        Dipole                0.3012 Ry au,          0.7655 Debye
        Dipole field          0.0002 Ry au, 
 
        Potential amp.       -0.0202 Ry
        Total length         54.2615 bohr
 

     total cpu time spent up to now is      653.8 secs

     total energy              =   -7398.02981505 Ry
     estimated scf accuracy    <       0.00012442 Ry

     total magnetization       =    80.13 Bohr mag/cell
     absolute magnetization    =    81.64 Bohr mag/cell

     iteration # 45     ecut=    50.00 Ry     beta= 0.10
     Davidson diagonalization with overlap
     ethr =  1.15E-08,  avg # of iterations =  2.0

     negative rho (up, down):  1.193E-03 7.860E-04
 
     Adding external electric field

     Computed dipole along edir(3) : 
        Dipole                0.3083 Ry au,          0.7835 Debye
        Dipole field          0.0002 Ry au, 
 
        Potential amp.       -0.0207 Ry
        Total length         54.2615 bohr
 
 
     Adding external electric field

     Computed dipole along edir(3) : 
        Dipole                0.3083 Ry au,          0.7835 Debye
        Dipole field          0.0002 Ry au, 
 
        Potential amp.       -0.0207 Ry
        Total length         54.2615 bohr
 

     total cpu time spent up to now is      666.5 secs

     total energy              =   -7398.02983698 Ry
     estimated scf accuracy    <       0.00006417 Ry

     total magnetization       =    80.13 Bohr mag/cell
     absolute magnetization    =    81.65 Bohr mag/cell

     iteration # 46     ecut=    50.00 Ry     beta= 0.10
     Davidson diagonalization with overlap
     ethr =  5.95E-09,  avg # of iterations =  2.0

     negative rho (up, down):  1.359E-03 9.654E-04
 
     Adding external electric field

     Computed dipole along edir(3) : 
        Dipole                0.3107 Ry au,          0.7896 Debye
        Dipole field          0.0002 Ry au, 
 
        Potential amp.       -0.0209 Ry
        Total length         54.2615 bohr
 
 
     Adding external electric field

     Computed dipole along edir(3) : 
        Dipole                0.3107 Ry au,          0.7896 Debye
        Dipole field          0.0002 Ry au, 
 
        Potential amp.       -0.0209 Ry
        Total length         54.2615 bohr
 

     total cpu time spent up to now is      679.5 secs

     total energy              =   -7398.02984302 Ry
     estimated scf accuracy    <       0.00002669 Ry

     total magnetization       =    80.13 Bohr mag/cell
     absolute magnetization    =    81.65 Bohr mag/cell

     iteration # 47     ecut=    50.00 Ry     beta= 0.10
     Davidson diagonalization with overlap
     ethr =  2.48E-09,  avg # of iterations =  2.0

     negative rho (up, down):  1.497E-03 1.121E-03
 
     Adding external electric field

     Computed dipole along edir(3) : 
        Dipole                0.3152 Ry au,          0.8011 Debye
        Dipole field          0.0002 Ry au, 
 
        Potential amp.       -0.0212 Ry
        Total length         54.2615 bohr
 
 
     Adding external electric field

     Computed dipole along edir(3) : 
        Dipole                0.3152 Ry au,          0.8011 Debye
        Dipole field          0.0002 Ry au, 
 
        Potential amp.       -0.0212 Ry
        Total length         54.2615 bohr
 

     total cpu time spent up to now is      692.0 secs

     total energy              =   -7398.02984526 Ry
     estimated scf accuracy    <       0.00002223 Ry

     total magnetization       =    80.13 Bohr mag/cell
     absolute magnetization    =    81.65 Bohr mag/cell

     iteration # 48     ecut=    50.00 Ry     beta= 0.10
     Davidson diagonalization with overlap
     ethr =  2.06E-09,  avg # of iterations =  2.0

     negative rho (up, down):  1.184E-03 7.905E-04
 
     Adding external electric field

     Computed dipole along edir(3) : 
        Dipole                0.3134 Ry au,          0.7966 Debye
        Dipole field          0.0002 Ry au, 
 
        Potential amp.       -0.0210 Ry
        Total length         54.2615 bohr
 
 
     Adding external electric field

     Computed dipole along edir(3) : 
        Dipole                0.3134 Ry au,          0.7966 Debye
        Dipole field          0.0002 Ry au, 
 
        Potential amp.       -0.0210 Ry
        Total length         54.2615 bohr
 

     total cpu time spent up to now is      704.8 secs

     total energy              =   -7398.02984307 Ry
     estimated scf accuracy    <       0.00001557 Ry

     total magnetization       =    80.13 Bohr mag/cell
     absolute magnetization    =    81.65 Bohr mag/cell

     iteration # 49     ecut=    50.00 Ry     beta= 0.10
     Davidson diagonalization with overlap
     ethr =  1.44E-09,  avg # of iterations =  2.0

     negative rho (up, down):  1.063E-03 6.852E-04
 
     Adding external electric field

     Computed dipole along edir(3) : 
        Dipole                0.3146 Ry au,          0.7997 Debye
        Dipole field          0.0002 Ry au, 
 
        Potential amp.       -0.0211 Ry
        Total length         54.2615 bohr
 
 
     Adding external electric field

     Computed dipole along edir(3) : 
        Dipole                0.3146 Ry au,          0.7997 Debye
        Dipole field          0.0002 Ry au, 
 
        Potential amp.       -0.0211 Ry
        Total length         54.2615 bohr
 

     total cpu time spent up to now is      717.4 secs

     total energy              =   -7398.02984182 Ry
     estimated scf accuracy    <       0.00001079 Ry

     total magnetization       =    80.12 Bohr mag/cell
     absolute magnetization    =    81.65 Bohr mag/cell

     iteration # 50     ecut=    50.00 Ry     beta= 0.10
     Davidson diagonalization with overlap
     ethr =  1.00E-09,  avg # of iterations =  2.0

     negative rho (up, down):  1.034E-03 6.514E-04
 
     Adding external electric field

     Computed dipole along edir(3) : 
        Dipole                0.3153 Ry au,          0.8015 Debye
        Dipole field          0.0002 Ry au, 
 
        Potential amp.       -0.0212 Ry
        Total length         54.2615 bohr
 
 
     Adding external electric field

     Computed dipole along edir(3) : 
        Dipole                0.3153 Ry au,          0.8015 Debye
        Dipole field          0.0002 Ry au, 
 
        Potential amp.       -0.0212 Ry
        Total length         54.2615 bohr
 

     total cpu time spent up to now is      729.7 secs

     total energy              =   -7398.02984129 Ry
     estimated scf accuracy    <       0.00000697 Ry

     total magnetization       =    80.12 Bohr mag/cell
     absolute magnetization    =    81.65 Bohr mag/cell

     iteration # 51     ecut=    50.00 Ry     beta= 0.10
     Davidson diagonalization with overlap
     ethr =  6.47E-10,  avg # of iterations =  2.0

     negative rho (up, down):  1.114E-03 7.242E-04
 
     Adding external electric field

     Computed dipole along edir(3) : 
        Dipole                0.3175 Ry au,          0.8070 Debye
        Dipole field          0.0002 Ry au, 
 
        Potential amp.       -0.0213 Ry
        Total length         54.2615 bohr
 
 
     Adding external electric field

     Computed dipole along edir(3) : 
        Dipole                0.3175 Ry au,          0.8070 Debye
        Dipole field          0.0002 Ry au, 
 
        Potential amp.       -0.0213 Ry
        Total length         54.2615 bohr
 

     total cpu time spent up to now is      742.1 secs

     total energy              =   -7398.02984213 Ry
     estimated scf accuracy    <       0.00000316 Ry

     total magnetization       =    80.12 Bohr mag/cell
     absolute magnetization    =    81.65 Bohr mag/cell

     iteration # 52     ecut=    50.00 Ry     beta= 0.10
     Davidson diagonalization with overlap
     ethr =  2.93E-10,  avg # of iterations =  2.0

     negative rho (up, down):  1.150E-03 7.668E-04
 
     Adding external electric field

     Computed dipole along edir(3) : 
        Dipole                0.3179 Ry au,          0.8080 Debye
        Dipole field          0.0002 Ry au, 
 
        Potential amp.       -0.0213 Ry
        Total length         54.2615 bohr
 
 
     Adding external electric field

     Computed dipole along edir(3) : 
        Dipole                0.3179 Ry au,          0.8080 Debye
        Dipole field          0.0002 Ry au, 
 
        Potential amp.       -0.0213 Ry
        Total length         54.2615 bohr
 

     total cpu time spent up to now is      755.1 secs

     total energy              =   -7398.02984261 Ry
     estimated scf accuracy    <       0.00000172 Ry

     total magnetization       =    80.12 Bohr mag/cell
     absolute magnetization    =    81.65 Bohr mag/cell

     iteration # 53     ecut=    50.00 Ry     beta= 0.10
     Davidson diagonalization with overlap
     ethr =  1.59E-10,  avg # of iterations =  2.0

     negative rho (up, down):  1.032E-03 6.480E-04
 
     Adding external electric field

     Computed dipole along edir(3) : 
        Dipole                0.3159 Ry au,          0.8029 Debye
        Dipole field          0.0002 Ry au, 
 
        Potential amp.       -0.0212 Ry
        Total length         54.2615 bohr
 
 
     Adding external electric field

     Computed dipole along edir(3) : 
        Dipole                0.3159 Ry au,          0.8029 Debye
        Dipole field          0.0002 Ry au, 
 
        Potential amp.       -0.0212 Ry
        Total length         54.2615 bohr
 

     total cpu time spent up to now is      768.3 secs

     total energy              =   -7398.02984179 Ry
     estimated scf accuracy    <       0.00000141 Ry

     total magnetization       =    80.12 Bohr mag/cell
     absolute magnetization    =    81.65 Bohr mag/cell

     iteration # 54     ecut=    50.00 Ry     beta= 0.10
     Davidson diagonalization with overlap
     ethr =  1.31E-10,  avg # of iterations =  2.0

     negative rho (up, down):  9.267E-04 5.471E-04
 
     Adding external electric field

     Computed dipole along edir(3) : 
        Dipole                0.3155 Ry au,          0.8019 Debye
        Dipole field          0.0002 Ry au, 
 
        Potential amp.       -0.0212 Ry
        Total length         54.2615 bohr
 
 
     Adding external electric field

     Computed dipole along edir(3) : 
        Dipole                0.3155 Ry au,          0.8019 Debye
        Dipole field          0.0002 Ry au, 
 
        Potential amp.       -0.0212 Ry
        Total length         54.2615 bohr
 
 
     Magnetic moment per site  (integrated on atomic sphere of radius R)
     atom   1 (R=0.087)  charge= 12.0072  magn=  3.6814
     atom   2 (R=0.080)  charge=  7.1111  magn=  1.5360
     atom   3 (R=0.080)  charge=  7.1314  magn=  1.4453
     atom   4 (R=0.080)  charge=  7.1096  magn=  1.5387
     atom   5 (R=0.080)  charge=  7.1322  magn=  1.4933
     atom   6 (R=0.080)  charge=  7.1274  magn=  1.5022
     atom   7 (R=0.080)  charge=  7.1322  magn=  1.4477
     atom   8 (R=0.080)  charge=  7.1124  magn=  1.5290
     atom   9 (R=0.080)  charge=  7.0774  magn=  1.6510
     atom  10 (R=0.080)  charge=  7.1105  magn=  1.5437
     atom  11 (R=0.080)  charge=  7.1267  magn=  1.4992
     atom  12 (R=0.080)  charge=  7.1280  magn=  1.4921
     atom  13 (R=0.065)  charge=  0.7300  magn=  0.0074
     atom  14 (R=0.065)  charge=  0.7266  magn=  0.0056
     atom  15 (R=0.065)  charge=  0.7274  magn=  0.0055
     atom  16 (R=0.065)  charge=  0.7279  magn=  0.0052
     atom  17 (R=0.044)  charge=  1.9958  magn=  0.0531
     atom  18 (R=0.044)  charge=  1.9920  magn=  0.0817
     atom  19 (R=0.044)  charge=  1.9925  magn=  0.0721
     atom  20 (R=0.044)  charge=  1.9928  magn=  0.0794
     atom  21 (R=0.044)  charge=  2.0007  magn=  0.0425
     atom  22 (R=0.044)  charge=  1.9938  magn=  0.0297
     atom  23 (R=0.044)  charge=  1.9892  magn=  0.0529
     atom  24 (R=0.044)  charge=  1.9979  magn=  0.0550
     atom  25 (R=0.044)  charge=  1.9979  magn=  0.0575
     atom  26 (R=0.044)  charge=  1.9978  magn=  0.0436
     atom  27 (R=0.044)  charge=  1.9946  magn=  0.0512
     atom  28 (R=0.044)  charge=  1.9970  magn=  0.0504
     atom  29 (R=0.044)  charge=  1.9980  magn=  0.0356
     atom  30 (R=0.044)  charge=  1.9961  magn=  0.0614
     atom  31 (R=0.044)  charge=  1.9975  magn=  0.0547
     atom  32 (R=0.044)  charge=  1.9968  magn=  0.0459
     atom  33 (R=0.065)  charge=  0.7287  magn=  0.0053
     atom  34 (R=0.065)  charge=  0.7266  magn=  0.0045
     atom  35 (R=0.065)  charge=  0.7264  magn=  0.0036
     atom  36 (R=0.065)  charge=  0.7273  magn=  0.0053
     atom  37 (R=0.044)  charge=  1.9928  magn=  0.0794
     atom  38 (R=0.044)  charge=  1.9900  magn=  0.0984
     atom  39 (R=0.044)  charge=  1.9895  magn=  0.0998
     atom  40 (R=0.044)  charge=  1.9897  magn=  0.0809
     atom  41 (R=0.044)  charge=  1.9989  magn=  0.0549
     atom  42 (R=0.044)  charge=  1.9895  magn=  0.0427
     atom  43 (R=0.044)  charge=  1.9915  magn=  0.0395
     atom  44 (R=0.044)  charge=  1.9999  magn=  0.0585
     atom  45 (R=0.044)  charge=  1.9932  magn=  0.0605
     atom  46 (R=0.044)  charge=  1.9946  magn=  0.0556
     atom  47 (R=0.044)  charge=  1.9989  magn=  0.0474
     atom  48 (R=0.044)  charge=  1.9958  magn=  0.0551
     atom  49 (R=0.044)  charge=  1.9996  magn=  0.0444
     atom  50 (R=0.044)  charge=  1.9945  magn=  0.0474
     atom  51 (R=0.044)  charge=  1.9947  magn=  0.0592
     atom  52 (R=0.044)  charge=  1.9981  magn=  0.0486
     atom  53 (R=0.087)  charge= 12.0530  magn=  3.8786
     atom  54 (R=0.080)  charge=  7.1125  magn=  1.5368
     atom  55 (R=0.080)  charge=  7.1118  magn=  1.5428
     atom  56 (R=0.080)  charge=  7.1130  magn=  1.5426
     atom  57 (R=0.080)  charge=  7.1391  magn=  1.5026
     atom  58 (R=0.080)  charge=  7.1305  magn=  1.5006
     atom  59 (R=0.080)  charge=  7.1126  magn=  1.5373
     atom  60 (R=0.080)  charge=  7.1145  magn=  1.5361
     atom  61 (R=0.080)  charge=  7.1109  magn=  1.5436
     atom  62 (R=0.080)  charge=  7.1146  magn=  1.5388
     atom  63 (R=0.080)  charge=  7.1354  magn=  1.4997
     atom  64 (R=0.080)  charge=  7.1320  magn=  1.5022
     atom  65 (R=0.065)  charge=  0.7503  magn=  0.0079
     atom  66 (R=0.065)  charge=  0.7285  magn=  0.0061
     atom  67 (R=0.065)  charge=  0.7479  magn=  0.0062
     atom  68 (R=0.065)  charge=  0.7366  magn=  0.0055
[...]
    -5.9472  -5.9285  -5.9215  -5.9008  -5.8880  -5.8531  -5.8135  -5.8077
    -5.7745  -5.7669  -5.7337  -5.7321  -5.7200  -5.6780  -5.6683  -5.6471
    -5.6395  -5.6275  -5.5990  -5.5892  -5.5766  -5.5580  -5.5248  -5.4798
    -5.4611  -5.4275  -5.3942  -5.3830  -5.3658  -5.3394  -5.3090  -5.2534
    -5.2323  -5.2000  -5.1797  -5.1638  -5.0957  -5.0689  -5.0294  -5.0000
    -4.9913  -4.9585  -4.9261  -4.9163  -4.8863  -4.8760  -4.8439  -4.8364
    -4.7764  -4.7466  -4.6945  -4.6886  -4.6517  -4.6153  -4.5836  -4.5350
    -4.5014  -4.4815  -4.4490  -4.4304  -4.4040  -4.3819  -4.3492  -4.3290
    -4.3196  -4.2599  -4.2093  -4.1791  -4.1654  -4.1220  -4.1012  -4.0922
    -4.0409  -4.0006  -3.9870  -3.9666  -3.9513  -3.9237  -3.8945  -3.8752
    -3.8332  -3.8274  -3.8079  -3.7830  -3.7728  -3.7208  -3.7103  -3.6972
    -3.6705  -3.6648  -3.6366  -3.6282  -3.6141  -3.5953  -3.5874  -3.5164
    -3.5114  -3.4998  -3.4915  -3.4722  -3.4603  -3.4570  -3.4238  -3.4181
    -3.3973  -3.3666  -3.3542  -3.3378  -3.3039  -3.2944  -3.2672  -3.2416
    -3.2275  -3.1976  -3.1947  -3.1526  -3.1449  -3.1324  -3.1140  -3.1070
    -3.0815  -3.0631  -3.0451  -3.0106  -2.9939  -2.9732  -2.9597  -2.9253
    -2.9050  -2.8906  -2.8701  -2.8475  -2.8248  -2.8166  -2.7864  -2.7693
    -2.7584  -2.7477  -2.7408  -2.7264  -2.7245  -2.7081  -2.7023  -2.6975
    -2.6556  -2.6481  -2.6304  -2.6161  -2.5984  -2.5871  -2.5623  -2.5582
    -2.5343  -2.5170  -2.4955  -2.4691  -2.4609  -2.4463  -2.4433  -2.4298
    -2.3873  -2.3799  -2.3627  -2.3500  -2.3177  -2.3028  -2.2701  -2.2598
    -2.2505  -2.2129  -2.2105  -2.1824  -2.1664  -2.1464  -2.1292  -2.1158
    -2.0850  -2.0724  -2.0535  -2.0401  -2.0320  -2.0148  -1.9873  -1.9661
    -1.9498  -1.9404  -1.9371  -1.9231  -1.8935  -1.8689  -1.8614  -1.8332
    -1.8127  -1.7939  -1.7675  -1.7474  -1.7431  -1.7297  -1.7073  -1.6795
    -1.6581  -1.6462  -1.6326  -1.6239  -1.5879  -1.5700  -1.5541  -1.5226
    -1.5093  -1.4917  -1.4863  -1.4629  -1.4385  -1.4181  -1.3919  -1.3776
    -1.3727  -1.3463  -1.3083  -1.2798  -1.2669  -1.2339  -1.2235  -1.2101
    -1.1410  -1.1317  -1.0695  -0.9831  -0.9510  -0.9332  -0.8475  -0.8339
    -0.7902  -0.7430  -0.7092  -0.4994  -0.3573  -0.3382  -0.2867  -0.1822
     0.1392   0.1609   0.1912   0.2296   0.2541   0.2627   0.2805   0.2933
     0.3112   0.3161   0.3411   0.3500   0.3565   0.3609   0.3739   0.3786
     0.3879   0.3910   0.4089   0.4147   0.4215   0.4251   0.4346   0.4459
     0.4468   0.4554   0.4653   0.4692   0.4746   0.4834   0.4846   0.4875
     0.5009   0.5152   0.5182   0.5248   0.5311   0.5351   0.5368   0.5499
     0.5614   0.5703   0.5767   0.5819   0.5846   0.5917   0.5995   0.6059
     0.6155   0.6368   0.6389   0.6404   0.6451   0.6540   0.6603   0.6680
     0.6754   0.6849   0.6879   0.6960   0.7066   0.7073   0.7091   0.7261
     0.7310   0.7434   0.7458   0.7585   0.7613   0.7688   0.7761   0.7799
     0.7822   0.8000   0.8152   0.8241   0.8396   0.8455   0.8637   0.8680
     0.8755   0.8881   0.8922   0.8980   0.9011   0.9128   0.9212   0.9269
     0.9364   0.9427   0.9514   0.9748   0.9757   1.0325   1.0346   1.0476
     1.1579   1.1916   1.6363   1.7137   1.7166   1.7196   1.7384   1.7487
     1.7695   1.8396   1.8833   1.9016   1.9257   1.9594   1.9683   1.9844
     2.0109   2.0303   2.0558   2.0662   2.0789   2.0805   2.0835   2.1414
     2.1568   2.1786   2.1899   2.2050   2.2285   2.2452   2.2602   2.2719
     2.2833   2.2882   2.3136   2.3188   2.3219   2.3337   2.3550   2.3591
     2.3673   2.3827   2.3907   2.4145   2.4273   2.4318   2.4596   2.4794
     2.4880   2.5210   2.5246   2.5262   2.5548   2.5683   2.5831   2.6150
     2.6203   2.6372   2.6522   2.6652   2.7095   2.7433   2.7580   2.8030
     2.8288   2.8575   2.8824   2.9052   2.9452   3.2884   3.3233   3.4828
     3.5950   3.8241   3.8863   3.9687   4.0311   4.0522   4.1129   4.5207
     4.6686   4.7925   4.9195   4.9321   4.9766   5.0810   5.4366   6.3403
     6.3860   6.5348   6.6062   6.7008   6.7621   6.8479   6.9063   6.9981
     7.0249   7.1051   7.1590   7.1951   7.3166   7.3490   7.3932   7.4548
     7.5514   7.5827   7.6359   7.6917   7.7183   7.7540   7.8255   7.8582
     7.8911   7.9477   7.9790   7.9981   8.0333   8.0588   8.0923   8.1332
     8.1544   8.1659   8.1962   8.2241   8.2672   8.2857   8.3112   8.3406
     8.3679   8.3822   8.4361   8.4771   8.4882   8.5092   8.5406   8.5478
     8.5621   8.5735   8.6045   8.6111   8.6342   8.6521   8.6795   8.6915
     8.7357   8.7478   8.7909   8.8138   8.8715   8.8773   8.9468

     the Fermi energy is     1.6044 ev

!    total energy              =   -7398.02984074 Ry
     estimated scf accuracy    <       0.00000068 Ry
     smearing contrib. (-TS)   =      -0.01674178 Ry
     internal energy E=F+TS    =   -7398.01309896 Ry

     The total energy is F=E-TS. E is the sum of the following terms:
     one-electron contribution =  -91635.29288790 Ry
     hartree contribution      =   46466.02516363 Ry
     xc contribution           =   -2260.28209485 Ry
     ewald contribution        =   40033.36920446 Ry
     Dispersion Correction     =      -1.83254585 Ry
     electric field correction =       0.00006155 Ry

     total magnetization       =    80.12 Bohr mag/cell
     absolute magnetization    =    81.65 Bohr mag/cell

     convergence has been achieved in  54 iterations

     negative rho (up, down):  9.267E-04 5.471E-04

     Forces acting on atoms (cartesian axes, Ry/au):

     atom    1 type  2   force =     0.00016307   -0.00073383   -0.00019130
     atom    2 type  1   force =     0.00000915    0.00038967   -0.00048009
     atom    3 type  1   force =    -0.00008775   -0.00002964   -0.00023119
     atom    4 type  1   force =     0.00009466   -0.00032425    0.00041886
     atom    5 type  1   force =     0.00029077   -0.00047314   -0.00052227
     atom    6 type  1   force =     0.00043861    0.00056151    0.00015931
     atom    7 type  1   force =     0.00024863    0.00027193   -0.00073800
     atom    8 type  1   force =     0.00000196    0.00065229    0.00000979
     atom    9 type  1   force =    -0.00212699   -0.00077097   -0.00276074
     atom   10 type  1   force =     0.00026359    0.00012917    0.00003669
     atom   11 type  1   force =     0.00000400    0.00008488   -0.00009426
     atom   12 type  1   force =     0.00003492   -0.00033626   -0.00015546
     atom   13 type  3   force =    -0.00054793   -0.00031504   -0.00002735
     atom   14 type  3   force =    -0.00010881   -0.00010741    0.00017491
     atom   15 type  3   force =    -0.00010176   -0.00023820   -0.00048985
     atom   16 type  3   force =     0.00020282    0.00033359   -0.00014017
     atom   17 type  4   force =    -0.00009038   -0.00001097    0.00021108
     atom   18 type  4   force =     0.00004958    0.00054168    0.00074161
     atom   19 type  4   force =     0.00016305    0.00079484    0.00017340
     atom   20 type  4   force =    -0.00051088   -0.00020836   -0.00025877
     atom   21 type  4   force =    -0.00005834    0.00019314    0.00010064
     atom   22 type  4   force =     0.00028129    0.00013948   -0.00077016
     atom   23 type  4   force =     0.00010987   -0.00012500   -0.00045362
     atom   24 type  4   force =     0.00007718    0.00060774   -0.00019416
     atom   25 type  4   force =    -0.00012646    0.00032915   -0.00048844
     atom   26 type  4   force =     0.00020141    0.00011570    0.00008954
     atom   27 type  4   force =     0.00024932   -0.00035127    0.00010479
     atom   28 type  4   force =     0.00004376    0.00036563    0.00023066
     atom   29 type  4   force =    -0.00028742   -0.00018393    0.00009261
     atom   30 type  4   force =    -0.00091799   -0.00012700   -0.00052916
     atom   31 type  4   force =     0.00003451   -0.00051054   -0.00005635
     atom   32 type  4   force =    -0.00005577    0.00034345    0.00022908
     atom   33 type  3   force =    -0.00015869    0.00002356    0.00008169
     atom   34 type  3   force =    -0.00022877   -0.00028575   -0.00020982
     atom   35 type  3   force =    -0.00029383    0.00018405   -0.00033118
     atom   36 type  3   force =    -0.00000196   -0.00021307   -0.00014509
     atom   37 type  4   force =    -0.00031176    0.00046020    0.00024433
     atom   38 type  4   force =     0.00020890    0.00042675    0.00034382
     atom   39 type  4   force =    -0.00029901    0.00002078   -0.00015212
     atom   40 type  4   force =    -0.00021947   -0.00021112   -0.00041839
     atom   41 type  4   force =    -0.00002600    0.00031766    0.00004923
     atom   42 type  4   force =    -0.00010392    0.00063380   -0.00038195
     atom   43 type  4   force =    -0.00004608    0.00008856    0.00015534
     atom   44 type  4   force =     0.00045428    0.00018621    0.00015046
     atom   45 type  4   force =    -0.00026828    0.00013501    0.00048997
     atom   46 type  4   force =     0.00026087    0.00047581   -0.00002221
     atom   47 type  4   force =     0.00016302    0.00027572    0.00015618
     atom   48 type  4   force =     0.00010449   -0.00002597    0.00024027
     atom   49 type  4   force =    -0.00030656    0.00063539   -0.00025652
     atom   50 type  4   force =     0.00032890    0.00007794   -0.00029876
     atom   51 type  4   force =    -0.00014367    0.00003218   -0.00014961
     atom   52 type  4   force =    -0.00051935   -0.00009838    0.00002814
     atom   53 type  2   force =     0.00219627   -0.00386740    0.00553447
     atom   54 type  1   force =     0.00505178   -0.00216172    0.00376272
     atom   55 type  1   force =     0.00732712   -0.00372750    0.00271137
     atom   56 type  1   force =    -0.00189367    0.01014588    0.00606410
     atom   57 type  1   force =     0.00022298    0.02303570    0.01474412
     atom   58 type  1   force =     0.00227906   -0.00329668   -0.00150685
     atom   59 type  1   force =     0.00135228   -0.00841009    0.00038881
     atom   60 type  1   force =    -0.00509318   -0.00182660    0.00459576
     atom   61 type  1   force =    -0.00126239   -0.00076490    0.00652483
     atom   62 type  1   force =    -0.00433462    0.00823811    0.00599911
     atom   63 type  1   force =    -0.01119632    0.02586513    0.01866008
     atom   64 type  1   force =    -0.00213034    0.00112939    0.00137134
     atom   65 type  3   force =     0.04607067   -0.11391300   -0.01086207
     atom   66 type  3   force =    -0.00011596   -0.00411044    0.00342405
     atom   67 type  3   force =    -0.03915471    0.12655289    0.01399837
     atom   68 type  3   force =     0.06277961   -0.00170432   -0.00348982
     atom   69 type  4   force =     0.01377079   -0.01825272    0.00378896
     atom   70 type  4   force =    -0.00090457    0.00286282   -0.00072354
     atom   71 type  4   force =    -0.00166589    0.00317918   -0.00583768
     atom   72 type  4   force =     0.00403330    0.00182799   -0.00054223
     atom   73 type  4   force =     0.00091868   -0.01142546    0.00297299
     atom   74 type  4   force =     0.00127089   -0.00094440   -0.00108988
     atom   75 type  4   force =    -0.00045535    0.01307267    0.00391128
     atom   76 type  4   force =     0.00830517    0.00526553    0.00925592
     atom   77 type  4   force =     0.00707245   -0.00258842    0.00162863
     atom   78 type  4   force =     0.04397788   -0.14224603   -0.00520084
     atom   79 type  4   force =     0.00178488    0.00196372    0.00142619
     atom   80 type  4   force =    -0.00000490    0.00224918   -0.00176592
     atom   81 type  4   force =     0.06706390    0.00047933   -0.00601609
     atom   82 type  4   force =     0.00065208    0.00122482   -0.00109045
     atom   83 type  4   force =    -0.03923262    0.13486510    0.00273035
     atom   84 type  4   force =    -0.00287986   -0.01101094   -0.00404682
     atom   85 type  3   force =     0.03998799   -0.12004478   -0.01847514
     atom   86 type  3   force =    -0.06275194   -0.00170569    0.00691137
     atom   87 type  3   force =    -0.04489958    0.12581412    0.01814826
     atom   88 type  3   force =    -0.00175584    0.00003724    0.00254448
     atom   89 type  4   force =     0.00906282   -0.01539360    0.00413568
     atom   90 type  4   force =    -0.00474208    0.00142596    0.00080603
     atom   91 type  4   force =    -0.00889978    0.00813582   -0.00640589
     atom   92 type  4   force =     0.00007744    0.00014568   -0.00046434
     atom   93 type  4   force =    -0.00175290   -0.00834670    0.00750559
     atom   94 type  4   force =    -0.00485669    0.00082753    0.00060060
     atom   95 type  4   force =    -0.00563224    0.01336941    0.00782874
     atom   96 type  4   force =     0.00413807    0.00519579    0.00963528
     atom   97 type  4   force =     0.00004577    0.00043744    0.00073043
     atom   98 type  4   force =     0.04035455   -0.14152021   -0.00479567
     atom   99 type  4   force =    -0.06675368    0.00006920    0.00643254
     atom  100 type  4   force =    -0.00179238    0.00326029   -0.00259584
     atom  101 type  4   force =     0.00006983    0.00093430   -0.00041203
     atom  102 type  4   force =    -0.00621483    0.00436473   -0.00071755
     atom  103 type  4   force =    -0.04027282    0.13339420    0.00434900
     atom  104 type  4   force =    -0.00698332   -0.00990689   -0.00513379
     atom  105 type  2   force =     0.00411360   -0.00653883   -0.01830938
     atom  106 type  1   force =     0.02815777    0.01432139    0.01166166
     atom  107 type  1   force =     0.00872363   -0.00609507   -0.01425345
     atom  108 type  1   force =    -0.02842207    0.02166030    0.01866182
     atom  109 type  1   force =     0.00508012    0.01607592    0.00928339
     atom  110 type  1   force =    -0.00255189   -0.00874708   -0.00687313
     atom  111 type  1   force =    -0.00087606   -0.00952730   -0.01162465
     atom  112 type  1   force =     0.02917520    0.01756088    0.01134480
     atom  113 type  1   force =    -0.00071980   -0.00495496   -0.01407687
     atom  114 type  1   force =    -0.02968715    0.02073161    0.01846166
     atom  115 type  1   force =    -0.00721427    0.01849598    0.01202401
     atom  116 type  1   force =    -0.00556167   -0.00435392   -0.00306844
     atom  117 type  3   force =     0.01425975   -0.17391605   -0.10882110
     atom  118 type  3   force =     0.00514237   -0.00849113   -0.01270577
     atom  119 type  3   force =    -0.04467012    0.12491932   -0.00190991
     atom  120 type  3   force =     0.09507624   -0.04105637   -0.07974329
     atom  121 type  4   force =     0.00612871   -0.01707337    0.03721732
     atom  122 type  4   force =    -0.00344845    0.00364764    0.00447310
     atom  123 type  4   force =    -0.00085346    0.00256706   -0.00287009
     atom  124 type  4   force =     0.00849015    0.00217721    0.02696392
     atom  125 type  4   force =     0.00987973   -0.01689802    0.01596884
     atom  126 type  4   force =    -0.00748272    0.00100005   -0.00304255
     atom  127 type  4   force =     0.00399637    0.00969649    0.00048916
     atom  128 type  4   force =    -0.00061843   -0.00109317    0.03019719
     atom  129 type  4   force =    -0.00766485    0.02550135    0.00120008
     atom  130 type  4   force =     0.04341556   -0.14593347   -0.00191646
     atom  131 type  4   force =    -0.01741071   -0.00039614    0.00286745
     atom  132 type  4   force =     0.00337843    0.00264933    0.00199158
     atom  133 type  4   force =     0.06971050    0.00367276   -0.00191802
     atom  134 type  4   force =     0.00094424    0.00363372    0.00271936
     atom  135 type  4   force =    -0.02755245    0.17222437    0.00607552
     atom  136 type  4   force =     0.01957359   -0.00860758    0.00401906
     atom  137 type  3   force =     0.00909575   -0.16688230   -0.09428237
     atom  138 type  3   force =    -0.06464003   -0.00210226   -0.00498804
     atom  139 type  3   force =    -0.04872156    0.11825130    0.00149930
     atom  140 type  3   force =     0.03144535   -0.04324037   -0.07371555
     atom  141 type  4   force =     0.00466281   -0.01330771    0.03212713
     atom  142 type  4   force =    -0.00543447   -0.00034417    0.00431192
     atom  143 type  4   force =    -0.00819485    0.00809491   -0.00353515
     atom  144 type  4   force =     0.00384026    0.00137909    0.02756081
     atom  145 type  4   force =     0.00691170   -0.01299847    0.03235317
     atom  146 type  4   force =    -0.00876121   -0.00176114   -0.00301064
     atom  147 type  4   force =     0.00034757    0.00989748    0.00267807
     atom  148 type  4   force =    -0.00791229    0.00121841    0.02911260
     atom  149 type  4   force =    -0.01315673    0.02940878    0.00051600
     atom  150 type  4   force =     0.03980873   -0.13835196   -0.00139743
     atom  151 type  4   force =    -0.08615635   -0.00173463    0.00916608
     atom  152 type  4   force =     0.00118824    0.00388325    0.00142125
     atom  153 type  4   force =    -0.00350150    0.00084625    0.00297281
     atom  154 type  4   force =    -0.00590508    0.00599386    0.00130378
     atom  155 type  4   force =    -0.02796337    0.16643492    0.00485714
     atom  156 type  4   force =     0.01055731   -0.00971806   -0.00136193
     atom  157 type  4   force =     0.00610756   -0.00085011    0.00452113
     atom  158 type  5   force =    -0.00289821    0.00268196   -0.00231132

     Total force =     0.671423     Total SCF correction =     0.003032
 
     init_run     :      7.79s CPU      8.71s WALL (       1 calls)
     electrons    :    734.27s CPU    765.68s WALL (       1 calls)
     forces       :      3.77s CPU      4.09s WALL (       1 calls)
     force_london :      0.09s CPU      0.09s WALL (       1 calls)

     Called by init_run:
     wfcinit      :      4.38s CPU      4.66s WALL (       1 calls)
     potinit      :      0.58s CPU      0.94s WALL (       1 calls)
     hinit0       :      1.66s CPU      1.77s WALL (       1 calls)

     Called by electrons:
     c_bands      :    579.30s CPU    597.33s WALL (      54 calls)
     sum_band     :     98.63s CPU    106.08s WALL (      54 calls)
     v_of_rho     :     11.19s CPU     11.99s WALL (      55 calls)
     newd         :     30.85s CPU     36.18s WALL (      55 calls)
     mix_rho      :     14.17s CPU     14.22s WALL (      54 calls)
     energy_londo :      0.09s CPU      0.09s WALL (       1 calls)

     Called by c_bands:
     init_us_2    :      1.21s CPU      1.25s WALL (     220 calls)
     init_us_2:cp :      1.21s CPU      1.25s WALL (     220 calls)
     regterg      :    568.87s CPU    586.60s WALL (     110 calls)

     Called by *egterg:
     rdiaghg      :    159.84s CPU    168.63s WALL (     502 calls)
     h_psi        :    209.74s CPU    213.89s WALL (     504 calls)
     s_psi        :     31.67s CPU     31.71s WALL (     504 calls)
     g_psi        :      0.23s CPU      0.23s WALL (     392 calls)

     Called by h_psi:
     h_psi:calbec :     58.31s CPU     61.72s WALL (     504 calls)
     vloc_psi     :    117.98s CPU    118.38s WALL (     504 calls)
     add_vuspsi   :     33.08s CPU     33.42s WALL (     504 calls)

     General routines
     calbec       :     85.85s CPU     91.01s WALL (     620 calls)
     fft          :     24.51s CPU     25.59s WALL (    1003 calls)
     ffts         :      8.64s CPU      8.65s WALL (    6683 calls)
     fftw         :    137.49s CPU    137.93s WALL (  184904 calls)
     interpolate  :      0.97s CPU      1.02s WALL (     110 calls)
 
     Parallel routines
 
     PWSCF        :  12m27.78s CPU  13m 5.34s WALL

 
   This run was terminated on:  21:18:33  19Nov2025            

=------------------------------------------------------------------------------=
   JOB DONE.
=------------------------------------------------------------------------------=
