
     Program PWSCF v.7.2 starts on 19Nov2025 at 19:42:51 

     This program is part of the open-source Quantum ESPRESSO suite
     for quantum simulation of materials; please cite
         "P. Giannozzi et al., J. Phys.:Condens. Matter 21 395502 (2009);
         "P. Giannozzi et al., J. Phys.:Condens. Matter 29 465901 (2017);
         "P. Giannozzi et al., J. Chem. Phys. 152 154105 (2020);
          URL http://www.quantum-espresso.org", 
     in publications or presentations arising from this work. More details at
     http://www.quantum-espresso.org/quote

     Parallel version (MPI), running on    64 processors

     MPI processes distributed on     4 nodes
     462103 MiB available memory on the printing compute node when the environment starts
 
     Reading input from PWINPUT_atm157_xm

     Current dimensions of program PWSCF are:
     Max number of different atomic species (ntypx) = 10
     Max number of k-points (npk) =  40000
     Max angular momentum in pseudopotentials (lmaxx) =  4
     Presently no symmetry can be used with electric field

     file Ni.pbe-n-rrkjus_psl.1.0.0.UPF: wavefunction(s)  3D renormalized
     file Mn.pbe-spn-rrkjus_psl.0.3.1.UPF: wavefunction(s)  3D renormalized
     file O.pbe-rrkjus.UPF: wavefunction(s)  2S renormalized
     file H.pbe-rrkjus.UPF: wavefunction(s)  1S renormalized

     gamma-point specific algorithms are used
 
     R & G space division:  proc/nbgrp/npool/nimage =      64
     Subspace diagonalization in iterative solution of the eigenvalue problem:
     one sub-group per band group will be used
     custom distributed-memory algorithm (size of sub-group:  6*  6 procs)

 
     Parallelization info
     --------------------
     sticks:   dense  smooth     PW     G-vecs:    dense   smooth      PW
     Min         208      82     20                59912    15118    1876
     Max         210      84     22                59974    15196    1926
     Sum       13399    5355   1345              3836275   970529  121367
 
     Using Slab Decomposition
 


     bravais-lattice index     =            0
     lattice parameter (alat)  =      17.7004  a.u.
     unit-cell volume          =   20319.7251 (a.u.)^3
     number of atoms/cell      =          158
     number of atomic types    =            5
     number of electrons       =      1078.00
     number of Kohn-Sham states=          647
     kinetic-energy cutoff     =      50.0000  Ry
     charge density cutoff     =     500.0000  Ry
     scf convergence threshold =      1.0E-06
     mixing beta               =       0.1000
     number of iterations used =            8  local-TF  mixing
     Exchange-correlation=  SLA  PW   PBE  PBE
                           (   1   4   3   4   0   0   0)

     celldm(1)=  17.700384  celldm(2)=   0.000000  celldm(3)=   0.000000
     celldm(4)=   0.000000  celldm(5)=   0.000000  celldm(6)=   0.000000

     crystal axes: (cart. coord. in units of alat)
               a(1) = (   1.000000   0.000000   0.000000 )  
               a(2) = (   0.000000   1.075730   0.000000 )  
               a(3) = (   0.000000   0.000000   3.406172 )  

     reciprocal axes: (cart. coord. in units 2 pi/alat)
               b(1) = (  1.000000  0.000000  0.000000 )  
               b(2) = (  0.000000  0.929602  0.000000 )  
               b(3) = (  0.000000  0.000000  0.293585 )  


     PseudoPot. # 1 for Ni read from file:
     ~/PSEUDO/Ni.pbe-n-rrkjus_psl.1.0.0.UPF
     MD5 check sum: Not computed, couldn't open file
     Pseudo is Ultrasoft + core correction, Zval = 10.0
     Generated using "atomic" code by A. Dal Corso  v.5.1.2
     Using radial grid of 1195 points,  6 beta functions with: 
                l(1) =   0
                l(2) =   0
                l(3) =   1
                l(4) =   1
                l(5) =   2
                l(6) =   2
     Q(r) pseudized with 0 coefficients 


     PseudoPot. # 2 for Mn read from file:
     ~/PSEUDO/Mn.pbe-spn-rrkjus_psl.0.3.1.UPF
     MD5 check sum: Not computed, couldn't open file
     Pseudo is Ultrasoft + core correction, Zval = 15.0
     Generated using &quot;atomic&quot; code by A. Dal Corso  v.6.2.2
     Using radial grid of 1187 points,  6 beta functions with: 
                l(1) =   0
                l(2) =   0
                l(3) =   1
                l(4) =   1
                l(5) =   2
                l(6) =   2
     Q(r) pseudized with 0 coefficients 


     PseudoPot. # 3 for P  read from file:
     ~/PSEUDO/P.pbe-n-rrkjus_psl.1.0.0.UPF
     MD5 check sum: Not computed, couldn't open file
     Pseudo is Ultrasoft + core correction, Zval =  5.0
     Generated using "atomic" code by A. Dal Corso  v.5.1
     Using radial grid of 1147 points,  6 beta functions with: 
                l(1) =   0
                l(2) =   0
                l(3) =   1
                l(4) =   1
                l(5) =   2
                l(6) =   2
     Q(r) pseudized with 0 coefficients 


     PseudoPot. # 4 for O  read from file:
     ~/PSEUDO/O.pbe-rrkjus.UPF
     MD5 check sum: Not computed, couldn't open file
     Pseudo is Ultrasoft, Zval =  6.0
     Generated by new atomic code, or converted to UPF format
     Using radial grid of 1269 points,  4 beta functions with: 
                l(1) =   0
                l(2) =   0
                l(3) =   1
                l(4) =   1
     Q(r) pseudized with 0 coefficients 


     PseudoPot. # 5 for H  read from file:
     ~/PSEUDO/H.pbe-rrkjus.UPF
     MD5 check sum: Not computed, couldn't open file
     Pseudo is Ultrasoft, Zval =  1.0
     Generated by new atomic code, or converted to UPF format
     Using radial grid of 1061 points,  2 beta functions with: 
                l(1) =   0
                l(2) =   0
     Q(r) pseudized with 0 coefficients 


     atomic species   valence    mass     pseudopotential
     Ni               10.00    58.69300     Ni( 1.00)
     Mn               15.00    54.93800     Mn( 1.00)
     P                 5.00    30.97300     P ( 1.00)
     O                 6.00    15.99900     O ( 1.00)
     H                 1.00     1.00790     H ( 1.00)

     Starting magnetic structure 
     atomic species   magnetization
     Ni              1.000
     Mn              1.000
     P               1.000
     O               1.000
     H               0.000

     No symmetry found



   Cartesian axes

     site n.     atom                  positions (alat units)
         1        Mn     tau(   1) = (   0.2514725   0.8403621   1.6922649  )
         2        Ni     tau(   2) = (   0.4981613   0.7732174   1.3698899  )
         3        Ni     tau(   3) = (   0.0016400   0.2965188   1.6763153  )
         4        Ni     tau(   4) = (   0.2604917   0.2384823   1.3674854  )
         5        Ni     tau(   5) = (   0.9976394   1.0763275   1.5332471  )
         6        Ni     tau(   6) = (   0.2562433   0.5373049   1.5311374  )
         7        Ni     tau(   7) = (   0.7534975   0.8335100   1.6761660  )
         8        Ni     tau(   8) = (   0.9915982   0.7733775   1.3721323  )
         9        Ni     tau(   9) = (   0.5140351   0.3046720   1.7065963  )
        10        Ni     tau(  10) = (   0.7602191   0.2367081   1.3680604  )
        11        Ni     tau(  11) = (   0.5007003   1.0777795   1.5342653  )
        12        Ni     tau(  12) = (   0.7546321   0.5336828   1.5343376  )
        13        P      tau(  13) = (   0.2114324   0.9730718   1.3787149  )
        14        P      tau(  14) = (   0.4677209   0.6466717   1.6883849  )
        15        P      tau(  15) = (   0.2879347   0.1165823   1.6895124  )
        16        P      tau(  16) = (   0.0433043   0.4322061   1.3717573  )
        17        O      tau(  17) = (   0.1354319   0.9024246   1.5162361  )
        18        O      tau(  18) = (   0.3901476   0.7094618   1.5447118  )
        19        O      tau(  19) = (   0.3653522   0.1703016   1.5451332  )
        20        O      tau(  20) = (   0.1220603   0.3621553   1.5078476  )
        21        O      tau(  21) = (   0.1483602   0.8811988   1.2566198  )
        22        O      tau(  22) = (   0.4071019   0.7461546   1.8042590  )
        23        O      tau(  23) = (   0.3454364   0.2138238   1.8062783  )
        24        O      tau(  24) = (   0.1034528   0.3447440   1.2451229  )
        25        O      tau(  25) = (   0.1022912   0.5877007   1.3760419  )
        26        O      tau(  26) = (   0.3424242   1.0329279   1.6966988  )
        27        O      tau(  27) = (   0.3794667   0.4262365   1.3824156  )
        28        O      tau(  28) = (   0.1224475   0.1157300   1.6781663  )
        29        O      tau(  29) = (   0.1306686   0.6530965   1.6813924  )
        30        O      tau(  30) = (   0.4060763   0.4924401   1.6874378  )
        31        O      tau(  31) = (   0.1505415   0.0512368   1.3772435  )
        32        O      tau(  32) = (   0.3750906   0.9649156   1.3868523  )
        33        P      tau(  33) = (   0.7107969   0.9709559   1.3722571  )
        34        P      tau(  34) = (   0.9650128   0.6455956   1.6946891  )
        35        P      tau(  35) = (   0.7894270   0.1050360   1.6939332  )
        36        P      tau(  36) = (   0.5438507   0.4295248   1.3733739  )
        37        O      tau(  37) = (   0.6327050   0.9000346   1.5082036  )
        38        O      tau(  38) = (   0.8878570   0.7057763   1.5484453  )
        39        O      tau(  39) = (   0.8648281   0.1699114   1.5490065  )
        40        O      tau(  40) = (   0.6200951   0.3574703   1.5092594  )
        41        O      tau(  41) = (   0.6501234   0.8827865   1.2460499  )
        42        O      tau(  42) = (   0.9049968   0.7432969   1.8094969  )
        43        O      tau(  43) = (   0.8531982   0.1989439   1.8109223  )
        44        O      tau(  44) = (   0.6040842   0.3418719   1.2462640  )
        45        O      tau(  45) = (   0.6050226   0.5845474   1.3766490  )
        46        O      tau(  46) = (   0.8468877   1.0236478   1.6902311  )
        47        O      tau(  47) = (   0.8794716   0.4244841   1.3846896  )
        48        O      tau(  48) = (   0.6245466   0.1082359   1.6834857  )
        49        O      tau(  49) = (   0.6319549   0.6522194   1.6764679  )
        50        O      tau(  50) = (   0.9116309   0.4875625   1.6930196  )
        51        O      tau(  51) = (   0.6514964   0.0501678   1.3760815  )
        52        O      tau(  52) = (   0.8747806   0.9631357   1.3846982  )
        53        Mn     tau(  53) = (   0.2404744   0.8246335   1.0701417  )
        54        Ni     tau(  54) = (   0.4968126   0.7601755   0.7454373  )
        55        Ni     tau(  55) = (   0.0066150   0.2811828   1.0628866  )
        56        Ni     tau(  56) = (   0.2585722   0.2230943   0.7421070  )
        57        Ni     tau(  57) = (   0.9987350   1.0571496   0.9014992  )
        58        Ni     tau(  58) = (   0.2517397   0.5205596   0.9040596  )
        59        Ni     tau(  59) = (   0.7451645   0.8212628   1.0648168  )
        60        Ni     tau(  60) = (   0.9939181   0.7613889   0.7462324  )
        61        Ni     tau(  61) = (   0.5111533   0.2799173   1.0618053  )
        62        Ni     tau(  62) = (   0.7606326   0.2194352   0.7418547  )
        63        Ni     tau(  63) = (   0.5024065   1.0563218   0.8999416  )
        64        Ni     tau(  64) = (   0.7529977   0.5192985   0.9024691  )
        65        P      tau(  65) = (   0.2092944   0.9606182   0.7524883  )
        66        P      tau(  66) = (   0.4655727   0.6234620   1.0595283  )
        67        P      tau(  67) = (   0.2910699   0.0902448   1.0573821  )
        68        P      tau(  68) = (   0.0396216   0.4163480   0.7471080  )
        69        O      tau(  69) = (   0.1294378   0.8888345   0.8859300  )
        70        O      tau(  70) = (   0.3874505   0.6929859   0.9232915  )
        71        O      tau(  71) = (   0.3702540   0.1589885   0.9209891  )
        72        O      tau(  72) = (   0.1184398   0.3458043   0.8831565  )
        73        O      tau(  73) = (   0.1451572   0.8725966   0.6282341  )
        74        O      tau(  74) = (   0.4048762   0.7120670   1.1852426  )
        75        O      tau(  75) = (   0.3523506   0.1775664   1.1834175  )
        76        O      tau(  76) = (   0.1017610   0.3285569   0.6213347  )
        77        O      tau(  77) = (   0.0975396   0.5724373   0.7511996  )
        78        O      tau(  78) = (   0.3483552   1.0190030   1.0599597  )
        79        O      tau(  79) = (   0.3784305   0.4100203   0.7560991  )
        80        O      tau(  80) = (   0.1268237   0.0943029   1.0477175  )
        81        O      tau(  81) = (   0.1212267   0.6299255   1.0507023  )
        82        O      tau(  82) = (   0.4053315   0.4684472   1.0569297  )
        83        O      tau(  83) = (   0.1536621   0.0322003   0.7496532  )
        84        O      tau(  84) = (   0.3732349   0.9506802   0.7613277  )
        85        P      tau(  85) = (   0.7119823   0.9571059   0.7496908  )
        86        P      tau(  86) = (   0.9615208   0.6238477   1.0606987  )
        87        P      tau(  87) = (   0.7927710   0.0845145   1.0577754  )
        88        P      tau(  88) = (   0.5426404   0.4144760   0.7459181  )
        89        O      tau(  89) = (   0.6326879   0.8866267   0.8856678  )
        90        O      tau(  90) = (   0.8842163   0.6958291   0.9244764  )
        91        O      tau(  91) = (   0.8716178   0.1552836   0.9216415  )
        92        O      tau(  92) = (   0.6212010   0.3433751   0.8818834  )
        93        O      tau(  93) = (   0.6507714   0.8687427   0.6238197  )
        94        O      tau(  94) = (   0.9014054   0.7139543   1.1859242  )
        95        O      tau(  95) = (   0.8548963   0.1722994   1.1834447  )
        96        O      tau(  96) = (   0.6044469   0.3253792   0.6209553  )
        97        O      tau(  97) = (   0.6024424   0.5698225   0.7490903  )
        98        O      tau(  98) = (   0.8498940   1.0129567   1.0594762  )
        99        O      tau(  99) = (   0.8798395   0.4080910   0.7564148  )
       100        O      tau( 100) = (   0.6286921   0.0909721   1.0472573  )
       101        O      tau( 101) = (   0.6294973   0.6302838   1.0497366  )
       102        O      tau( 102) = (   0.9024339   0.4685397   1.0573501  )
       103        O      tau( 103) = (   0.6547812   0.0286072   0.7473283  )
       104        O      tau( 104) = (   0.8760507   0.9507690   0.7605412  )
       105        Mn     tau( 105) = (   0.2404744   0.8121420   0.4502541  )
       106        Ni     tau( 106) = (   0.4968126   0.7476840   0.1255496  )
       107        Ni     tau( 107) = (   0.0066150   0.2686914   0.4429989  )
       108        Ni     tau( 108) = (   0.2585722   0.2106028   0.1222194  )
       109        Ni     tau( 109) = (   0.9987350   1.0446581   0.2816116  )
       110        Ni     tau( 110) = (   0.2517397   0.5080681   0.2841720  )
       111        Ni     tau( 111) = (   0.7451645   0.8087713   0.4449291  )
       112        Ni     tau( 112) = (   0.9939181   0.7488974   0.1263448  )
       113        Ni     tau( 113) = (   0.5111533   0.2674258   0.4419177  )
       114        Ni     tau( 114) = (   0.7606326   0.2069438   0.1219670  )
       115        Ni     tau( 115) = (   0.5024065   1.0438304   0.2800540  )
       116        Ni     tau( 116) = (   0.7529977   0.5068070   0.2825815  )
       117        P      tau( 117) = (   0.2092944   0.9481267   0.1326007  )
       118        P      tau( 118) = (   0.4655727   0.6109705   0.4396407  )
       119        P      tau( 119) = (   0.2910699   0.0777534   0.4374945  )
       120        P      tau( 120) = (   0.0396216   0.4038566   0.1272204  )
       121        O      tau( 121) = (   0.1294378   0.8763430   0.2660424  )
       122        O      tau( 122) = (   0.3874505   0.6804944   0.3034039  )
       123        O      tau( 123) = (   0.3702540   0.1464970   0.3011014  )
       124        O      tau( 124) = (   0.1184398   0.3333129   0.2632689  )
       125        O      tau( 125) = (   0.1451572   0.8601051   0.0083464  )
       126        O      tau( 126) = (   0.4048762   0.6995756   0.5653550  )
       127        O      tau( 127) = (   0.3523506   0.1650749   0.5635298  )
       128        O      tau( 128) = (   0.1017610   0.3160655   0.0014470  )
       129        O      tau( 129) = (   0.0975396   0.5599458   0.1313120  )
       130        O      tau( 130) = (   0.3483552   1.0065115   0.4400720  )
       131        O      tau( 131) = (   0.3784305   0.3975288   0.1362114  )
       132        O      tau( 132) = (   0.1268237   0.0818115   0.4278298  )
       133        O      tau( 133) = (   0.1212267   0.6174340   0.4308146  )
       134        O      tau( 134) = (   0.4053315   0.4559557   0.4370420  )
       135        O      tau( 135) = (   0.1536621   0.0197088   0.1297656  )
       136        O      tau( 136) = (   0.3732349   0.9381887   0.1414400  )
       137        P      tau( 137) = (   0.7119823   0.9446144   0.1298032  )
       138        P      tau( 138) = (   0.9615208   0.6113562   0.4408111  )
       139        P      tau( 139) = (   0.7927710   0.0720230   0.4378878  )
       140        P      tau( 140) = (   0.5426404   0.4019845   0.1260304  )
       141        O      tau( 141) = (   0.6326879   0.8741353   0.2657802  )
       142        O      tau( 142) = (   0.8842163   0.6833376   0.3045887  )
       143        O      tau( 143) = (   0.8716178   0.1427921   0.3017538  )
       144        O      tau( 144) = (   0.6212010   0.3308836   0.2619957  )
       145        O      tau( 145) = (   0.6507714   0.8562512   0.0039320  )
       146        O      tau( 146) = (   0.9014054   0.7014628   0.5660366  )
       147        O      tau( 147) = (   0.8548963   0.1598079   0.5635571  )
       148        O      tau( 148) = (   0.6044469   0.3128877   0.0010676  )
       149        O      tau( 149) = (   0.6024424   0.5573310   0.1292027  )
       150        O      tau( 150) = (   0.8498940   1.0004653   0.4395886  )
       151        O      tau( 151) = (   0.8798395   0.3955995   0.1365272  )
       152        O      tau( 152) = (   0.6286921   0.0784807   0.4273696  )
       153        O      tau( 153) = (   0.6294973   0.6177923   0.4298489  )
       154        O      tau( 154) = (   0.9024339   0.4560482   0.4374624  )
       155        O      tau( 155) = (   0.6547812   0.0161158   0.1274406  )
       156        O      tau( 156) = (   0.8760507   0.9382775   0.1406535  )
       157        O      tau( 157) = (   0.6238360   0.3860534   1.8440900  )
       158        H      tau( 158) = (   0.7081905   0.3257877   1.8689877  )

     -------------------------------------------------
     Parameters for Dispersion (Grimme-D2) Correction:
     -------------------------------------------------
       atom      VdW radius       C_6     

        Ni         2.952        374.666
        Mn         2.952        374.666
        P          3.222        271.980
        O          2.536         24.284
        H          1.892          4.857

     number of k points=     1  Gaussian smearing, width (Ry)=  0.0100
                       cart. coord. in units 2pi/alat
        k(    1) = (   0.0000000   0.0000000   0.0000000), wk =   1.0000000

     Dense  grid:  1918138 G-vectors     FFT dimensions: ( 125, 135, 432)

     Smooth grid:   485265 G-vectors     FFT dimensions: (  80,  90, 288)

     Estimated max dynamical RAM per process >     320.12 MB

     Estimated total dynamical RAM >      20.01 GB
     Generating pointlists ...
     new r_m :   0.0800 (alat units)  1.4155 (a.u.) for type    1
     new r_m :   0.0869 (alat units)  1.5388 (a.u.) for type    2
     new r_m :   0.0650 (alat units)  1.1499 (a.u.) for type    3
     new r_m :   0.0440 (alat units)  0.7785 (a.u.) for type    4
     new r_m :   0.0440 (alat units)  0.7785 (a.u.) for type    5

     Initial potential from superposition of free atoms

     starting charge    1077.8900, renormalised to    1078.0000

     negative rho (up, down):  1.224E-03 4.542E-04
 
     Adding external electric field

     Computed dipole along edir(3) : 
        Dipole                1.6256 Ry au,          4.1319 Debye
        Dipole field          0.0010 Ry au, 
 
        Potential amp.       -0.1091 Ry
        Total length         54.2615 bohr
 
 
     Adding external electric field

     Computed dipole along edir(3) : 
        Dipole                1.6256 Ry au,          4.1319 Debye
        Dipole field          0.0010 Ry au, 
 
        Potential amp.       -0.1091 Ry
        Total length         54.2615 bohr
 
     Starting wfcs are  812 randomized atomic wfcs

     total cpu time spent up to now is       10.7 secs

     Self-consistent Calculation

     iteration #  1     ecut=    50.00 Ry     beta= 0.10
     Davidson diagonalization with overlap
     ethr =  1.00E-02,  avg # of iterations =  6.0

     negative rho (up, down):  3.432E-01 2.050E-06
 
     Adding external electric field

     Computed dipole along edir(3) : 
        Dipole               -3.3475 Ry au,         -8.5085 Debye
        Dipole field         -0.0021 Ry au, 
 
        Potential amp.        0.2247 Ry
        Total length         54.2615 bohr
 
 
     Adding external electric field

     Computed dipole along edir(3) : 
        Dipole               -3.3475 Ry au,         -8.5085 Debye
        Dipole field         -0.0021 Ry au, 
 
        Potential amp.        0.2247 Ry
        Total length         54.2615 bohr
 

     total cpu time spent up to now is       38.9 secs

     total energy              =   -7179.79222134 Ry
     estimated scf accuracy    <     749.76349664 Ry

     total magnetization       =   216.00 Bohr mag/cell
     absolute magnetization    =   296.84 Bohr mag/cell

     iteration #  2     ecut=    50.00 Ry     beta= 0.10
     Davidson diagonalization with overlap
     ethr =  1.00E-02,  avg # of iterations =  2.0

     negative rho (up, down):  3.185E-01 2.033E-06
 
     Adding external electric field

     Computed dipole along edir(3) : 
        Dipole               -2.3904 Ry au,         -6.0758 Debye
        Dipole field         -0.0015 Ry au, 
 
        Potential amp.        0.1604 Ry
        Total length         54.2615 bohr
 
 
     Adding external electric field

     Computed dipole along edir(3) : 
        Dipole               -2.3904 Ry au,         -6.0758 Debye
        Dipole field         -0.0015 Ry au, 
 
        Potential amp.        0.1604 Ry
        Total length         54.2615 bohr
 

     total cpu time spent up to now is       55.5 secs

     total energy              =   -7263.90073244 Ry
     estimated scf accuracy    <     173.03406574 Ry

     total magnetization       =   146.26 Bohr mag/cell
     absolute magnetization    =   197.33 Bohr mag/cell

     iteration #  3     ecut=    50.00 Ry     beta= 0.10
     Davidson diagonalization with overlap
     ethr =  1.00E-02,  avg # of iterations =  1.5

     negative rho (up, down):  2.761E-01 1.245E-06
 
     Adding external electric field

     Computed dipole along edir(3) : 
        Dipole               -1.9594 Ry au,         -4.9802 Debye
        Dipole field         -0.0012 Ry au, 
 
        Potential amp.        0.1315 Ry
        Total length         54.2615 bohr
 
 
     Adding external electric field

     Computed dipole along edir(3) : 
        Dipole               -1.9594 Ry au,         -4.9802 Debye
        Dipole field         -0.0012 Ry au, 
 
        Potential amp.        0.1315 Ry
        Total length         54.2615 bohr
 

     total cpu time spent up to now is       69.0 secs

     total energy              =   -7296.67948522 Ry
     estimated scf accuracy    <      97.78710799 Ry

     total magnetization       =   122.86 Bohr mag/cell
     absolute magnetization    =   177.35 Bohr mag/cell

     iteration #  4     ecut=    50.00 Ry     beta= 0.10
     Davidson diagonalization with overlap
     ethr =  9.07E-03,  avg # of iterations =  1.5

     negative rho (up, down):  2.047E-01 1.010E-07
 
     Adding external electric field

     Computed dipole along edir(3) : 
        Dipole               -2.0075 Ry au,         -5.1026 Debye
        Dipole field         -0.0012 Ry au, 
 
        Potential amp.        0.1347 Ry
        Total length         54.2615 bohr
 
 
     Adding external electric field

     Computed dipole along edir(3) : 
        Dipole               -2.0075 Ry au,         -5.1026 Debye
        Dipole field         -0.0012 Ry au, 
 
        Potential amp.        0.1347 Ry
        Total length         54.2615 bohr
 

     total cpu time spent up to now is       81.6 secs

     total energy              =   -7329.08835249 Ry
     estimated scf accuracy    <      76.97300355 Ry

     total magnetization       =   106.98 Bohr mag/cell
     absolute magnetization    =   162.57 Bohr mag/cell

     iteration #  5     ecut=    50.00 Ry     beta= 0.10
     Davidson diagonalization with overlap
     ethr =  7.14E-03,  avg # of iterations =  1.0

     negative rho (up, down):  6.371E-03 4.212E-08
 
     Adding external electric field

     Computed dipole along edir(3) : 
        Dipole               -1.4082 Ry au,         -3.5792 Debye
        Dipole field         -0.0009 Ry au, 
 
        Potential amp.        0.0945 Ry
        Total length         54.2615 bohr
 
 
     Adding external electric field

     Computed dipole along edir(3) : 
        Dipole               -1.4082 Ry au,         -3.5792 Debye
        Dipole field         -0.0009 Ry au, 
 
        Potential amp.        0.0945 Ry
        Total length         54.2615 bohr
 

     total cpu time spent up to now is       92.5 secs

     total energy              =   -7386.96223213 Ry
     estimated scf accuracy    <      60.31261514 Ry

     total magnetization       =    88.00 Bohr mag/cell
     absolute magnetization    =   145.08 Bohr mag/cell

     iteration #  6     ecut=    50.00 Ry     beta= 0.10
     Davidson diagonalization with overlap
     ethr =  5.59E-03,  avg # of iterations =  1.5

     negative rho (up, down):  2.283E-04 1.093E-04
 
     Adding external electric field

     Computed dipole along edir(3) : 
        Dipole               -0.9896 Ry au,         -2.5153 Debye
        Dipole field         -0.0006 Ry au, 
 
        Potential amp.        0.0664 Ry
        Total length         54.2615 bohr
 
 
     Adding external electric field

     Computed dipole along edir(3) : 
        Dipole               -0.9896 Ry au,         -2.5153 Debye
        Dipole field         -0.0006 Ry au, 
 
        Potential amp.        0.0664 Ry
        Total length         54.2615 bohr
 

     total cpu time spent up to now is      104.5 secs

     total energy              =   -7395.64538912 Ry
     estimated scf accuracy    <      10.55309777 Ry

     total magnetization       =    81.32 Bohr mag/cell
     absolute magnetization    =   114.16 Bohr mag/cell

     iteration #  7     ecut=    50.00 Ry     beta= 0.10
     Davidson diagonalization with overlap
     ethr =  9.79E-04,  avg # of iterations =  4.5

     negative rho (up, down):  2.273E-04 1.050E-04
 
     Adding external electric field

     Computed dipole along edir(3) : 
        Dipole               -0.9818 Ry au,         -2.4955 Debye
        Dipole field         -0.0006 Ry au, 
 
        Potential amp.        0.0659 Ry
        Total length         54.2615 bohr
 
 
     Adding external electric field

     Computed dipole along edir(3) : 
        Dipole               -0.9818 Ry au,         -2.4955 Debye
        Dipole field         -0.0006 Ry au, 
 
        Potential amp.        0.0659 Ry
        Total length         54.2615 bohr
 

     total cpu time spent up to now is      124.0 secs

     total energy              =   -7397.65762307 Ry
     estimated scf accuracy    <      13.18649370 Ry

     total magnetization       =    71.01 Bohr mag/cell
     absolute magnetization    =    88.42 Bohr mag/cell

     iteration #  8     ecut=    50.00 Ry     beta= 0.10
     Davidson diagonalization with overlap
     ethr =  9.79E-04,  avg # of iterations =  1.0

     negative rho (up, down):  2.274E-04 1.010E-04
 
     Adding external electric field

     Computed dipole along edir(3) : 
        Dipole               -0.9822 Ry au,         -2.4966 Debye
        Dipole field         -0.0006 Ry au, 
 
        Potential amp.        0.0659 Ry
        Total length         54.2615 bohr
 
 
     Adding external electric field

     Computed dipole along edir(3) : 
        Dipole               -0.9822 Ry au,         -2.4966 Debye
        Dipole field         -0.0006 Ry au, 
 
        Potential amp.        0.0659 Ry
        Total length         54.2615 bohr
 

     total cpu time spent up to now is      135.1 secs

     total energy              =   -7397.68488282 Ry
     estimated scf accuracy    <      13.05496816 Ry

     total magnetization       =    71.07 Bohr mag/cell
     absolute magnetization    =    88.29 Bohr mag/cell

     iteration #  9     ecut=    50.00 Ry     beta= 0.10
     Davidson diagonalization with overlap
     ethr =  9.79E-04,  avg # of iterations =  1.0

     negative rho (up, down):  1.690E-04 8.244E-05
 
     Adding external electric field

     Computed dipole along edir(3) : 
        Dipole               -0.8529 Ry au,         -2.1678 Debye
        Dipole field         -0.0005 Ry au, 
 
        Potential amp.        0.0572 Ry
        Total length         54.2615 bohr
 
 
     Adding external electric field

     Computed dipole along edir(3) : 
        Dipole               -0.8529 Ry au,         -2.1678 Debye
        Dipole field         -0.0005 Ry au, 
 
        Potential amp.        0.0572 Ry
        Total length         54.2615 bohr
 

     total cpu time spent up to now is      146.8 secs

     total energy              =   -7397.58199259 Ry
     estimated scf accuracy    <      13.08305565 Ry

     total magnetization       =    71.07 Bohr mag/cell
     absolute magnetization    =    87.99 Bohr mag/cell

     iteration # 10     ecut=    50.00 Ry     beta= 0.10
     Davidson diagonalization with overlap
     ethr =  9.79E-04,  avg # of iterations =  1.0

     negative rho (up, down):  1.595E-04 2.132E-04
 
     Adding external electric field

     Computed dipole along edir(3) : 
        Dipole               -0.6724 Ry au,         -1.7091 Debye
        Dipole field         -0.0004 Ry au, 
 
        Potential amp.        0.0451 Ry
        Total length         54.2615 bohr
 
 
     Adding external electric field

     Computed dipole along edir(3) : 
        Dipole               -0.6724 Ry au,         -1.7091 Debye
        Dipole field         -0.0004 Ry au, 
 
        Potential amp.        0.0451 Ry
        Total length         54.2615 bohr
 

     total cpu time spent up to now is      158.1 secs

     total energy              =   -7397.58979038 Ry
     estimated scf accuracy    <      10.15153601 Ry

     total magnetization       =    71.93 Bohr mag/cell
     absolute magnetization    =    88.33 Bohr mag/cell

     iteration # 11     ecut=    50.00 Ry     beta= 0.10
     Davidson diagonalization with overlap
     ethr =  9.42E-04,  avg # of iterations =  1.5

     negative rho (up, down):  1.861E-04 4.254E-04
 
     Adding external electric field

     Computed dipole along edir(3) : 
        Dipole               -0.5111 Ry au,         -1.2990 Debye
        Dipole field         -0.0003 Ry au, 
 
        Potential amp.        0.0343 Ry
        Total length         54.2615 bohr
 
 
     Adding external electric field

     Computed dipole along edir(3) : 
        Dipole               -0.5111 Ry au,         -1.2990 Debye
        Dipole field         -0.0003 Ry au, 
 
        Potential amp.        0.0343 Ry
        Total length         54.2615 bohr
 

     total cpu time spent up to now is      170.3 secs

     total energy              =   -7397.57189777 Ry
     estimated scf accuracy    <       7.92694263 Ry

     total magnetization       =    72.00 Bohr mag/cell
     absolute magnetization    =    87.21 Bohr mag/cell

     iteration # 12     ecut=    50.00 Ry     beta= 0.10
     Davidson diagonalization with overlap
     ethr =  7.35E-04,  avg # of iterations =  1.5

     negative rho (up, down):  8.606E-04 1.647E-03
 
     Adding external electric field

     Computed dipole along edir(3) : 
        Dipole               -0.2477 Ry au,         -0.6296 Debye
        Dipole field         -0.0002 Ry au, 
 
        Potential amp.        0.0166 Ry
        Total length         54.2615 bohr
 
 
     Adding external electric field

     Computed dipole along edir(3) : 
        Dipole               -0.2477 Ry au,         -0.6296 Debye
        Dipole field         -0.0002 Ry au, 
 
        Potential amp.        0.0166 Ry
        Total length         54.2615 bohr
 

     total cpu time spent up to now is      182.6 secs

     total energy              =   -7397.49592264 Ry
     estimated scf accuracy    <       6.42842883 Ry

     total magnetization       =    72.33 Bohr mag/cell
     absolute magnetization    =    86.39 Bohr mag/cell

     iteration # 13     ecut=    50.00 Ry     beta= 0.10
     Davidson diagonalization with overlap
     ethr =  5.96E-04,  avg # of iterations =  1.5

     negative rho (up, down):  1.045E-03 1.946E-03
 
     Adding external electric field

     Computed dipole along edir(3) : 
        Dipole               -0.2368 Ry au,         -0.6019 Debye
        Dipole field         -0.0001 Ry au, 
 
        Potential amp.        0.0159 Ry
        Total length         54.2615 bohr
 
 
     Adding external electric field

     Computed dipole along edir(3) : 
        Dipole               -0.2368 Ry au,         -0.6019 Debye
        Dipole field         -0.0001 Ry au, 
 
        Potential amp.        0.0159 Ry
        Total length         54.2615 bohr
 

     total cpu time spent up to now is      194.8 secs

     total energy              =   -7397.54197271 Ry
     estimated scf accuracy    <       4.35022719 Ry

     total magnetization       =    75.55 Bohr mag/cell
     absolute magnetization    =    87.98 Bohr mag/cell

     iteration # 14     ecut=    50.00 Ry     beta= 0.10
     Davidson diagonalization with overlap
     ethr =  4.04E-04,  avg # of iterations =  1.5

     negative rho (up, down):  6.852E-03 6.822E-03
 
     Adding external electric field

     Computed dipole along edir(3) : 
        Dipole               -0.0773 Ry au,         -0.1966 Debye
        Dipole field         -0.0000 Ry au, 
 
        Potential amp.        0.0052 Ry
        Total length         54.2615 bohr
 
 
     Adding external electric field

     Computed dipole along edir(3) : 
        Dipole               -0.0773 Ry au,         -0.1966 Debye
        Dipole field         -0.0000 Ry au, 
 
        Potential amp.        0.0052 Ry
        Total length         54.2615 bohr
 

     total cpu time spent up to now is      207.5 secs

     total energy              =   -7397.55376414 Ry
     estimated scf accuracy    <       4.23534551 Ry

     total magnetization       =    75.78 Bohr mag/cell
     absolute magnetization    =    88.03 Bohr mag/cell

     iteration # 15     ecut=    50.00 Ry     beta= 0.10
     Davidson diagonalization with overlap
     ethr =  3.93E-04,  avg # of iterations =  2.0

     negative rho (up, down):  7.922E-03 8.375E-03
 
     Adding external electric field

     Computed dipole along edir(3) : 
        Dipole                0.0099 Ry au,          0.0253 Debye
        Dipole field          0.0000 Ry au, 
 
        Potential amp.       -0.0007 Ry
        Total length         54.2615 bohr
 
 
     Adding external electric field

     Computed dipole along edir(3) : 
        Dipole                0.0099 Ry au,          0.0253 Debye
        Dipole field          0.0000 Ry au, 
 
        Potential amp.       -0.0007 Ry
        Total length         54.2615 bohr
 

     total cpu time spent up to now is      220.5 secs

     total energy              =   -7397.64500858 Ry
     estimated scf accuracy    <       5.07375894 Ry

     total magnetization       =    77.71 Bohr mag/cell
     absolute magnetization    =    89.86 Bohr mag/cell

     iteration # 16     ecut=    50.00 Ry     beta= 0.10
     Davidson diagonalization with overlap
     ethr =  3.93E-04,  avg # of iterations =  1.0

     negative rho (up, down):  9.570E-03 7.877E-03
 
     Adding external electric field

     Computed dipole along edir(3) : 
        Dipole               -0.0071 Ry au,         -0.0180 Debye
        Dipole field         -0.0000 Ry au, 
 
        Potential amp.        0.0005 Ry
        Total length         54.2615 bohr
 
 
     Adding external electric field

     Computed dipole along edir(3) : 
        Dipole               -0.0071 Ry au,         -0.0180 Debye
        Dipole field         -0.0000 Ry au, 
 
        Potential amp.        0.0005 Ry
        Total length         54.2615 bohr
 

     total cpu time spent up to now is      231.7 secs

     total energy              =   -7397.61127259 Ry
     estimated scf accuracy    <       6.75244597 Ry

     total magnetization       =    77.35 Bohr mag/cell
     absolute magnetization    =    89.32 Bohr mag/cell

     iteration # 17     ecut=    50.00 Ry     beta= 0.10
     Davidson diagonalization with overlap
     ethr =  3.93E-04,  avg # of iterations =  2.0

     negative rho (up, down):  7.138E-03 1.159E-02
 
     Adding external electric field

     Computed dipole along edir(3) : 
        Dipole                0.0508 Ry au,          0.1292 Debye
        Dipole field          0.0000 Ry au, 
 
        Potential amp.       -0.0034 Ry
        Total length         54.2615 bohr
 
 
     Adding external electric field

     Computed dipole along edir(3) : 
        Dipole                0.0508 Ry au,          0.1292 Debye
        Dipole field          0.0000 Ry au, 
 
        Potential amp.       -0.0034 Ry
        Total length         54.2615 bohr
 

     total cpu time spent up to now is      244.6 secs

     total energy              =   -7397.50987787 Ry
     estimated scf accuracy    <       7.27132710 Ry

     total magnetization       =    77.82 Bohr mag/cell
     absolute magnetization    =    90.30 Bohr mag/cell

     iteration # 18     ecut=    50.00 Ry     beta= 0.10
     Davidson diagonalization with overlap
     ethr =  3.93E-04,  avg # of iterations =  2.0

     negative rho (up, down):  3.636E-03 7.749E-03
 
     Adding external electric field

     Computed dipole along edir(3) : 
        Dipole               -0.2724 Ry au,         -0.6924 Debye
        Dipole field         -0.0002 Ry au, 
 
        Potential amp.        0.0183 Ry
        Total length         54.2615 bohr
 
 
     Adding external electric field

     Computed dipole along edir(3) : 
        Dipole               -0.2724 Ry au,         -0.6924 Debye
        Dipole field         -0.0002 Ry au, 
 
        Potential amp.        0.0183 Ry
        Total length         54.2615 bohr
 

     total cpu time spent up to now is      258.0 secs

     total energy              =   -7397.53409379 Ry
     estimated scf accuracy    <      11.28743245 Ry

     total magnetization       =    78.61 Bohr mag/cell
     absolute magnetization    =    88.69 Bohr mag/cell

     iteration # 19     ecut=    50.00 Ry     beta= 0.10
     Davidson diagonalization with overlap
     ethr =  3.93E-04,  avg # of iterations =  1.5

     negative rho (up, down):  6.318E-03 1.205E-02
 
     Adding external electric field

     Computed dipole along edir(3) : 
        Dipole               -0.2654 Ry au,         -0.6746 Debye
        Dipole field         -0.0002 Ry au, 
 
        Potential amp.        0.0178 Ry
        Total length         54.2615 bohr
 
 
     Adding external electric field

     Computed dipole along edir(3) : 
        Dipole               -0.2654 Ry au,         -0.6746 Debye
        Dipole field         -0.0002 Ry au, 
 
        Potential amp.        0.0178 Ry
        Total length         54.2615 bohr
 

     total cpu time spent up to now is      270.4 secs

     total energy              =   -7397.59518050 Ry
     estimated scf accuracy    <       4.16535238 Ry

     total magnetization       =    76.59 Bohr mag/cell
     absolute magnetization    =    86.64 Bohr mag/cell

     iteration # 20     ecut=    50.00 Ry     beta= 0.10
     Davidson diagonalization with overlap
     ethr =  3.86E-04,  avg # of iterations =  1.5

     negative rho (up, down):  4.368E-03 8.994E-03
 
     Adding external electric field

     Computed dipole along edir(3) : 
        Dipole               -0.4301 Ry au,         -1.0933 Debye
        Dipole field         -0.0003 Ry au, 
 
        Potential amp.        0.0289 Ry
        Total length         54.2615 bohr
 
 
     Adding external electric field

     Computed dipole along edir(3) : 
        Dipole               -0.4301 Ry au,         -1.0933 Debye
        Dipole field         -0.0003 Ry au, 
 
        Potential amp.        0.0289 Ry
        Total length         54.2615 bohr
 

     total cpu time spent up to now is      281.5 secs

     total energy              =   -7397.73956697 Ry
     estimated scf accuracy    <       1.32009788 Ry

     total magnetization       =    79.42 Bohr mag/cell
     absolute magnetization    =    87.82 Bohr mag/cell

     iteration # 21     ecut=    50.00 Ry     beta= 0.10
     Davidson diagonalization with overlap
     ethr =  1.22E-04,  avg # of iterations =  2.0

     negative rho (up, down):  5.506E-03 8.261E-03
 
     Adding external electric field

     Computed dipole along edir(3) : 
        Dipole               -0.7954 Ry au,         -2.0218 Debye
        Dipole field         -0.0005 Ry au, 
 
        Potential amp.        0.0534 Ry
        Total length         54.2615 bohr
 
 
     Adding external electric field

     Computed dipole along edir(3) : 
        Dipole               -0.7954 Ry au,         -2.0218 Debye
        Dipole field         -0.0005 Ry au, 
 
        Potential amp.        0.0534 Ry
        Total length         54.2615 bohr
 

     total cpu time spent up to now is      293.1 secs

     total energy              =   -7397.93141992 Ry
     estimated scf accuracy    <       1.12372170 Ry

     total magnetization       =    78.79 Bohr mag/cell
     absolute magnetization    =    85.80 Bohr mag/cell

     iteration # 22     ecut=    50.00 Ry     beta= 0.10
     Davidson diagonalization with overlap
     ethr =  1.04E-04,  avg # of iterations =  2.0

     negative rho (up, down):  3.182E-03 4.896E-03
 
     Adding external electric field

     Computed dipole along edir(3) : 
        Dipole               -0.8985 Ry au,         -2.2839 Debye
        Dipole field         -0.0006 Ry au, 
 
        Potential amp.        0.0603 Ry
        Total length         54.2615 bohr
 
 
     Adding external electric field

     Computed dipole along edir(3) : 
        Dipole               -0.8985 Ry au,         -2.2839 Debye
        Dipole field         -0.0006 Ry au, 
 
        Potential amp.        0.0603 Ry
        Total length         54.2615 bohr
 

     total cpu time spent up to now is      304.8 secs

     total energy              =   -7397.96216780 Ry
     estimated scf accuracy    <       0.47517169 Ry

     total magnetization       =    80.98 Bohr mag/cell
     absolute magnetization    =    85.55 Bohr mag/cell

     iteration # 23     ecut=    50.00 Ry     beta= 0.10
     Davidson diagonalization with overlap
     ethr =  4.41E-05,  avg # of iterations = 19.5

     negative rho (up, down):  3.114E-03 4.519E-03
 
     Adding external electric field

     Computed dipole along edir(3) : 
        Dipole               -0.9924 Ry au,         -2.5225 Debye
        Dipole field         -0.0006 Ry au, 
 
        Potential amp.        0.0666 Ry
        Total length         54.2615 bohr
 
 
     Adding external electric field

     Computed dipole along edir(3) : 
        Dipole               -0.9924 Ry au,         -2.5225 Debye
        Dipole field         -0.0006 Ry au, 
 
        Potential amp.        0.0666 Ry
        Total length         54.2615 bohr
 

     total cpu time spent up to now is      331.8 secs

     total energy              =   -7398.01939424 Ry
     estimated scf accuracy    <       0.33911850 Ry

     total magnetization       =    79.40 Bohr mag/cell
     absolute magnetization    =    83.64 Bohr mag/cell

     iteration # 24     ecut=    50.00 Ry     beta= 0.10
     Davidson diagonalization with overlap
     ethr =  3.15E-05,  avg # of iterations =  1.0

     negative rho (up, down):  3.264E-03 4.633E-03
 
     Adding external electric field

     Computed dipole along edir(3) : 
        Dipole               -1.1047 Ry au,         -2.8079 Debye
        Dipole field         -0.0007 Ry au, 
 
        Potential amp.        0.0741 Ry
        Total length         54.2615 bohr
 
 
     Adding external electric field

     Computed dipole along edir(3) : 
        Dipole               -1.1047 Ry au,         -2.8079 Debye
        Dipole field         -0.0007 Ry au, 
 
        Potential amp.        0.0741 Ry
        Total length         54.2615 bohr
 

     total cpu time spent up to now is      342.2 secs

     total energy              =   -7398.04472415 Ry
     estimated scf accuracy    <       0.28587545 Ry

     total magnetization       =    79.88 Bohr mag/cell
     absolute magnetization    =    82.86 Bohr mag/cell

     iteration # 25     ecut=    50.00 Ry     beta= 0.10
     Davidson diagonalization with overlap
     ethr =  2.65E-05,  avg # of iterations =  1.0

     negative rho (up, down):  2.612E-03 3.840E-03
 
     Adding external electric field

     Computed dipole along edir(3) : 
        Dipole               -1.0757 Ry au,         -2.7342 Debye
        Dipole field         -0.0007 Ry au, 
 
        Potential amp.        0.0722 Ry
        Total length         54.2615 bohr
 
 
     Adding external electric field

     Computed dipole along edir(3) : 
        Dipole               -1.0757 Ry au,         -2.7342 Debye
        Dipole field         -0.0007 Ry au, 
 
        Potential amp.        0.0722 Ry
        Total length         54.2615 bohr
 

     total cpu time spent up to now is      352.1 secs

     total energy              =   -7398.04273259 Ry
     estimated scf accuracy    <       0.22491891 Ry

     total magnetization       =    79.79 Bohr mag/cell
     absolute magnetization    =    81.88 Bohr mag/cell

     iteration # 26     ecut=    50.00 Ry     beta= 0.10
     Davidson diagonalization with overlap
     ethr =  2.09E-05,  avg # of iterations =  1.5

     negative rho (up, down):  1.632E-03 2.558E-03
 
     Adding external electric field

     Computed dipole along edir(3) : 
        Dipole               -1.0507 Ry au,         -2.6705 Debye
        Dipole field         -0.0006 Ry au, 
 
        Potential amp.        0.0705 Ry
        Total length         54.2615 bohr
 
 
     Adding external electric field

     Computed dipole along edir(3) : 
        Dipole               -1.0507 Ry au,         -2.6705 Debye
        Dipole field         -0.0006 Ry au, 
 
        Potential amp.        0.0705 Ry
        Total length         54.2615 bohr
 

     total cpu time spent up to now is      362.7 secs

     total energy              =   -7398.03142127 Ry
     estimated scf accuracy    <       0.14788980 Ry

     total magnetization       =    80.16 Bohr mag/cell
     absolute magnetization    =    81.94 Bohr mag/cell

     iteration # 27     ecut=    50.00 Ry     beta= 0.10
     Davidson diagonalization with overlap
     ethr =  1.37E-05,  avg # of iterations =  2.0

     negative rho (up, down):  8.464E-04 1.167E-03
 
     Adding external electric field

     Computed dipole along edir(3) : 
        Dipole               -1.0244 Ry au,         -2.6039 Debye
        Dipole field         -0.0006 Ry au, 
 
        Potential amp.        0.0688 Ry
        Total length         54.2615 bohr
 
 
     Adding external electric field

     Computed dipole along edir(3) : 
        Dipole               -1.0244 Ry au,         -2.6039 Debye
        Dipole field         -0.0006 Ry au, 
 
        Potential amp.        0.0688 Ry
        Total length         54.2615 bohr
 

     total cpu time spent up to now is      376.3 secs

     total energy              =   -7398.03472608 Ry
     estimated scf accuracy    <       0.07599525 Ry

     total magnetization       =    80.01 Bohr mag/cell
     absolute magnetization    =    81.48 Bohr mag/cell

     iteration # 28     ecut=    50.00 Ry     beta= 0.10
     Davidson diagonalization with overlap
     ethr =  7.05E-06,  avg # of iterations =  2.0

     negative rho (up, down):  4.886E-04 7.248E-04
 
     Adding external electric field

     Computed dipole along edir(3) : 
        Dipole               -0.9584 Ry au,         -2.4360 Debye
        Dipole field         -0.0006 Ry au, 
 
        Potential amp.        0.0643 Ry
        Total length         54.2615 bohr
 
 
     Adding external electric field

     Computed dipole along edir(3) : 
        Dipole               -0.9584 Ry au,         -2.4360 Debye
        Dipole field         -0.0006 Ry au, 
 
        Potential amp.        0.0643 Ry
        Total length         54.2615 bohr
 

     total cpu time spent up to now is      389.3 secs

     total energy              =   -7398.03596292 Ry
     estimated scf accuracy    <       0.09211770 Ry

     total magnetization       =    79.77 Bohr mag/cell
     absolute magnetization    =    81.14 Bohr mag/cell

     iteration # 29     ecut=    50.00 Ry     beta= 0.10
     Davidson diagonalization with overlap
     ethr =  7.05E-06,  avg # of iterations =  1.0

     negative rho (up, down):  1.207E-05 8.509E-06
 
     Adding external electric field

     Computed dipole along edir(3) : 
        Dipole               -0.7982 Ry au,         -2.0288 Debye
        Dipole field         -0.0005 Ry au, 
 
        Potential amp.        0.0536 Ry
        Total length         54.2615 bohr
 
 
     Adding external electric field

     Computed dipole along edir(3) : 
        Dipole               -0.7982 Ry au,         -2.0288 Debye
        Dipole field         -0.0005 Ry au, 
 
        Potential amp.        0.0536 Ry
        Total length         54.2615 bohr
 

     total cpu time spent up to now is      400.4 secs

     total energy              =   -7398.02979429 Ry
     estimated scf accuracy    <       0.03718004 Ry

     total magnetization       =    80.09 Bohr mag/cell
     absolute magnetization    =    81.53 Bohr mag/cell

     iteration # 30     ecut=    50.00 Ry     beta= 0.10
     Davidson diagonalization with overlap
     c_bands:  5 eigenvalues not converged
     ethr =  3.45E-06,  avg # of iterations = 12.0

     negative rho (up, down):  6.716E-06 4.821E-06
 
     Adding external electric field

     Computed dipole along edir(3) : 
        Dipole               -0.7888 Ry au,         -2.0050 Debye
        Dipole field         -0.0005 Ry au, 
 
        Potential amp.        0.0529 Ry
        Total length         54.2615 bohr
 
 
     Adding external electric field

     Computed dipole along edir(3) : 
        Dipole               -0.7888 Ry au,         -2.0050 Debye
        Dipole field         -0.0005 Ry au, 
 
        Potential amp.        0.0529 Ry
        Total length         54.2615 bohr
 

     total cpu time spent up to now is      419.5 secs

     total energy              =   -7398.03243009 Ry
     estimated scf accuracy    <       0.07448918 Ry

     total magnetization       =    79.77 Bohr mag/cell
     absolute magnetization    =    81.19 Bohr mag/cell

     iteration # 31     ecut=    50.00 Ry     beta= 0.10
     Davidson diagonalization with overlap
     ethr =  3.45E-06,  avg # of iterations =  1.5

     negative rho (up, down):  2.140E-06 1.456E-06
 
     Adding external electric field

     Computed dipole along edir(3) : 
        Dipole               -0.7019 Ry au,         -1.7841 Debye
        Dipole field         -0.0004 Ry au, 
 
        Potential amp.        0.0471 Ry
        Total length         54.2615 bohr
 
 
     Adding external electric field

     Computed dipole along edir(3) : 
        Dipole               -0.7019 Ry au,         -1.7841 Debye
        Dipole field         -0.0004 Ry au, 
 
        Potential amp.        0.0471 Ry
        Total length         54.2615 bohr
 

     total cpu time spent up to now is      431.9 secs

     total energy              =   -7398.03294341 Ry
     estimated scf accuracy    <       0.03215689 Ry

     total magnetization       =    79.96 Bohr mag/cell
     absolute magnetization    =    81.39 Bohr mag/cell

     iteration # 32     ecut=    50.00 Ry     beta= 0.10
     Davidson diagonalization with overlap
     ethr =  2.98E-06,  avg # of iterations =  2.0

     negative rho (up, down):  3.668E-06 2.669E-06
 
     Adding external electric field

     Computed dipole along edir(3) : 
        Dipole               -0.6526 Ry au,         -1.6588 Debye
        Dipole field         -0.0004 Ry au, 
 
        Potential amp.        0.0438 Ry
        Total length         54.2615 bohr
 
 
     Adding external electric field

     Computed dipole along edir(3) : 
        Dipole               -0.6526 Ry au,         -1.6588 Debye
        Dipole field         -0.0004 Ry au, 
 
        Potential amp.        0.0438 Ry
        Total length         54.2615 bohr
 

     total cpu time spent up to now is      445.2 secs

     total energy              =   -7398.03198067 Ry
     estimated scf accuracy    <       0.03889561 Ry

     total magnetization       =    79.96 Bohr mag/cell
     absolute magnetization    =    81.38 Bohr mag/cell

     iteration # 33     ecut=    50.00 Ry     beta= 0.10
     Davidson diagonalization with overlap
     ethr =  2.98E-06,  avg # of iterations =  2.0

     negative rho (up, down):  2.225E-06 1.490E-06
 
     Adding external electric field

     Computed dipole along edir(3) : 
        Dipole               -0.6540 Ry au,         -1.6622 Debye
        Dipole field         -0.0004 Ry au, 
 
        Potential amp.        0.0439 Ry
        Total length         54.2615 bohr
 
 
     Adding external electric field

     Computed dipole along edir(3) : 
        Dipole               -0.6540 Ry au,         -1.6622 Debye
        Dipole field         -0.0004 Ry au, 
 
        Potential amp.        0.0439 Ry
        Total length         54.2615 bohr
 

     total cpu time spent up to now is      458.0 secs

     total energy              =   -7398.03276395 Ry
     estimated scf accuracy    <       0.03377943 Ry

     total magnetization       =    80.05 Bohr mag/cell
     absolute magnetization    =    81.40 Bohr mag/cell

     iteration # 34     ecut=    50.00 Ry     beta= 0.10
     Davidson diagonalization with overlap
     ethr =  2.98E-06,  avg # of iterations =  1.5

     negative rho (up, down):  2.349E-06 1.583E-06
 
     Adding external electric field

     Computed dipole along edir(3) : 
        Dipole               -0.6935 Ry au,         -1.7627 Debye
        Dipole field         -0.0004 Ry au, 
 
        Potential amp.        0.0465 Ry
        Total length         54.2615 bohr
 
 
     Adding external electric field

     Computed dipole along edir(3) : 
        Dipole               -0.6935 Ry au,         -1.7627 Debye
        Dipole field         -0.0004 Ry au, 
 
        Potential amp.        0.0465 Ry
        Total length         54.2615 bohr
 

     total cpu time spent up to now is      469.5 secs

     total energy              =   -7398.03326076 Ry
     estimated scf accuracy    <       0.03502994 Ry

     total magnetization       =    80.04 Bohr mag/cell
     absolute magnetization    =    81.41 Bohr mag/cell

     iteration # 35     ecut=    50.00 Ry     beta= 0.10
     Davidson diagonalization with overlap
     ethr =  2.98E-06,  avg # of iterations =  2.0

     negative rho (up, down):  2.286E-06 1.741E-06
 
     Adding external electric field

     Computed dipole along edir(3) : 
        Dipole               -0.6809 Ry au,         -1.7308 Debye
        Dipole field         -0.0004 Ry au, 
 
        Potential amp.        0.0457 Ry
        Total length         54.2615 bohr
 
 
     Adding external electric field

     Computed dipole along edir(3) : 
        Dipole               -0.6809 Ry au,         -1.7308 Debye
        Dipole field         -0.0004 Ry au, 
 
        Potential amp.        0.0457 Ry
        Total length         54.2615 bohr
 

     total cpu time spent up to now is      481.8 secs

     total energy              =   -7398.03359569 Ry
     estimated scf accuracy    <       0.03349892 Ry

     total magnetization       =    79.97 Bohr mag/cell
     absolute magnetization    =    81.36 Bohr mag/cell

     iteration # 36     ecut=    50.00 Ry     beta= 0.10
     Davidson diagonalization with overlap
     ethr =  2.98E-06,  avg # of iterations =  2.0

     negative rho (up, down):  2.557E-06 1.876E-06
 
     Adding external electric field

     Computed dipole along edir(3) : 
        Dipole               -0.6985 Ry au,         -1.7755 Debye
        Dipole field         -0.0004 Ry au, 
 
        Potential amp.        0.0469 Ry
        Total length         54.2615 bohr
 
 
     Adding external electric field

     Computed dipole along edir(3) : 
        Dipole               -0.6985 Ry au,         -1.7755 Debye
        Dipole field         -0.0004 Ry au, 
 
        Potential amp.        0.0469 Ry
        Total length         54.2615 bohr
 

     total cpu time spent up to now is      494.6 secs

     total energy              =   -7398.03332116 Ry
     estimated scf accuracy    <       0.02855306 Ry

     total magnetization       =    80.02 Bohr mag/cell
     absolute magnetization    =    81.42 Bohr mag/cell

     iteration # 37     ecut=    50.00 Ry     beta= 0.10
     Davidson diagonalization with overlap
     ethr =  2.65E-06,  avg # of iterations =  2.0

     negative rho (up, down):  3.204E-06 2.469E-06
 
     Adding external electric field

     Computed dipole along edir(3) : 
        Dipole               -0.6916 Ry au,         -1.7580 Debye
        Dipole field         -0.0004 Ry au, 
 
        Potential amp.        0.0464 Ry
        Total length         54.2615 bohr
 
 
     Adding external electric field

     Computed dipole along edir(3) : 
        Dipole               -0.6916 Ry au,         -1.7580 Debye
        Dipole field         -0.0004 Ry au, 
 
        Potential amp.        0.0464 Ry
        Total length         54.2615 bohr
 

     total cpu time spent up to now is      507.1 secs

     total energy              =   -7398.03343763 Ry
     estimated scf accuracy    <       0.02569104 Ry

     total magnetization       =    80.05 Bohr mag/cell
     absolute magnetization    =    81.42 Bohr mag/cell

     iteration # 38     ecut=    50.00 Ry     beta= 0.10
     Davidson diagonalization with overlap
     ethr =  2.38E-06,  avg # of iterations =  2.0

     negative rho (up, down):  2.178E-06 1.385E-06
 
     Adding external electric field

     Computed dipole along edir(3) : 
        Dipole               -0.6954 Ry au,         -1.7676 Debye
        Dipole field         -0.0004 Ry au, 
 
        Potential amp.        0.0467 Ry
        Total length         54.2615 bohr
 
 
     Adding external electric field

     Computed dipole along edir(3) : 
        Dipole               -0.6954 Ry au,         -1.7676 Debye
        Dipole field         -0.0004 Ry au, 
 
        Potential amp.        0.0467 Ry
        Total length         54.2615 bohr
 

     total cpu time spent up to now is      519.7 secs

     total energy              =   -7398.03321139 Ry
     estimated scf accuracy    <       0.02700818 Ry

     total magnetization       =    80.02 Bohr mag/cell
     absolute magnetization    =    81.40 Bohr mag/cell

     iteration # 39     ecut=    50.00 Ry     beta= 0.10
     Davidson diagonalization with overlap
     c_bands:  2 eigenvalues not converged
     ethr =  2.38E-06,  avg # of iterations = 11.0

     negative rho (up, down):  2.626E-06 1.706E-06
 
     Adding external electric field

     Computed dipole along edir(3) : 
        Dipole               -0.7045 Ry au,         -1.7907 Debye
        Dipole field         -0.0004 Ry au, 
 
        Potential amp.        0.0473 Ry
        Total length         54.2615 bohr
 
 
     Adding external electric field

     Computed dipole along edir(3) : 
        Dipole               -0.7045 Ry au,         -1.7907 Debye
        Dipole field         -0.0004 Ry au, 
 
        Potential amp.        0.0473 Ry
        Total length         54.2615 bohr
 

     total cpu time spent up to now is      537.9 secs

     total energy              =   -7398.03316086 Ry
     estimated scf accuracy    <       0.02553658 Ry

     total magnetization       =    80.06 Bohr mag/cell
     absolute magnetization    =    81.44 Bohr mag/cell

     iteration # 40     ecut=    50.00 Ry     beta= 0.10
     Davidson diagonalization with overlap
     ethr =  2.37E-06,  avg # of iterations =  2.0

     negative rho (up, down):  5.330E-06 4.414E-06
 
     Adding external electric field

     Computed dipole along edir(3) : 
        Dipole               -0.7056 Ry au,         -1.7934 Debye
        Dipole field         -0.0004 Ry au, 
 
        Potential amp.        0.0474 Ry
        Total length         54.2615 bohr
 
 
     Adding external electric field

     Computed dipole along edir(3) : 
        Dipole               -0.7056 Ry au,         -1.7934 Debye
        Dipole field         -0.0004 Ry au, 
 
        Potential amp.        0.0474 Ry
        Total length         54.2615 bohr
 

     total cpu time spent up to now is      550.6 secs

     total energy              =   -7398.03324808 Ry
     estimated scf accuracy    <       0.02464003 Ry

     total magnetization       =    80.10 Bohr mag/cell
     absolute magnetization    =    81.46 Bohr mag/cell

     iteration # 41     ecut=    50.00 Ry     beta= 0.10
     Davidson diagonalization with overlap
     ethr =  2.29E-06,  avg # of iterations =  2.0

     negative rho (up, down):  3.959E-06 3.163E-06
 
     Adding external electric field

     Computed dipole along edir(3) : 
        Dipole               -0.7123 Ry au,         -1.8104 Debye
        Dipole field         -0.0004 Ry au, 
 
        Potential amp.        0.0478 Ry
        Total length         54.2615 bohr
 
 
     Adding external electric field

     Computed dipole along edir(3) : 
        Dipole               -0.7123 Ry au,         -1.8104 Debye
        Dipole field         -0.0004 Ry au, 
 
        Potential amp.        0.0478 Ry
        Total length         54.2615 bohr
 

     total cpu time spent up to now is      563.7 secs

     total energy              =   -7398.03333731 Ry
     estimated scf accuracy    <       0.02533678 Ry

     total magnetization       =    80.08 Bohr mag/cell
     absolute magnetization    =    81.42 Bohr mag/cell

     iteration # 42     ecut=    50.00 Ry     beta= 0.10
     Davidson diagonalization with overlap
     ethr =  2.29E-06,  avg # of iterations =  1.5

     negative rho (up, down):  1.518E-06 9.395E-07
 
     Adding external electric field

     Computed dipole along edir(3) : 
        Dipole               -0.6988 Ry au,         -1.7761 Debye
        Dipole field         -0.0004 Ry au, 
 
        Potential amp.        0.0469 Ry
        Total length         54.2615 bohr
 
 
     Adding external electric field

     Computed dipole along edir(3) : 
        Dipole               -0.6988 Ry au,         -1.7761 Debye
        Dipole field         -0.0004 Ry au, 
 
        Potential amp.        0.0469 Ry
        Total length         54.2615 bohr
 

     total cpu time spent up to now is      575.4 secs

     total energy              =   -7398.03340461 Ry
     estimated scf accuracy    <       0.02185003 Ry

     total magnetization       =    80.11 Bohr mag/cell
     absolute magnetization    =    81.54 Bohr mag/cell

     iteration # 43     ecut=    50.00 Ry     beta= 0.10
     Davidson diagonalization with overlap
     ethr =  2.03E-06,  avg # of iterations =  1.0

     negative rho (up, down):  1.927E-04 1.625E-04
 
     Adding external electric field

     Computed dipole along edir(3) : 
        Dipole               -0.6511 Ry au,         -1.6549 Debye
        Dipole field         -0.0004 Ry au, 
 
        Potential amp.        0.0437 Ry
        Total length         54.2615 bohr
 
 
     Adding external electric field

     Computed dipole along edir(3) : 
        Dipole               -0.6511 Ry au,         -1.6549 Debye
        Dipole field         -0.0004 Ry au, 
 
        Potential amp.        0.0437 Ry
        Total length         54.2615 bohr
 

     total cpu time spent up to now is      586.3 secs

     total energy              =   -7398.03130730 Ry
     estimated scf accuracy    <       0.02377229 Ry

     total magnetization       =    80.08 Bohr mag/cell
     absolute magnetization    =    81.50 Bohr mag/cell

     iteration # 44     ecut=    50.00 Ry     beta= 0.10
     Davidson diagonalization with overlap
     ethr =  2.03E-06,  avg # of iterations =  2.0

     negative rho (up, down):  5.023E-05 4.526E-05
 
     Adding external electric field

     Computed dipole along edir(3) : 
        Dipole               -0.7946 Ry au,         -2.0198 Debye
        Dipole field         -0.0005 Ry au, 
 
        Potential amp.        0.0533 Ry
        Total length         54.2615 bohr
 
 
     Adding external electric field

     Computed dipole along edir(3) : 
        Dipole               -0.7946 Ry au,         -2.0198 Debye
        Dipole field         -0.0005 Ry au, 
 
        Potential amp.        0.0533 Ry
        Total length         54.2615 bohr
 

     total cpu time spent up to now is      598.6 secs

     total energy              =   -7398.03297313 Ry
     estimated scf accuracy    <       0.02465479 Ry

     total magnetization       =    80.14 Bohr mag/cell
     absolute magnetization    =    81.54 Bohr mag/cell

     iteration # 45     ecut=    50.00 Ry     beta= 0.10
     Davidson diagonalization with overlap
     ethr =  2.03E-06,  avg # of iterations =  2.0

     negative rho (up, down):  2.170E-04 2.460E-04
 
     Adding external electric field

     Computed dipole along edir(3) : 
        Dipole               -0.7008 Ry au,         -1.7813 Debye
        Dipole field         -0.0004 Ry au, 
 
        Potential amp.        0.0470 Ry
        Total length         54.2615 bohr
 
 
     Adding external electric field

     Computed dipole along edir(3) : 
        Dipole               -0.7008 Ry au,         -1.7813 Debye
        Dipole field         -0.0004 Ry au, 
 
        Potential amp.        0.0470 Ry
        Total length         54.2615 bohr
 

     total cpu time spent up to now is      610.7 secs

     total energy              =   -7398.03359576 Ry
     estimated scf accuracy    <       0.02197705 Ry

     total magnetization       =    80.15 Bohr mag/cell
     absolute magnetization    =    81.55 Bohr mag/cell

     iteration # 46     ecut=    50.00 Ry     beta= 0.10
     Davidson diagonalization with overlap
     ethr =  2.03E-06,  avg # of iterations =  2.0

     negative rho (up, down):  2.338E-04 2.534E-04
 
     Adding external electric field

     Computed dipole along edir(3) : 
        Dipole               -0.7160 Ry au,         -1.8198 Debye
        Dipole field         -0.0004 Ry au, 
 
        Potential amp.        0.0481 Ry
        Total length         54.2615 bohr
 
 
     Adding external electric field

     Computed dipole along edir(3) : 
        Dipole               -0.7160 Ry au,         -1.8198 Debye
        Dipole field         -0.0004 Ry au, 
 
        Potential amp.        0.0481 Ry
        Total length         54.2615 bohr
 

     total cpu time spent up to now is      623.4 secs

     total energy              =   -7398.03343195 Ry
     estimated scf accuracy    <       0.02206312 Ry

     total magnetization       =    80.18 Bohr mag/cell
     absolute magnetization    =    81.71 Bohr mag/cell

     iteration # 47     ecut=    50.00 Ry     beta= 0.10
     Davidson diagonalization with overlap
     ethr =  2.03E-06,  avg # of iterations =  1.0

     negative rho (up, down):  2.685E-05 2.705E-05
 
     Adding external electric field

     Computed dipole along edir(3) : 
        Dipole               -0.7328 Ry au,         -1.8625 Debye
        Dipole field         -0.0005 Ry au, 
 
        Potential amp.        0.0492 Ry
        Total length         54.2615 bohr
 
 
     Adding external electric field

     Computed dipole along edir(3) : 
        Dipole               -0.7328 Ry au,         -1.8625 Debye
        Dipole field         -0.0005 Ry au, 
 
        Potential amp.        0.0492 Ry
        Total length         54.2615 bohr
 

     total cpu time spent up to now is      634.8 secs

     total energy              =   -7398.03349803 Ry
     estimated scf accuracy    <       0.02174865 Ry

     total magnetization       =    80.17 Bohr mag/cell
     absolute magnetization    =    81.62 Bohr mag/cell

     iteration # 48     ecut=    50.00 Ry     beta= 0.10
     Davidson diagonalization with overlap
     ethr =  2.02E-06,  avg # of iterations =  2.0

     negative rho (up, down):  1.717E-05 1.854E-05
 
     Adding external electric field

     Computed dipole along edir(3) : 
        Dipole               -0.6252 Ry au,         -1.5890 Debye
        Dipole field         -0.0004 Ry au, 
 
        Potential amp.        0.0420 Ry
        Total length         54.2615 bohr
 
 
     Adding external electric field

     Computed dipole along edir(3) : 
        Dipole               -0.6252 Ry au,         -1.5890 Debye
        Dipole field         -0.0004 Ry au, 
 
        Potential amp.        0.0420 Ry
        Total length         54.2615 bohr
 

     total cpu time spent up to now is      647.5 secs

     total energy              =   -7398.03325772 Ry
     estimated scf accuracy    <       0.02292375 Ry

     total magnetization       =    80.14 Bohr mag/cell
     absolute magnetization    =    81.64 Bohr mag/cell

     iteration # 49     ecut=    50.00 Ry     beta= 0.10
     Davidson diagonalization with overlap
     ethr =  2.02E-06,  avg # of iterations =  2.0

     negative rho (up, down):  3.108E-04 3.441E-04
 
     Adding external electric field

     Computed dipole along edir(3) : 
        Dipole               -0.6370 Ry au,         -1.6190 Debye
        Dipole field         -0.0004 Ry au, 
 
        Potential amp.        0.0427 Ry
        Total length         54.2615 bohr
 
 
     Adding external electric field

     Computed dipole along edir(3) : 
        Dipole               -0.6370 Ry au,         -1.6190 Debye
        Dipole field         -0.0004 Ry au, 
 
        Potential amp.        0.0427 Ry
        Total length         54.2615 bohr
 

     total cpu time spent up to now is      660.4 secs

     total energy              =   -7398.03314644 Ry
     estimated scf accuracy    <       0.02715998 Ry

     total magnetization       =    80.13 Bohr mag/cell
     absolute magnetization    =    81.60 Bohr mag/cell

     iteration # 50     ecut=    50.00 Ry     beta= 0.10
     Davidson diagonalization with overlap
     ethr =  2.02E-06,  avg # of iterations =  1.0

     negative rho (up, down):  3.516E-04 3.956E-04
 
     Adding external electric field

     Computed dipole along edir(3) : 
        Dipole               -0.6281 Ry au,         -1.5964 Debye
        Dipole field         -0.0004 Ry au, 
 
        Potential amp.        0.0422 Ry
        Total length         54.2615 bohr
 
 
     Adding external electric field

     Computed dipole along edir(3) : 
        Dipole               -0.6281 Ry au,         -1.5964 Debye
        Dipole field         -0.0004 Ry au, 
 
        Potential amp.        0.0422 Ry
        Total length         54.2615 bohr
 

     total cpu time spent up to now is      671.6 secs

     total energy              =   -7398.03297258 Ry
     estimated scf accuracy    <       0.01926533 Ry

     total magnetization       =    80.13 Bohr mag/cell
     absolute magnetization    =    81.59 Bohr mag/cell

     iteration # 51     ecut=    50.00 Ry     beta= 0.10
     Davidson diagonalization with overlap
     ethr =  1.79E-06,  avg # of iterations =  2.0

     negative rho (up, down):  4.134E-04 4.629E-04
 
     Adding external electric field

     Computed dipole along edir(3) : 
        Dipole               -0.6510 Ry au,         -1.6548 Debye
        Dipole field         -0.0004 Ry au, 
 
        Potential amp.        0.0437 Ry
        Total length         54.2615 bohr
 
 
     Adding external electric field

     Computed dipole along edir(3) : 
        Dipole               -0.6510 Ry au,         -1.6548 Debye
        Dipole field         -0.0004 Ry au, 
 
        Potential amp.        0.0437 Ry
        Total length         54.2615 bohr
 

     total cpu time spent up to now is      684.0 secs

     total energy              =   -7398.03252674 Ry
     estimated scf accuracy    <       0.01799084 Ry

     total magnetization       =    80.09 Bohr mag/cell
     absolute magnetization    =    81.56 Bohr mag/cell

     iteration # 52     ecut=    50.00 Ry     beta= 0.10
     Davidson diagonalization with overlap
     ethr =  1.67E-06,  avg # of iterations =  2.0

     negative rho (up, down):  2.043E-04 2.450E-04
 
     Adding external electric field

     Computed dipole along edir(3) : 
        Dipole               -0.6604 Ry au,         -1.6786 Debye
        Dipole field         -0.0004 Ry au, 
 
        Potential amp.        0.0443 Ry
        Total length         54.2615 bohr
 
 
     Adding external electric field

     Computed dipole along edir(3) : 
        Dipole               -0.6604 Ry au,         -1.6786 Debye
        Dipole field         -0.0004 Ry au, 
 
        Potential amp.        0.0443 Ry
        Total length         54.2615 bohr
 

     total cpu time spent up to now is      696.7 secs

     total energy              =   -7398.03293107 Ry
     estimated scf accuracy    <       0.01961927 Ry

     total magnetization       =    80.04 Bohr mag/cell
     absolute magnetization    =    81.48 Bohr mag/cell

     iteration # 53     ecut=    50.00 Ry     beta= 0.10
     Davidson diagonalization with overlap
     ethr =  1.67E-06,  avg # of iterations =  1.5

     negative rho (up, down):  3.738E-04 4.068E-04
 
     Adding external electric field

     Computed dipole along edir(3) : 
        Dipole               -0.6604 Ry au,         -1.6785 Debye
        Dipole field         -0.0004 Ry au, 
 
        Potential amp.        0.0443 Ry
        Total length         54.2615 bohr
 
 
     Adding external electric field

     Computed dipole along edir(3) : 
        Dipole               -0.6604 Ry au,         -1.6785 Debye
        Dipole field         -0.0004 Ry au, 
 
        Potential amp.        0.0443 Ry
        Total length         54.2615 bohr
 

     total cpu time spent up to now is      709.0 secs

     total energy              =   -7398.03293476 Ry
     estimated scf accuracy    <       0.01777609 Ry

     total magnetization       =    80.06 Bohr mag/cell
     absolute magnetization    =    81.53 Bohr mag/cell

     iteration # 54     ecut=    50.00 Ry     beta= 0.10
     Davidson diagonalization with overlap
     ethr =  1.65E-06,  avg # of iterations =  1.5

     negative rho (up, down):  5.210E-04 5.824E-04
 
     Adding external electric field

     Computed dipole along edir(3) : 
        Dipole               -0.6118 Ry au,         -1.5549 Debye
        Dipole field         -0.0004 Ry au, 
 
        Potential amp.        0.0411 Ry
        Total length         54.2615 bohr
 
 
     Adding external electric field

     Computed dipole along edir(3) : 
        Dipole               -0.6118 Ry au,         -1.5549 Debye
        Dipole field         -0.0004 Ry au, 
 
        Potential amp.        0.0411 Ry
        Total length         54.2615 bohr
 

     total cpu time spent up to now is      721.1 secs

     total energy              =   -7398.03234181 Ry
     estimated scf accuracy    <       0.01684559 Ry

     total magnetization       =    80.11 Bohr mag/cell
     absolute magnetization    =    81.58 Bohr mag/cell

     iteration # 55     ecut=    50.00 Ry     beta= 0.10
     Davidson diagonalization with overlap
     ethr =  1.56E-06,  avg # of iterations =  2.0

     negative rho (up, down):  4.055E-04 4.690E-04
 
     Adding external electric field

     Computed dipole along edir(3) : 
        Dipole               -0.6592 Ry au,         -1.6755 Debye
        Dipole field         -0.0004 Ry au, 
 
        Potential amp.        0.0442 Ry
        Total length         54.2615 bohr
 
 
     Adding external electric field

     Computed dipole along edir(3) : 
        Dipole               -0.6592 Ry au,         -1.6755 Debye
        Dipole field         -0.0004 Ry au, 
 
        Potential amp.        0.0442 Ry
        Total length         54.2615 bohr
 

     total cpu time spent up to now is      733.5 secs

     total energy              =   -7398.03289588 Ry
     estimated scf accuracy    <       0.01707096 Ry

     total magnetization       =    80.11 Bohr mag/cell
     absolute magnetization    =    81.59 Bohr mag/cell

     iteration # 56     ecut=    50.00 Ry     beta= 0.10
     Davidson diagonalization with overlap
     ethr =  1.56E-06,  avg # of iterations =  1.5

     negative rho (up, down):  3.838E-04 4.216E-04
 
     Adding external electric field

     Computed dipole along edir(3) : 
        Dipole               -0.6451 Ry au,         -1.6396 Debye
        Dipole field         -0.0004 Ry au, 
 
        Potential amp.        0.0433 Ry
        Total length         54.2615 bohr
 
 
     Adding external electric field

     Computed dipole along edir(3) : 
        Dipole               -0.6451 Ry au,         -1.6396 Debye
        Dipole field         -0.0004 Ry au, 
 
        Potential amp.        0.0433 Ry
        Total length         54.2615 bohr
 

     total cpu time spent up to now is      745.4 secs

     total energy              =   -7398.03276898 Ry
     estimated scf accuracy    <       0.01716538 Ry

     total magnetization       =    80.11 Bohr mag/cell
     absolute magnetization    =    81.63 Bohr mag/cell

     iteration # 57     ecut=    50.00 Ry     beta= 0.10
     Davidson diagonalization with overlap
     ethr =  1.56E-06,  avg # of iterations =  1.0

     negative rho (up, down):  4.394E-04 4.656E-04
 
     Adding external electric field

     Computed dipole along edir(3) : 
        Dipole               -0.5690 Ry au,         -1.4463 Debye
        Dipole field         -0.0004 Ry au, 
 
        Potential amp.        0.0382 Ry
        Total length         54.2615 bohr
 
 
     Adding external electric field

     Computed dipole along edir(3) : 
        Dipole               -0.5690 Ry au,         -1.4463 Debye
        Dipole field         -0.0004 Ry au, 
 
        Potential amp.        0.0382 Ry
        Total length         54.2615 bohr
 

     total cpu time spent up to now is      756.7 secs

     total energy              =   -7398.03237743 Ry
     estimated scf accuracy    <       0.01710355 Ry

     total magnetization       =    80.10 Bohr mag/cell
     absolute magnetization    =    81.57 Bohr mag/cell

     iteration # 58     ecut=    50.00 Ry     beta= 0.10
     Davidson diagonalization with overlap
     ethr =  1.56E-06,  avg # of iterations =  2.0

     negative rho (up, down):  4.424E-04 4.542E-04
 
     Adding external electric field

     Computed dipole along edir(3) : 
        Dipole               -0.6191 Ry au,         -1.5735 Debye
        Dipole field         -0.0004 Ry au, 
 
        Potential amp.        0.0415 Ry
        Total length         54.2615 bohr
 
 
[...]
    -5.9499  -5.9313  -5.9243  -5.9036  -5.8914  -5.8560  -5.8162  -5.8105
    -5.7769  -5.7698  -5.7367  -5.7353  -5.7227  -5.6806  -5.6712  -5.6500
    -5.6423  -5.6305  -5.6023  -5.5922  -5.5792  -5.5608  -5.5279  -5.4832
    -5.4640  -5.4301  -5.3967  -5.3859  -5.3688  -5.3421  -5.3117  -5.2571
    -5.2354  -5.2023  -5.1829  -5.1672  -5.0985  -5.0716  -5.0318  -5.0028
    -4.9941  -4.9616  -4.9289  -4.9193  -4.8889  -4.8780  -4.8473  -4.8388
    -4.7790  -4.7491  -4.6970  -4.6912  -4.6543  -4.6175  -4.5849  -4.5359
    -4.5039  -4.4839  -4.4516  -4.4327  -4.4066  -4.3838  -4.3509  -4.3300
    -4.3191  -4.2619  -4.2118  -4.1820  -4.1685  -4.1246  -4.1037  -4.0944
    -4.0434  -4.0036  -3.9899  -3.9692  -3.9539  -3.9263  -3.8971  -3.8778
    -3.8359  -3.8300  -3.8106  -3.7856  -3.7751  -3.7235  -3.7131  -3.6997
    -3.6736  -3.6675  -3.6393  -3.6309  -3.6169  -3.5983  -3.5906  -3.5193
    -3.5145  -3.5023  -3.4942  -3.4755  -3.4631  -3.4600  -3.4267  -3.4208
    -3.4002  -3.3693  -3.3573  -3.3405  -3.3067  -3.2971  -3.2703  -3.2445
    -3.2308  -3.2005  -3.1978  -3.1552  -3.1478  -3.1352  -3.1167  -3.1097
    -3.0845  -3.0659  -3.0480  -3.0137  -2.9968  -2.9760  -2.9627  -2.9279
    -2.9076  -2.8933  -2.8726  -2.8506  -2.8277  -2.8195  -2.7891  -2.7720
    -2.7611  -2.7503  -2.7436  -2.7291  -2.7272  -2.7112  -2.7051  -2.7004
    -2.6586  -2.6509  -2.6333  -2.6185  -2.6012  -2.5902  -2.5649  -2.5602
    -2.5370  -2.5195  -2.4987  -2.4714  -2.4637  -2.4493  -2.4462  -2.4324
    -2.3907  -2.3828  -2.3656  -2.3529  -2.3205  -2.3060  -2.2728  -2.2632
    -2.2533  -2.2157  -2.2135  -2.1850  -2.1693  -2.1495  -2.1325  -2.1187
    -2.0878  -2.0752  -2.0563  -2.0428  -2.0345  -2.0175  -1.9902  -1.9691
    -1.9526  -1.9433  -1.9398  -1.9256  -1.8964  -1.8716  -1.8641  -1.8359
    -1.8154  -1.7971  -1.7704  -1.7507  -1.7465  -1.7330  -1.7105  -1.6822
    -1.6610  -1.6498  -1.6354  -1.6278  -1.5907  -1.5726  -1.5569  -1.5255
    -1.5121  -1.4948  -1.4890  -1.4659  -1.4416  -1.4207  -1.3947  -1.3803
    -1.3758  -1.3492  -1.3110  -1.2829  -1.2700  -1.2367  -1.2260  -1.2139
    -1.1435  -1.1346  -1.0719  -0.9864  -0.9534  -0.9356  -0.8500  -0.8368
    -0.7928  -0.7467  -0.7147  -0.5019  -0.3599  -0.3406  -0.2892  -0.1848
     0.1371   0.1587   0.1891   0.2274   0.2512   0.2605   0.2782   0.2902
     0.3091   0.3137   0.3386   0.3476   0.3537   0.3579   0.3712   0.3761
     0.3854   0.3885   0.4064   0.4123   0.4185   0.4227   0.4323   0.4429
     0.4439   0.4528   0.4625   0.4666   0.4719   0.4807   0.4821   0.4849
     0.4978   0.5127   0.5157   0.5222   0.5287   0.5324   0.5341   0.5470
     0.5587   0.5678   0.5739   0.5794   0.5817   0.5893   0.5962   0.6029
     0.6131   0.6341   0.6363   0.6376   0.6419   0.6513   0.6574   0.6652
     0.6729   0.6822   0.6853   0.6931   0.7040   0.7047   0.7062   0.7235
     0.7281   0.7406   0.7427   0.7559   0.7578   0.7655   0.7734   0.7774
     0.7795   0.7975   0.8122   0.8208   0.8369   0.8430   0.8612   0.8650
     0.8727   0.8853   0.8892   0.8952   0.8987   0.9099   0.9184   0.9245
     0.9335   0.9392   0.9490   0.9723   0.9733   1.0295   1.0315   1.0451
     1.1554   1.1891   1.6344   1.7113   1.7140   1.7172   1.7356   1.7463
     1.7671   1.8372   1.8809   1.8991   1.9230   1.9558   1.9659   1.9818
     2.0080   2.0279   2.0534   2.0633   2.0763   2.0779   2.0807   2.1387
     2.1539   2.1758   2.1870   2.2021   2.2258   2.2424   2.2573   2.2692
     2.2806   2.2856   2.3106   2.3161   2.3191   2.3311   2.3519   2.3565
     2.3647   2.3801   2.3879   2.4115   2.4243   2.4288   2.4569   2.4758
     2.4852   2.5182   2.5216   2.5229   2.5519   2.5656   2.5805   2.6122
     2.6175   2.6344   2.6491   2.6622   2.7068   2.7403   2.7552   2.8000
     2.8262   2.8548   2.8798   2.9017   2.9426   3.2861   3.3210   3.4809
     3.5927   3.8218   3.8835   3.9664   4.0288   4.0495   4.1103   4.5187
     4.6659   4.7900   4.9171   4.9292   4.9738   5.0779   5.4340   6.3378
     6.3838   6.5326   6.6034   6.6982   6.7599   6.8453   6.9038   6.9947
     7.0224   7.1028   7.1565   7.1923   7.3144   7.3463   7.3905   7.4525
     7.5502   7.5823   7.6336   7.6892   7.7157   7.7512   7.8228   7.8552
     7.8888   7.9448   7.9763   7.9954   8.0309   8.0559   8.0898   8.1308
     8.1521   8.1623   8.1936   8.2216   8.2643   8.2832   8.3086   8.3374
     8.3654   8.3798   8.4332   8.4739   8.4857   8.5071   8.5388   8.5453
     8.5590   8.5714   8.6020   8.6081   8.6316   8.6496   8.6770   8.6888
     8.7334   8.7462   8.7893   8.8115   8.8663   8.8807   8.9365

     the Fermi energy is     1.6021 ev

!    total energy              =   -7398.02975393 Ry
     estimated scf accuracy    <       0.00000068 Ry
     smearing contrib. (-TS)   =      -0.01675154 Ry
     internal energy E=F+TS    =   -7398.01300239 Ry

     The total energy is F=E-TS. E is the sum of the following terms:
     one-electron contribution =  -91631.50526048 Ry
     hartree contribution      =   46464.09877652 Ry
     xc contribution           =   -2260.27688421 Ry
     ewald contribution        =   40031.50278703 Ry
     Dispersion Correction     =      -1.83248145 Ry
     electric field correction =       0.00006019 Ry

     total magnetization       =    80.12 Bohr mag/cell
     absolute magnetization    =    81.65 Bohr mag/cell

     convergence has been achieved in 104 iterations

     negative rho (up, down):  9.265E-04 5.470E-04

     Forces acting on atoms (cartesian axes, Ry/au):

     atom    1 type  2   force =     0.00026699   -0.00079641    0.00002893
     atom    2 type  1   force =    -0.00006201    0.00043648   -0.00082754
     atom    3 type  1   force =     0.00011415   -0.00003066   -0.00014413
     atom    4 type  1   force =     0.00001381   -0.00040343    0.00033045
     atom    5 type  1   force =     0.00037595   -0.00053832   -0.00055180
     atom    6 type  1   force =     0.00037700    0.00060786    0.00017148
     atom    7 type  1   force =     0.00042107    0.00019439   -0.00052744
     atom    8 type  1   force =     0.00011665    0.00070219   -0.00023003
     atom    9 type  1   force =    -0.00230262   -0.00022900   -0.00208431
     atom   10 type  1   force =     0.00032464    0.00002716   -0.00019138
     atom   11 type  1   force =    -0.00012339   -0.00002656   -0.00018377
     atom   12 type  1   force =     0.00016116   -0.00012553   -0.00023618
     atom   13 type  3   force =    -0.00056811   -0.00033227   -0.00003288
     atom   14 type  3   force =    -0.00028941   -0.00007451    0.00030322
     atom   15 type  3   force =    -0.00010027   -0.00020238   -0.00039731
     atom   16 type  3   force =     0.00024117    0.00034433   -0.00015525
     atom   17 type  4   force =    -0.00015064   -0.00004020    0.00021014
     atom   18 type  4   force =     0.00004833    0.00058019    0.00062719
     atom   19 type  4   force =     0.00025308    0.00082572    0.00007083
     atom   20 type  4   force =    -0.00047560   -0.00025580   -0.00018354
     atom   21 type  4   force =    -0.00006570    0.00018897    0.00006954
     atom   22 type  4   force =     0.00032680    0.00013443   -0.00071613
     atom   23 type  4   force =     0.00000777   -0.00018453   -0.00038364
     atom   24 type  4   force =     0.00011740    0.00058326   -0.00029364
     atom   25 type  4   force =    -0.00008821    0.00040747   -0.00054255
     atom   26 type  4   force =     0.00026221    0.00007400    0.00010227
     atom   27 type  4   force =     0.00016075   -0.00032981    0.00005803
     atom   28 type  4   force =    -0.00007838    0.00034323    0.00023632
     atom   29 type  4   force =    -0.00025940   -0.00025243    0.00009533
     atom   30 type  4   force =    -0.00104965   -0.00026270   -0.00065156
     atom   31 type  4   force =    -0.00000604   -0.00043692   -0.00010220
     atom   32 type  4   force =     0.00002811    0.00033355    0.00017800
     atom   33 type  3   force =    -0.00015034    0.00000454    0.00005477
     atom   34 type  3   force =    -0.00016550   -0.00013632   -0.00018586
     atom   35 type  3   force =    -0.00033912   -0.00004284   -0.00053999
     atom   36 type  3   force =    -0.00007995   -0.00013906   -0.00025414
     atom   37 type  4   force =    -0.00035340    0.00041285    0.00030245
     atom   38 type  4   force =     0.00018947    0.00042655    0.00025810
     atom   39 type  4   force =    -0.00030829    0.00006338   -0.00020531
     atom   40 type  4   force =    -0.00016530   -0.00032082    0.00002406
     atom   41 type  4   force =    -0.00006001    0.00029785   -0.00000984
     atom   42 type  4   force =    -0.00012563    0.00061910   -0.00036657
     atom   43 type  4   force =    -0.00045669    0.00067415    0.00047624
     atom   44 type  4   force =     0.00050390    0.00016871    0.00009650
     atom   45 type  4   force =    -0.00021557    0.00021347    0.00044072
     atom   46 type  4   force =     0.00029813    0.00048677    0.00005228
     atom   47 type  4   force =     0.00001376    0.00029622    0.00012191
     atom   48 type  4   force =     0.00000389    0.00015237    0.00034268
     atom   49 type  4   force =    -0.00007997    0.00046532   -0.00017077
     atom   50 type  4   force =     0.00013612   -0.00008840   -0.00020250
     atom   51 type  4   force =    -0.00020828    0.00013523   -0.00019985
     atom   52 type  4   force =    -0.00043799   -0.00009501   -0.00000966
     atom   53 type  2   force =     0.00228608   -0.00402315    0.00537394
     atom   54 type  1   force =     0.00501129   -0.00219674    0.00385971
     atom   55 type  1   force =     0.00733509   -0.00371420    0.00250672
     atom   56 type  1   force =    -0.00186837    0.01018106    0.00602583
     atom   57 type  1   force =     0.00022717    0.02288634    0.01458944
     atom   58 type  1   force =     0.00235204   -0.00310901   -0.00159939
     atom   59 type  1   force =     0.00130464   -0.00844861    0.00016954
     atom   60 type  1   force =    -0.00508868   -0.00180912    0.00473010
     atom   61 type  1   force =    -0.00128512   -0.00066634    0.00626010
     atom   62 type  1   force =    -0.00437089    0.00820329    0.00594100
     atom   63 type  1   force =    -0.01119584    0.02566742    0.01850193
     atom   64 type  1   force =    -0.00221914    0.00126014    0.00125207
     atom   65 type  3   force =     0.04608356   -0.11391235   -0.01087943
     atom   66 type  3   force =    -0.00011090   -0.00410647    0.00339582
     atom   67 type  3   force =    -0.03916719    0.12654101    0.01398142
     atom   68 type  3   force =     0.06277360   -0.00169245   -0.00350194
     atom   69 type  4   force =     0.01378323   -0.01824136    0.00374186
     atom   70 type  4   force =    -0.00086621    0.00282088   -0.00068210
     atom   71 type  4   force =    -0.00166628    0.00317452   -0.00584369
     atom   72 type  4   force =     0.00403270    0.00184447   -0.00056237
     atom   73 type  4   force =     0.00091797   -0.01142723    0.00299983
     atom   74 type  4   force =     0.00127781   -0.00094136   -0.00111834
     atom   75 type  4   force =    -0.00041763    0.01309619    0.00394811
     atom   76 type  4   force =     0.00832020    0.00526466    0.00926556
     atom   77 type  4   force =     0.00706716   -0.00260783    0.00164577
     atom   78 type  4   force =     0.04396887   -0.14224679   -0.00521952
     atom   79 type  4   force =     0.00181630    0.00197957    0.00142950
     atom   80 type  4   force =    -0.00001838    0.00223270   -0.00178008
     atom   81 type  4   force =     0.06703866    0.00049117   -0.00604165
     atom   82 type  4   force =     0.00065065    0.00124759   -0.00111900
     atom   83 type  4   force =    -0.03922402    0.13483261    0.00274201
     atom   84 type  4   force =    -0.00293179   -0.01102474   -0.00403317
     atom   85 type  3   force =     0.03999265   -0.12004788   -0.01848854
     atom   86 type  3   force =    -0.06275281   -0.00169616    0.00689730
     atom   87 type  3   force =    -0.04490192    0.12579447    0.01812291
     atom   88 type  3   force =    -0.00176454    0.00005329    0.00252687
     atom   89 type  4   force =     0.00907405   -0.01537521    0.00407885
     atom   90 type  4   force =    -0.00472321    0.00141512    0.00082492
     atom   91 type  4   force =    -0.00890438    0.00812951   -0.00641448
     atom   92 type  4   force =     0.00006756    0.00016044   -0.00048502
     atom   93 type  4   force =    -0.00174857   -0.00833392    0.00755968
     atom   94 type  4   force =    -0.00486068    0.00084126    0.00058041
     atom   95 type  4   force =    -0.00559438    0.01339841    0.00788329
     atom   96 type  4   force =     0.00413687    0.00520385    0.00965716
     atom   97 type  4   force =     0.00001128    0.00040082    0.00074540
     atom   98 type  4   force =     0.04035293   -0.14152845   -0.00481329
     atom   99 type  4   force =    -0.06674823    0.00007875    0.00643032
     atom  100 type  4   force =    -0.00182828    0.00324742   -0.00261338
     atom  101 type  4   force =     0.00003261    0.00095048   -0.00044035
     atom  102 type  4   force =    -0.00622156    0.00435846   -0.00073840
     atom  103 type  4   force =    -0.04026396    0.13335105    0.00435653
     atom  104 type  4   force =    -0.00701494   -0.00991232   -0.00512482
     atom  105 type  2   force =     0.00423515   -0.00663083   -0.01787650
     atom  106 type  1   force =     0.02835644    0.01433480    0.01166431
     atom  107 type  1   force =     0.00871188   -0.00610558   -0.01393915
     atom  108 type  1   force =    -0.02851548    0.02182219    0.01863194
     atom  109 type  1   force =     0.00503204    0.01610329    0.00943386
     atom  110 type  1   force =    -0.00244785   -0.00877029   -0.00675147
     atom  111 type  1   force =    -0.00098247   -0.00953197   -0.01127762
     atom  112 type  1   force =     0.02928517    0.01758997    0.01129610
     atom  113 type  1   force =    -0.00068473   -0.00491586   -0.01378135
     atom  114 type  1   force =    -0.02986744    0.02086426    0.01843839
     atom  115 type  1   force =    -0.00714032    0.01847837    0.01217221
     atom  116 type  1   force =    -0.00567623   -0.00432182   -0.00293085
     atom  117 type  3   force =     0.01424301   -0.17391722   -0.10884867
     atom  118 type  3   force =     0.00513853   -0.00848609   -0.01270105
     atom  119 type  3   force =    -0.04466024    0.12490894   -0.00191089
     atom  120 type  3   force =     0.09507748   -0.04106344   -0.07977008
     atom  121 type  4   force =     0.00609246   -0.01713752    0.03728000
     atom  122 type  4   force =    -0.00346326    0.00368950    0.00443364
     atom  123 type  4   force =    -0.00082463    0.00262407   -0.00293146
     atom  124 type  4   force =     0.00853213    0.00212623    0.02703256
     atom  125 type  4   force =     0.00985999   -0.01693140    0.01585853
     atom  126 type  4   force =    -0.00746506    0.00098797   -0.00303206
     atom  127 type  4   force =     0.00401082    0.00970084    0.00053447
     atom  128 type  4   force =    -0.00059795   -0.00112298    0.03009999
     atom  129 type  4   force =    -0.00761953    0.02559121    0.00116272
     atom  130 type  4   force =     0.04346871   -0.14600456   -0.00185699
     atom  131 type  4   force =    -0.01749362   -0.00039181    0.00284513
     atom  132 type  4   force =     0.00329796    0.00264225    0.00203783
     atom  133 type  4   force =     0.06980085    0.00366143   -0.00187617
     atom  134 type  4   force =     0.00092562    0.00360350    0.00276073
     atom  135 type  4   force =    -0.02760470    0.17233621    0.00602290
     atom  136 type  4   force =     0.01966931   -0.00862141    0.00398561
     atom  137 type  3   force =     0.00908414   -0.16688135   -0.09431014
     atom  138 type  3   force =    -0.06463831   -0.00209775   -0.00498879
     atom  139 type  3   force =    -0.04871949    0.11824744    0.00149864
     atom  140 type  3   force =     0.03145022   -0.04324697   -0.07374349
     atom  141 type  4   force =     0.00463346   -0.01335840    0.03218284
     atom  142 type  4   force =    -0.00546456   -0.00028965    0.00424986
     atom  143 type  4   force =    -0.00817426    0.00814906   -0.00359346
     atom  144 type  4   force =     0.00386690    0.00133605    0.02762697
     atom  145 type  4   force =     0.00689341   -0.01302368    0.03228225
     atom  146 type  4   force =    -0.00877698   -0.00175508   -0.00296427
     atom  147 type  4   force =     0.00034919    0.00989585    0.00271878
     atom  148 type  4   force =    -0.00789635    0.00119402    0.02903430
     atom  149 type  4   force =    -0.01312991    0.02948155    0.00048605
     atom  150 type  4   force =     0.03983101   -0.13841190   -0.00134229
     atom  151 type  4   force =    -0.08626173   -0.00173219    0.00913378
     atom  152 type  4   force =     0.00113358    0.00387772    0.00146597
     atom  153 type  4   force =    -0.00347738    0.00084992    0.00301018
     atom  154 type  4   force =    -0.00594749    0.00592931    0.00135636
     atom  155 type  4   force =    -0.02801449    0.16653027    0.00481021
     atom  156 type  4   force =     0.01065554   -0.00972855   -0.00139583
     atom  157 type  4   force =     0.01342354   -0.00661940    0.00562612
     atom  158 type  5   force =    -0.00966801    0.00764043   -0.00394723

     Total force =     0.671778     Total SCF correction =     0.002991
 
     init_run     :      7.91s CPU      8.55s WALL (       1 calls)
     electrons    :   1304.71s CPU   1358.69s WALL (       1 calls)
     forces       :      4.08s CPU      4.39s WALL (       1 calls)
     force_london :      0.10s CPU      0.10s WALL (       1 calls)

     Called by init_run:
     wfcinit      :      4.70s CPU      4.87s WALL (       1 calls)
     potinit      :      0.63s CPU      0.84s WALL (       1 calls)
     hinit0       :      1.47s CPU      1.56s WALL (       1 calls)

     Called by electrons:
     c_bands      :   1008.63s CPU   1037.86s WALL (     104 calls)
     sum_band     :    189.83s CPU    203.31s WALL (     104 calls)
     v_of_rho     :     18.97s CPU     19.88s WALL (     105 calls)
     newd         :     58.60s CPU     68.73s WALL (     105 calls)
     mix_rho      :     27.41s CPU     27.54s WALL (     104 calls)
     energy_londo :      0.09s CPU      0.09s WALL (       1 calls)

     Called by c_bands:
     init_us_2    :      2.24s CPU      2.31s WALL (     420 calls)
     init_us_2:cp :      2.23s CPU      2.31s WALL (     420 calls)
     regterg      :    988.46s CPU   1017.25s WALL (     208 calls)

     Called by *egterg:
     rdiaghg      :    253.66s CPU    267.19s WALL (     767 calls)
     h_psi        :    381.13s CPU    387.81s WALL (     769 calls)
     s_psi        :     55.59s CPU     55.62s WALL (     769 calls)
     g_psi        :      0.41s CPU      0.41s WALL (     559 calls)

     Called by h_psi:
     h_psi:calbec :    106.70s CPU    112.05s WALL (     769 calls)
     vloc_psi     :    215.24s CPU    215.90s WALL (     769 calls)
     add_vuspsi   :     58.51s CPU     59.16s WALL (     769 calls)

     General routines
     calbec       :    159.47s CPU    167.49s WALL (     985 calls)
     fft          :     42.66s CPU     43.91s WALL (    1903 calls)
     ffts         :     16.86s CPU     16.90s WALL (   12983 calls)
     fftw         :    253.72s CPU    254.43s WALL (  344432 calls)
     interpolate  :      1.64s CPU      1.71s WALL (     210 calls)
 
     Parallel routines
 
     PWSCF        :  21m58.73s CPU  22m53.97s WALL

 
   This run was terminated on:  20: 5:45  19Nov2025            

=------------------------------------------------------------------------------=
   JOB DONE.
=------------------------------------------------------------------------------=
