
     Program PWSCF v.7.2 starts on 17Nov2025 at 22: 2:23 

     This program is part of the open-source Quantum ESPRESSO suite
     for quantum simulation of materials; please cite
         "P. Giannozzi et al., J. Phys.:Condens. Matter 21 395502 (2009);
         "P. Giannozzi et al., J. Phys.:Condens. Matter 29 465901 (2017);
         "P. Giannozzi et al., J. Chem. Phys. 152 154105 (2020);
          URL http://www.quantum-espresso.org", 
     in publications or presentations arising from this work. More details at
     http://www.quantum-espresso.org/quote

     Parallel version (MPI), running on    64 processors

     MPI processes distributed on     4 nodes
     375422 MiB available memory on the printing compute node when the environment starts
 
     Reading input from PWINPUT_atm157_zp

     Current dimensions of program PWSCF are:
     Max number of different atomic species (ntypx) = 10
     Max number of k-points (npk) =  40000
     Max angular momentum in pseudopotentials (lmaxx) =  4
     Presently no symmetry can be used with electric field

     file Ni.pbe-n-rrkjus_psl.1.0.0.UPF: wavefunction(s)  3D renormalized
     file Mn.pbe-spn-rrkjus_psl.0.3.1.UPF: wavefunction(s)  3D renormalized
     file O.pbe-rrkjus.UPF: wavefunction(s)  2S renormalized
     file H.pbe-rrkjus.UPF: wavefunction(s)  1S renormalized

     gamma-point specific algorithms are used
 
     R & G space division:  proc/nbgrp/npool/nimage =      64
     Subspace diagonalization in iterative solution of the eigenvalue problem:
     one sub-group per band group will be used
     custom distributed-memory algorithm (size of sub-group:  7*  7 procs)

 
     Parallelization info
     --------------------
     sticks:   dense  smooth     PW     G-vecs:    dense   smooth      PW
     Min         214      85     20                61830    15614    1928
     Max         216      86     22                61864    15658    1982
     Sum       13727    5503   1375              3958051  1001255  125211
 
     Using Slab Decomposition
 


     bravais-lattice index     =            0
     lattice parameter (alat)  =      17.8532  a.u.
     unit-cell volume          =   20962.6682 (a.u.)^3
     number of atoms/cell      =          158
     number of atomic types    =            5
     number of electrons       =      1108.00
     number of Kohn-Sham states=          665
     kinetic-energy cutoff     =      50.0000  Ry
     charge density cutoff     =     500.0000  Ry
     scf convergence threshold =      1.0E-06
     mixing beta               =       0.1000
     number of iterations used =            8  local-TF  mixing
     Exchange-correlation=  SLA  PW   PBE  PBE
                           (   1   4   3   4   0   0   0)

     celldm(1)=  17.853155  celldm(2)=   0.000000  celldm(3)=   0.000000
     celldm(4)=   0.000000  celldm(5)=   0.000000  celldm(6)=   0.000000

     crystal axes: (cart. coord. in units of alat)
               a(1) = (   1.000000   0.000000   0.000000 )  
               a(2) = (   0.003237   1.081997   0.000000 )  
               a(3) = (   0.000000   0.000000   3.404673 )  

     reciprocal axes: (cart. coord. in units 2 pi/alat)
               b(1) = (  1.000000 -0.002992  0.000000 )  
               b(2) = (  0.000000  0.924217  0.000000 )  
               b(3) = (  0.000000  0.000000  0.293714 )  


     PseudoPot. # 1 for Ni read from file:
     ~/PSEUDO/Ni.pbe-n-rrkjus_psl.1.0.0.UPF
     MD5 check sum: Not computed, couldn't open file
     Pseudo is Ultrasoft + core correction, Zval = 10.0
     Generated using "atomic" code by A. Dal Corso  v.5.1.2
     Using radial grid of 1195 points,  6 beta functions with: 
                l(1) =   0
                l(2) =   0
                l(3) =   1
                l(4) =   1
                l(5) =   2
                l(6) =   2
     Q(r) pseudized with 0 coefficients 


     PseudoPot. # 2 for Mn read from file:
     ~/PSEUDO/Mn.pbe-spn-rrkjus_psl.0.3.1.UPF
     MD5 check sum: Not computed, couldn't open file
     Pseudo is Ultrasoft + core correction, Zval = 15.0
     Generated using &quot;atomic&quot; code by A. Dal Corso  v.6.2.2
     Using radial grid of 1187 points,  6 beta functions with: 
                l(1) =   0
                l(2) =   0
                l(3) =   1
                l(4) =   1
                l(5) =   2
                l(6) =   2
     Q(r) pseudized with 0 coefficients 


     PseudoPot. # 3 for P  read from file:
     ~/PSEUDO/P.pbe-n-rrkjus_psl.1.0.0.UPF
     MD5 check sum: Not computed, couldn't open file
     Pseudo is Ultrasoft + core correction, Zval =  5.0
     Generated using "atomic" code by A. Dal Corso  v.5.1
     Using radial grid of 1147 points,  6 beta functions with: 
                l(1) =   0
                l(2) =   0
                l(3) =   1
                l(4) =   1
                l(5) =   2
                l(6) =   2
     Q(r) pseudized with 0 coefficients 


     PseudoPot. # 4 for O  read from file:
     ~/PSEUDO/O.pbe-rrkjus.UPF
     MD5 check sum: Not computed, couldn't open file
     Pseudo is Ultrasoft, Zval =  6.0
     Generated by new atomic code, or converted to UPF format
     Using radial grid of 1269 points,  4 beta functions with: 
                l(1) =   0
                l(2) =   0
                l(3) =   1
                l(4) =   1
     Q(r) pseudized with 0 coefficients 


     PseudoPot. # 5 for H  read from file:
     ~/PSEUDO/H.pbe-rrkjus.UPF
     MD5 check sum: Not computed, couldn't open file
     Pseudo is Ultrasoft, Zval =  1.0
     Generated by new atomic code, or converted to UPF format
     Using radial grid of 1061 points,  2 beta functions with: 
                l(1) =   0
                l(2) =   0
     Q(r) pseudized with 0 coefficients 


     atomic species   valence    mass     pseudopotential
     Ni               10.00    58.69300     Ni( 1.00)
     Mn               15.00    54.93800     Mn( 1.00)
     P                 5.00    30.97300     P ( 1.00)
     O                 6.00    15.99900     O ( 1.00)
     H                 1.00     1.00790     H ( 1.00)

     Starting magnetic structure 
     atomic species   magnetization
     Ni              1.000
     Mn              1.000
     P               1.000
     O               1.000
     H               0.000

     No symmetry found



   Cartesian axes

     site n.     atom                  positions (alat units)
         1        Ni     tau(   1) = (   0.2448189   0.8359134   0.1216996  )
         2        Ni     tau(   2) = (   0.4920952   0.7731948   0.4438949  )
         3        Mn     tau(   3) = (   0.0113021   0.2918949   0.1160512  )
         4        Ni     tau(   4) = (   0.2586115   0.2268566   0.4417628  )
         5        Ni     tau(   5) = (   1.0019827   1.0705803   0.2835623  )
         6        Ni     tau(   6) = (   0.2518099   0.5339061   0.2823483  )
         7        Ni     tau(   7) = (   0.7400999   0.8349186   0.1225624  )
         8        Mn     tau(   8) = (   0.9886961   0.7700845   0.4492175  )
         9        Mn     tau(   9) = (   0.5113421   0.2944667   0.1158892  )
        10        Ni     tau(  10) = (   0.7560857   0.2263843   0.4422798  )
        11        Ni     tau(  11) = (   0.5009386   1.0712238   0.2822610  )
        12        Ni     tau(  12) = (   0.7496978   0.5336600   0.2834396  )
        13        P      tau(  13) = (   0.2147792   0.9686896   0.4382665  )
        14        P      tau(  14) = (   0.4607377   0.6441916   0.1265334  )
        15        P      tau(  15) = (   0.2883218   0.0913464   0.1265752  )
        16        P      tau(  16) = (   0.0408981   0.4221836   0.4354960  )
        17        O      tau(  17) = (   0.1380864   0.9007819   0.3023220  )
        18        O      tau(  18) = (   0.3817439   0.7113683   0.2624610  )
        19        O      tau(  19) = (   0.3638364   0.1608547   0.2624417  )
        20        O      tau(  20) = (   0.1207568   0.3545755   0.3021219  )
        21        O      tau(  21) = (   0.1552194   0.8797563   0.5625160  )
        22        O      tau(  22) = (   0.4022820   0.7317969   0.0010585  )
        23        O      tau(  23) = (   0.3454844   0.1823965   0.0026336  )
        24        O      tau(  24) = (   0.1017019   0.3344979   0.5594858  )
        25        O      tau(  25) = (   0.0970074   0.5770714   0.4346455  )
        26        O      tau(  26) = (   0.3534166   1.0203677   0.1270707  )
        27        O      tau(  27) = (   0.3778024   0.4172402   0.4261028  )
        28        O      tau(  28) = (   0.1256171   0.0954063   0.1372153  )
        29        O      tau(  29) = (   0.1232168   0.6482422   0.1385172  )
        30        O      tau(  30) = (   0.4028533   0.4897833   0.1289718  )
        31        O      tau(  31) = (   0.1511050   0.0405554   0.4369979  )
        32        O      tau(  32) = (   0.3776556   0.9624293   0.4288159  )
        33        P      tau(  33) = (   0.7084770   0.9682119   0.4394551  )
        34        P      tau(  34) = (   0.9603154   0.6409658   0.1292469  )
        35        P      tau(  35) = (   0.7875734   0.0899770   0.1274098  )
        36        P      tau(  36) = (   0.5405152   0.4272620   0.4364455  )
        37        O      tau(  37) = (   0.6323583   0.8977630   0.3036670  )
        38        O      tau(  38) = (   0.8809646   0.7091921   0.2627111  )
        39        O      tau(  39) = (   0.8631054   0.1587239   0.2636487  )
        40        O      tau(  40) = (   0.6202581   0.3578380   0.3034239  )
        41        O      tau(  41) = (   0.6499160   0.8772596   0.5630912  )
        42        O      tau(  42) = (   0.8990171   0.7283464   0.0054426  )
        43        O      tau(  43) = (   0.8448361   0.1806154   0.0030658  )
        44        O      tau(  44) = (   0.6023096   0.3392612   0.5600469  )
        45        O      tau(  45) = (   0.5960222   0.5826131   0.4346340  )
        46        O      tau(  46) = (   0.8515023   1.0184215   0.1281632  )
        47        O      tau(  47) = (   0.8779640   0.4148900   0.4260983  )
        48        O      tau(  48) = (   0.6251159   0.0957170   0.1376895  )
        49        O      tau(  49) = (   0.6237654   0.6481585   0.1378370  )
        50        O      tau(  50) = (   0.9038046   0.4863338   0.1307354  )
        51        O      tau(  51) = (   0.6458737   0.0402574   0.4377979  )
        52        O      tau(  52) = (   0.8712434   0.9635255   0.4285638  )
        53        Ni     tau(  53) = (   0.2420320   0.8169913   0.7491577  )
        54        Ni     tau(  54) = (   0.4893084   0.7542727   1.0713530  )
        55        Mn     tau(  55) = (   0.0085152   0.2729728   0.7435093  )
        56        Ni     tau(  56) = (   0.2558246   0.2079345   1.0692209  )
        57        Ni     tau(  57) = (   0.9991959   1.0516583   0.9110204  )
        58        Ni     tau(  58) = (   0.2490231   0.5149840   0.9098064  )
        59        Ni     tau(  59) = (   0.7373131   0.8159965   0.7500205  )
        60        Mn     tau(  60) = (   0.9859093   0.7511625   1.0766756  )
        61        Mn     tau(  61) = (   0.5085552   0.2755447   0.7433473  )
        62        Ni     tau(  62) = (   0.7532989   0.2074622   1.0697379  )
        63        Ni     tau(  63) = (   0.4981517   1.0523018   0.9097191  )
        64        Ni     tau(  64) = (   0.7469109   0.5147379   0.9108977  )
        65        P      tau(  65) = (   0.2119924   0.9497675   1.0657246  )
        66        P      tau(  66) = (   0.4579509   0.6252695   0.7539915  )
        67        P      tau(  67) = (   0.2855349   0.0724244   0.7540333  )
        68        P      tau(  68) = (   0.0381112   0.4032615   1.0629541  )
        69        O      tau(  69) = (   0.1352995   0.8818598   0.9297801  )
        70        O      tau(  70) = (   0.3789570   0.6924463   0.8899191  )
        71        O      tau(  71) = (   0.3610496   0.1419327   0.8898998  )
        72        O      tau(  72) = (   0.1179700   0.3356534   0.9295800  )
        73        O      tau(  73) = (   0.1524325   0.8608343   1.1899741  )
        74        O      tau(  74) = (   0.3994952   0.7128748   0.6285166  )
        75        O      tau(  75) = (   0.3426976   0.1634744   0.6300917  )
        76        O      tau(  76) = (   0.0989151   0.3155758   1.1869439  )
        77        O      tau(  77) = (   0.0942206   0.5581494   1.0621036  )
        78        O      tau(  78) = (   0.3506297   1.0014456   0.7545288  )
        79        O      tau(  79) = (   0.3750155   0.3983181   1.0535609  )
        80        O      tau(  80) = (   0.1228303   0.0764842   0.7646734  )
        81        O      tau(  81) = (   0.1204299   0.6293201   0.7659753  )
        82        O      tau(  82) = (   0.4000664   0.4708612   0.7564299  )
        83        O      tau(  83) = (   0.1483182   0.0216333   1.0644560  )
        84        O      tau(  84) = (   0.3748687   0.9435072   1.0562740  )
        85        P      tau(  85) = (   0.7056901   0.9492898   1.0669132  )
        86        P      tau(  86) = (   0.9575286   0.6220438   0.7567050  )
        87        P      tau(  87) = (   0.7847866   0.0710549   0.7548679  )
        88        P      tau(  88) = (   0.5377283   0.4083400   1.0639036  )
        89        O      tau(  89) = (   0.6295714   0.8788409   0.9311251  )
        90        O      tau(  90) = (   0.8781778   0.6902700   0.8901692  )
        91        O      tau(  91) = (   0.8603186   0.1398018   0.8911068  )
        92        O      tau(  92) = (   0.6174712   0.3389159   0.9308820  )
        93        O      tau(  93) = (   0.6471291   0.8583376   1.1905493  )
        94        O      tau(  94) = (   0.8962302   0.7094244   0.6329007  )
        95        O      tau(  95) = (   0.8420493   0.1616933   0.6305239  )
        96        O      tau(  96) = (   0.5995227   0.3203391   1.1875050  )
        97        O      tau(  97) = (   0.5932354   0.5636910   1.0620921  )
        98        O      tau(  98) = (   0.8487155   0.9994995   0.7556213  )
        99        O      tau(  99) = (   0.8751772   0.3959680   1.0535564  )
       100        O      tau( 100) = (   0.6223291   0.0767949   0.7651476  )
       101        O      tau( 101) = (   0.6209785   0.6292365   0.7652951  )
       102        O      tau( 102) = (   0.9010178   0.4674118   0.7581935  )
       103        O      tau( 103) = (   0.6430869   0.0213354   1.0652560  )
       104        O      tau( 104) = (   0.8684566   0.9446034   1.0560219  )
       105        Ni     tau( 105) = (   0.2412023   0.8004481   1.3761697  )
       106        Ni     tau( 106) = (   0.4986735   0.7355768   1.6794178  )
       107        Mn     tau( 107) = (   0.0058178   0.2579714   1.3748439  )
       108        Ni     tau( 108) = (   0.2445030   0.1966672   1.6827613  )
       109        Ni     tau( 109) = (   0.9973019   1.0372672   1.5419400  )
       110        Ni     tau( 110) = (   0.2442193   0.4988167   1.5412053  )
       111        Ni     tau( 111) = (   0.7355958   0.7989306   1.3771896  )
       112        Mn     tau( 112) = (   0.9955940   0.7374460   1.6981170  )
       113        Mn     tau( 113) = (   0.5084073   0.2597986   1.3740649  )
       114        Ni     tau( 114) = (   0.7506413   0.1876866   1.7157338  )
       115        Ni     tau( 115) = (   0.4999815   1.0354405   1.5368422  )
       116        Ni     tau( 116) = (   0.7421734   0.4941468   1.5447217  )
       117        P      tau( 117) = (   0.2134520   0.9305608   1.6928748  )
       118        P      tau( 118) = (   0.4552265   0.6038409   1.3792233  )
       119        P      tau( 119) = (   0.2846976   0.0570133   1.3802773  )
       120        P      tau( 120) = (   0.0325224   0.3864354   1.7029347  )
       121        O      tau( 121) = (   0.1349751   0.8706564   1.5506288  )
       122        O      tau( 122) = (   0.3764107   0.6721600   1.5149202  )
       123        O      tau( 123) = (   0.3606206   0.1260236   1.5156957  )
       124        O      tau( 124) = (   0.1092748   0.3280951   1.5591652  )
       125        O      tau( 125) = (   0.1511793   0.8339695   1.8079082  )
       126        O      tau( 126) = (   0.3964659   0.6926639   1.2544695  )
       127        O      tau( 127) = (   0.3425042   0.1476694   1.2561401  )
       128        O      tau( 128) = (   0.0960478   0.2915149   1.8172940  )
       129        O      tau( 129) = (   0.0879065   0.5436709   1.7030381  )
       130        O      tau( 130) = (   0.3488342   0.9858816   1.3801817  )
       131        O      tau( 131) = (   0.3671736   0.3798408   1.6812659  )
       132        O      tau( 132) = (   0.1219276   0.0647475   1.3934455  )
       133        O      tau( 133) = (   0.1179523   0.6112524   1.3972003  )
       134        O      tau( 134) = (   0.3951101   0.4502108   1.3814183  )
       135        O      tau( 135) = (   0.1554058   0.0046046   1.6969583  )
       136        O      tau( 136) = (   0.3765182   0.9212570   1.6810882  )
       137        P      tau( 137) = (   0.7067285   0.9241104   1.6956373  )
       138        P      tau( 138) = (   0.9550835   0.6030567   1.3877912  )
       139        P      tau( 139) = (   0.7840039   0.0566892   1.3823828  )
       140        P      tau( 140) = (   0.5313930   0.3840217   1.6968505  )
       141        O      tau( 141) = (   0.6301565   0.8631087   1.5500589  )
       142        O      tau( 142) = (   0.8781540   0.6680547   1.5246654  )
       143        O      tau( 143) = (   0.8584090   0.1266911   1.5169273  )
       144        O      tau( 144) = (   0.6101434   0.3244037   1.5563583  )
       145        O      tau( 145) = (   0.6497044   0.8229155   1.8076390  )
       146        O      tau( 146) = (   0.8952346   0.6931503   1.2649845  )
       147        O      tau( 147) = (   0.8417833   0.1457064   1.2563858  )
       148        O      tau( 148) = (   0.5882982   0.2884097   1.8138105  )
       149        O      tau( 149) = (   0.5857986   0.5416269   1.6967524  )
       150        O      tau( 150) = (   0.8463249   0.9844929   1.3834097  )
       151        O      tau( 151) = (   0.8691606   0.3830520   1.6896730  )
       152        O      tau( 152) = (   0.6208256   0.0636157   1.3908489  )
       153        O      tau( 153) = (   0.6179180   0.6081228   1.3928659  )
       154        O      tau( 154) = (   0.8974059   0.4489532   1.3860662  )
       155        O      tau( 155) = (   0.6446735  -0.0036875   1.6925588  )
       156        O      tau( 156) = (   0.8709253   0.9175257   1.6809245  )
       157        O      tau( 157) = (   0.8700644   0.1000713   1.8392859  )
       158        H      tau( 158) = (   0.9531421   0.1587224   1.8633884  )

     -------------------------------------------------
     Parameters for Dispersion (Grimme-D2) Correction:
     -------------------------------------------------
       atom      VdW radius       C_6     

        Ni         2.952        374.666
        Mn         2.952        374.666
        P          3.222        271.980
        O          2.536         24.284
        H          1.892          4.857

     number of k points=     1  Gaussian smearing, width (Ry)=  0.0100
                       cart. coord. in units 2pi/alat
        k(    1) = (   0.0000000   0.0000000   0.0000000), wk =   1.0000000

     Dense  grid:  1979026 G-vectors     FFT dimensions: ( 128, 144, 450)

     Smooth grid:   500628 G-vectors     FFT dimensions: (  81,  90, 288)

     Estimated max dynamical RAM per process >     333.40 MB

     Estimated total dynamical RAM >      20.84 GB

     Check: negative core charge=   -0.000002
     Generating pointlists ...
     new r_m :   0.0796 (alat units)  1.4205 (a.u.) for type    1
     new r_m :   0.0881 (alat units)  1.5722 (a.u.) for type    2
     new r_m :   0.0666 (alat units)  1.1883 (a.u.) for type    3
     new r_m :   0.0431 (alat units)  0.7697 (a.u.) for type    4
     new r_m :   0.0431 (alat units)  0.7697 (a.u.) for type    5

     Initial potential from superposition of free atoms

     starting charge    1107.8886, renormalised to    1108.0000

     negative rho (up, down):  1.534E-03 4.697E-04
 
     Adding external electric field

     Computed dipole along edir(3) : 
        Dipole                1.6284 Ry au,          4.1391 Debye
        Dipole field          0.0010 Ry au, 
 
        Potential amp.       -0.1068 Ry
        Total length         54.7057 bohr
 
 
     Adding external electric field

     Computed dipole along edir(3) : 
        Dipole                1.6284 Ry au,          4.1391 Debye
        Dipole field          0.0010 Ry au, 
 
        Potential amp.       -0.1068 Ry
        Total length         54.7057 bohr
 
     Starting wfcs are  818 randomized atomic wfcs

     total cpu time spent up to now is       12.9 secs

     Self-consistent Calculation

     iteration #  1     ecut=    50.00 Ry     beta= 0.10
     Davidson diagonalization with overlap
     ethr =  1.00E-02,  avg # of iterations =  5.5

     negative rho (up, down):  4.326E-01 4.017E-07
 
     Adding external electric field

     Computed dipole along edir(3) : 
        Dipole               -3.6910 Ry au,         -9.3815 Debye
        Dipole field         -0.0022 Ry au, 
 
        Potential amp.        0.2421 Ry
        Total length         54.7057 bohr
 
 
     Adding external electric field

     Computed dipole along edir(3) : 
        Dipole               -3.6910 Ry au,         -9.3815 Debye
        Dipole field         -0.0022 Ry au, 
 
        Potential amp.        0.2421 Ry
        Total length         54.7057 bohr
 

     total cpu time spent up to now is       47.5 secs

     total energy              =   -7857.57289116 Ry
     estimated scf accuracy    <     732.53540231 Ry

     total magnetization       =   222.00 Bohr mag/cell
     absolute magnetization    =   319.83 Bohr mag/cell

     iteration #  2     ecut=    50.00 Ry     beta= 0.10
     Davidson diagonalization with overlap
     ethr =  1.00E-02,  avg # of iterations =  2.0

     negative rho (up, down):  4.050E-01 1.355E-07
 
     Adding external electric field

     Computed dipole along edir(3) : 
        Dipole               -2.5293 Ry au,         -6.4289 Debye
        Dipole field         -0.0015 Ry au, 
 
        Potential amp.        0.1659 Ry
        Total length         54.7057 bohr
 
 
     Adding external electric field

     Computed dipole along edir(3) : 
        Dipole               -2.5293 Ry au,         -6.4289 Debye
        Dipole field         -0.0015 Ry au, 
 
        Potential amp.        0.1659 Ry
        Total length         54.7057 bohr
 

     total cpu time spent up to now is       68.4 secs

     total energy              =   -7939.86058826 Ry
     estimated scf accuracy    <     196.35468672 Ry

     total magnetization       =   165.94 Bohr mag/cell
     absolute magnetization    =   212.98 Bohr mag/cell

     iteration #  3     ecut=    50.00 Ry     beta= 0.10
     Davidson diagonalization with overlap
     ethr =  1.00E-02,  avg # of iterations =  1.0

     negative rho (up, down):  3.605E-01 7.927E-08
 
     Adding external electric field

     Computed dipole along edir(3) : 
        Dipole               -2.1909 Ry au,         -5.5687 Debye
        Dipole field         -0.0013 Ry au, 
 
        Potential amp.        0.1437 Ry
        Total length         54.7057 bohr
 
 
     Adding external electric field

     Computed dipole along edir(3) : 
        Dipole               -2.1909 Ry au,         -5.5687 Debye
        Dipole field         -0.0013 Ry au, 
 
        Potential amp.        0.1437 Ry
        Total length         54.7057 bohr
 

     total cpu time spent up to now is       84.6 secs

     total energy              =   -7969.56809974 Ry
     estimated scf accuracy    <     103.92997670 Ry

     total magnetization       =   142.79 Bohr mag/cell
     absolute magnetization    =   192.09 Bohr mag/cell

     iteration #  4     ecut=    50.00 Ry     beta= 0.10
     Davidson diagonalization with overlap
     ethr =  9.38E-03,  avg # of iterations =  1.0

     negative rho (up, down):  2.828E-01 1.038E-09
 
     Adding external electric field

     Computed dipole along edir(3) : 
        Dipole               -1.9940 Ry au,         -5.0683 Debye
        Dipole field         -0.0012 Ry au, 
 
        Potential amp.        0.1308 Ry
        Total length         54.7057 bohr
 
 
     Adding external electric field

     Computed dipole along edir(3) : 
        Dipole               -1.9940 Ry au,         -5.0683 Debye
        Dipole field         -0.0012 Ry au, 
 
        Potential amp.        0.1308 Ry
        Total length         54.7057 bohr
 

     total cpu time spent up to now is       99.6 secs

     total energy              =   -8002.90893526 Ry
     estimated scf accuracy    <      84.61845572 Ry

     total magnetization       =   127.38 Bohr mag/cell
     absolute magnetization    =   178.20 Bohr mag/cell

     iteration #  5     ecut=    50.00 Ry     beta= 0.10
     Davidson diagonalization with overlap
     ethr =  7.64E-03,  avg # of iterations =  1.0

     negative rho (up, down):  4.366E-02 7.610E-09
 
     Adding external electric field

     Computed dipole along edir(3) : 
        Dipole               -1.5477 Ry au,         -3.9338 Debye
        Dipole field         -0.0009 Ry au, 
 
        Potential amp.        0.1015 Ry
        Total length         54.7057 bohr
 
 
     Adding external electric field

     Computed dipole along edir(3) : 
        Dipole               -1.5477 Ry au,         -3.9338 Debye
        Dipole field         -0.0009 Ry au, 
 
        Potential amp.        0.1015 Ry
        Total length         54.7057 bohr
 

     total cpu time spent up to now is      114.7 secs

     total energy              =   -8062.36300183 Ry
     estimated scf accuracy    <      67.41440736 Ry

     total magnetization       =   106.11 Bohr mag/cell
     absolute magnetization    =   159.61 Bohr mag/cell

     iteration #  6     ecut=    50.00 Ry     beta= 0.10
     Davidson diagonalization with overlap
     ethr =  6.08E-03,  avg # of iterations =  1.0

     negative rho (up, down):  6.925E-04 1.319E-03
 
     Adding external electric field

     Computed dipole along edir(3) : 
        Dipole               -1.1610 Ry au,         -2.9509 Debye
        Dipole field         -0.0007 Ry au, 
 
        Potential amp.        0.0761 Ry
        Total length         54.7057 bohr
 
 
     Adding external electric field

     Computed dipole along edir(3) : 
        Dipole               -1.1610 Ry au,         -2.9509 Debye
        Dipole field         -0.0007 Ry au, 
 
        Potential amp.        0.0761 Ry
        Total length         54.7057 bohr
 

     total cpu time spent up to now is      130.5 secs

     total energy              =   -8076.19980123 Ry
     estimated scf accuracy    <      15.57043472 Ry

     total magnetization       =   100.00 Bohr mag/cell
     absolute magnetization    =   133.03 Bohr mag/cell

     iteration #  7     ecut=    50.00 Ry     beta= 0.10
     Davidson diagonalization with overlap
     ethr =  1.41E-03,  avg # of iterations =  6.0

     negative rho (up, down):  6.862E-04 1.302E-03
 
     Adding external electric field

     Computed dipole along edir(3) : 
        Dipole               -1.1667 Ry au,         -2.9655 Debye
        Dipole field         -0.0007 Ry au, 
 
        Potential amp.        0.0765 Ry
        Total length         54.7057 bohr
 
 
     Adding external electric field

     Computed dipole along edir(3) : 
        Dipole               -1.1667 Ry au,         -2.9655 Debye
        Dipole field         -0.0007 Ry au, 
 
        Potential amp.        0.0765 Ry
        Total length         54.7057 bohr
 

     total cpu time spent up to now is      156.8 secs

     total energy              =   -8078.90581895 Ry
     estimated scf accuracy    <      29.35524816 Ry

     total magnetization       =    69.47 Bohr mag/cell
     absolute magnetization    =    87.07 Bohr mag/cell

     iteration #  8     ecut=    50.00 Ry     beta= 0.10
     Davidson diagonalization with overlap
     ethr =  1.41E-03,  avg # of iterations =  1.0

     negative rho (up, down):  6.968E-04 1.388E-03
 
     Adding external electric field

     Computed dipole along edir(3) : 
        Dipole               -1.1319 Ry au,         -2.8771 Debye
        Dipole field         -0.0007 Ry au, 
 
        Potential amp.        0.0742 Ry
        Total length         54.7057 bohr
 
 
     Adding external electric field

     Computed dipole along edir(3) : 
        Dipole               -1.1319 Ry au,         -2.8771 Debye
        Dipole field         -0.0007 Ry au, 
 
        Potential amp.        0.0742 Ry
        Total length         54.7057 bohr
 

     total cpu time spent up to now is      172.5 secs

     total energy              =   -8079.01090804 Ry
     estimated scf accuracy    <      29.43730402 Ry

     total magnetization       =    69.51 Bohr mag/cell
     absolute magnetization    =    86.68 Bohr mag/cell

     iteration #  9     ecut=    50.00 Ry     beta= 0.10
     Davidson diagonalization with overlap
     ethr =  1.41E-03,  avg # of iterations =  1.0

     negative rho (up, down):  7.049E-04 1.460E-03
 
     Adding external electric field

     Computed dipole along edir(3) : 
        Dipole               -1.2936 Ry au,         -3.2881 Debye
        Dipole field         -0.0008 Ry au, 
 
        Potential amp.        0.0848 Ry
        Total length         54.7057 bohr
 
 
     Adding external electric field

     Computed dipole along edir(3) : 
        Dipole               -1.2936 Ry au,         -3.2881 Debye
        Dipole field         -0.0008 Ry au, 
 
        Potential amp.        0.0848 Ry
        Total length         54.7057 bohr
 

     total cpu time spent up to now is      187.9 secs

     total energy              =   -8078.91308813 Ry
     estimated scf accuracy    <      30.14861078 Ry

     total magnetization       =    69.14 Bohr mag/cell
     absolute magnetization    =    86.05 Bohr mag/cell

     iteration # 10     ecut=    50.00 Ry     beta= 0.10
     Davidson diagonalization with overlap
     ethr =  1.41E-03,  avg # of iterations =  1.0

     negative rho (up, down):  4.488E-02 6.187E-02
 
     Adding external electric field

     Computed dipole along edir(3) : 
        Dipole               -2.0400 Ry au,         -5.1852 Debye
        Dipole field         -0.0012 Ry au, 
 
        Potential amp.        0.1338 Ry
        Total length         54.7057 bohr
 
 
     Adding external electric field

     Computed dipole along edir(3) : 
        Dipole               -2.0400 Ry au,         -5.1852 Debye
        Dipole field         -0.0012 Ry au, 
 
        Potential amp.        0.1338 Ry
        Total length         54.7057 bohr
 

     total cpu time spent up to now is      202.2 secs

     total energy              =   -8078.36752608 Ry
     estimated scf accuracy    <      27.99571944 Ry

     total magnetization       =    69.78 Bohr mag/cell
     absolute magnetization    =    85.84 Bohr mag/cell

     iteration # 11     ecut=    50.00 Ry     beta= 0.10
     Davidson diagonalization with overlap
     ethr =  1.41E-03,  avg # of iterations =  1.0

     negative rho (up, down):  1.078E-02 1.930E-02
 
     Adding external electric field

     Computed dipole along edir(3) : 
        Dipole               -1.7466 Ry au,         -4.4393 Debye
        Dipole field         -0.0010 Ry au, 
 
        Potential amp.        0.1146 Ry
        Total length         54.7057 bohr
 
 
     Adding external electric field

     Computed dipole along edir(3) : 
        Dipole               -1.7466 Ry au,         -4.4393 Debye
        Dipole field         -0.0010 Ry au, 
 
        Potential amp.        0.1146 Ry
        Total length         54.7057 bohr
 

     total cpu time spent up to now is      216.5 secs

     total energy              =   -8078.63124985 Ry
     estimated scf accuracy    <      18.21229620 Ry

     total magnetization       =    76.23 Bohr mag/cell
     absolute magnetization    =    88.13 Bohr mag/cell

     iteration # 12     ecut=    50.00 Ry     beta= 0.10
     Davidson diagonalization with overlap
     ethr =  1.41E-03,  avg # of iterations =  1.0

     negative rho (up, down):  1.260E-02 2.229E-02
 
     Adding external electric field

     Computed dipole along edir(3) : 
        Dipole               -1.7600 Ry au,         -4.4735 Debye
        Dipole field         -0.0011 Ry au, 
 
        Potential amp.        0.1154 Ry
        Total length         54.7057 bohr
 
 
     Adding external electric field

     Computed dipole along edir(3) : 
        Dipole               -1.7600 Ry au,         -4.4735 Debye
        Dipole field         -0.0011 Ry au, 
 
        Potential amp.        0.1154 Ry
        Total length         54.7057 bohr
 

     total cpu time spent up to now is      231.5 secs

     total energy              =   -8078.68964777 Ry
     estimated scf accuracy    <      24.01885053 Ry

     total magnetization       =    70.80 Bohr mag/cell
     absolute magnetization    =    84.20 Bohr mag/cell

     iteration # 13     ecut=    50.00 Ry     beta= 0.10
     Davidson diagonalization with overlap
     ethr =  1.41E-03,  avg # of iterations =  1.0

     negative rho (up, down):  2.209E-02 3.751E-02
 
     Adding external electric field

     Computed dipole along edir(3) : 
        Dipole               -1.7281 Ry au,         -4.3923 Debye
        Dipole field         -0.0010 Ry au, 
 
        Potential amp.        0.1133 Ry
        Total length         54.7057 bohr
 
 
     Adding external electric field

     Computed dipole along edir(3) : 
        Dipole               -1.7281 Ry au,         -4.3923 Debye
        Dipole field         -0.0010 Ry au, 
 
        Potential amp.        0.1133 Ry
        Total length         54.7057 bohr
 

     total cpu time spent up to now is      246.1 secs

     total energy              =   -8078.62736311 Ry
     estimated scf accuracy    <      23.69450708 Ry

     total magnetization       =    70.77 Bohr mag/cell
     absolute magnetization    =    84.16 Bohr mag/cell

     iteration # 14     ecut=    50.00 Ry     beta= 0.10
     Davidson diagonalization with overlap
     ethr =  1.41E-03,  avg # of iterations =  1.0

     negative rho (up, down):  2.587E-01 2.755E-01
 
     Adding external electric field

     Computed dipole along edir(3) : 
        Dipole               -2.0717 Ry au,         -5.2657 Debye
        Dipole field         -0.0012 Ry au, 
 
        Potential amp.        0.1359 Ry
        Total length         54.7057 bohr
 
 
     Adding external electric field

     Computed dipole along edir(3) : 
        Dipole               -2.0717 Ry au,         -5.2657 Debye
        Dipole field         -0.0012 Ry au, 
 
        Potential amp.        0.1359 Ry
        Total length         54.7057 bohr
 

     total cpu time spent up to now is      261.0 secs

     total energy              =   -8077.35850534 Ry
     estimated scf accuracy    <      23.00363429 Ry

     total magnetization       =    70.19 Bohr mag/cell
     absolute magnetization    =    83.17 Bohr mag/cell

     iteration # 15     ecut=    50.00 Ry     beta= 0.10
     Davidson diagonalization with overlap
     ethr =  1.41E-03,  avg # of iterations =  2.0

     negative rho (up, down):  2.183E-01 2.406E-01
 
     Adding external electric field

     Computed dipole along edir(3) : 
        Dipole               -2.1889 Ry au,         -5.5637 Debye
        Dipole field         -0.0013 Ry au, 
 
        Potential amp.        0.1436 Ry
        Total length         54.7057 bohr
 
 
     Adding external electric field

     Computed dipole along edir(3) : 
        Dipole               -2.1889 Ry au,         -5.5637 Debye
        Dipole field         -0.0013 Ry au, 
 
        Potential amp.        0.1436 Ry
        Total length         54.7057 bohr
 

     total cpu time spent up to now is      277.5 secs

     total energy              =   -8078.99257970 Ry
     estimated scf accuracy    <       8.92359240 Ry

     total magnetization       =    93.52 Bohr mag/cell
     absolute magnetization    =   100.87 Bohr mag/cell

     iteration # 16     ecut=    50.00 Ry     beta= 0.10
     Davidson diagonalization with overlap
     ethr =  8.05E-04,  avg # of iterations =  1.0

     negative rho (up, down):  6.750E-02 7.147E-02
 
     Adding external electric field

     Computed dipole along edir(3) : 
        Dipole               -2.5174 Ry au,         -6.3987 Debye
        Dipole field         -0.0015 Ry au, 
 
        Potential amp.        0.1651 Ry
        Total length         54.7057 bohr
 
 
     Adding external electric field

     Computed dipole along edir(3) : 
        Dipole               -2.5174 Ry au,         -6.3987 Debye
        Dipole field         -0.0015 Ry au, 
 
        Potential amp.        0.1651 Ry
        Total length         54.7057 bohr
 

     total cpu time spent up to now is      291.4 secs

     total energy              =   -8077.74221985 Ry
     estimated scf accuracy    <       6.16912864 Ry

     total magnetization       =    95.19 Bohr mag/cell
     absolute magnetization    =   101.48 Bohr mag/cell

     iteration # 17     ecut=    50.00 Ry     beta= 0.10
     Davidson diagonalization with overlap
     ethr =  5.57E-04,  avg # of iterations =  2.0

     negative rho (up, down):  6.126E-02 6.590E-02
 
     Adding external electric field

     Computed dipole along edir(3) : 
        Dipole               -2.4313 Ry au,         -6.1798 Debye
        Dipole field         -0.0015 Ry au, 
 
        Potential amp.        0.1595 Ry
        Total length         54.7057 bohr
 
 
     Adding external electric field

     Computed dipole along edir(3) : 
        Dipole               -2.4313 Ry au,         -6.1798 Debye
        Dipole field         -0.0015 Ry au, 
 
        Potential amp.        0.1595 Ry
        Total length         54.7057 bohr
 

     total cpu time spent up to now is      308.0 secs

     total energy              =   -8078.47030335 Ry
     estimated scf accuracy    <       5.52199331 Ry

     total magnetization       =    89.05 Bohr mag/cell
     absolute magnetization    =    95.63 Bohr mag/cell

     iteration # 18     ecut=    50.00 Ry     beta= 0.10
     Davidson diagonalization with overlap
     ethr =  4.98E-04,  avg # of iterations =  1.0

     negative rho (up, down):  3.589E-02 4.324E-02
 
     Adding external electric field

     Computed dipole along edir(3) : 
        Dipole               -1.9973 Ry au,         -5.0767 Debye
        Dipole field         -0.0012 Ry au, 
 
        Potential amp.        0.1310 Ry
        Total length         54.7057 bohr
 
 
     Adding external electric field

     Computed dipole along edir(3) : 
        Dipole               -1.9973 Ry au,         -5.0767 Debye
        Dipole field         -0.0012 Ry au, 
 
        Potential amp.        0.1310 Ry
        Total length         54.7057 bohr
 

     total cpu time spent up to now is      322.5 secs

     total energy              =   -8078.39753678 Ry
     estimated scf accuracy    <       6.02033729 Ry

     total magnetization       =    88.28 Bohr mag/cell
     absolute magnetization    =    95.20 Bohr mag/cell

     iteration # 19     ecut=    50.00 Ry     beta= 0.10
     Davidson diagonalization with overlap
     ethr =  4.98E-04,  avg # of iterations =  1.0

     negative rho (up, down):  6.190E-02 7.307E-02
 
     Adding external electric field

     Computed dipole along edir(3) : 
        Dipole               -2.4589 Ry au,         -6.2499 Debye
        Dipole field         -0.0015 Ry au, 
 
        Potential amp.        0.1613 Ry
        Total length         54.7057 bohr
 
 
     Adding external electric field

     Computed dipole along edir(3) : 
        Dipole               -2.4589 Ry au,         -6.2499 Debye
        Dipole field         -0.0015 Ry au, 
 
        Potential amp.        0.1613 Ry
        Total length         54.7057 bohr
 

     total cpu time spent up to now is      336.7 secs

     total energy              =   -8078.46269318 Ry
     estimated scf accuracy    <       6.70798132 Ry

     total magnetization       =    87.04 Bohr mag/cell
     absolute magnetization    =    94.42 Bohr mag/cell

     iteration # 20     ecut=    50.00 Ry     beta= 0.10
     Davidson diagonalization with overlap
     ethr =  4.98E-04,  avg # of iterations =  1.5

     negative rho (up, down):  8.925E-02 1.194E-01
 
     Adding external electric field

     Computed dipole along edir(3) : 
        Dipole               -2.4160 Ry au,         -6.1408 Debye
        Dipole field         -0.0014 Ry au, 
 
        Potential amp.        0.1585 Ry
        Total length         54.7057 bohr
 
 
     Adding external electric field

     Computed dipole along edir(3) : 
        Dipole               -2.4160 Ry au,         -6.1408 Debye
        Dipole field         -0.0014 Ry au, 
 
        Potential amp.        0.1585 Ry
        Total length         54.7057 bohr
 

     total cpu time spent up to now is      362.1 secs

     total energy              =   -8078.21938595 Ry
     estimated scf accuracy    <       4.39516910 Ry

     total magnetization       =    89.76 Bohr mag/cell
     absolute magnetization    =    95.71 Bohr mag/cell

     iteration # 21     ecut=    50.00 Ry     beta= 0.10
     Davidson diagonalization with overlap
     ethr =  3.97E-04,  avg # of iterations =  1.5

     negative rho (up, down):  7.379E-02 1.038E-01
 
     Adding external electric field

     Computed dipole along edir(3) : 
        Dipole               -2.0458 Ry au,         -5.2000 Debye
        Dipole field         -0.0012 Ry au, 
 
        Potential amp.        0.1342 Ry
        Total length         54.7057 bohr
 
 
     Adding external electric field

     Computed dipole along edir(3) : 
        Dipole               -2.0458 Ry au,         -5.2000 Debye
        Dipole field         -0.0012 Ry au, 
 
        Potential amp.        0.1342 Ry
        Total length         54.7057 bohr
 

     total cpu time spent up to now is      377.2 secs

     total energy              =   -8078.30565496 Ry
     estimated scf accuracy    <       1.68470564 Ry

     total magnetization       =    94.65 Bohr mag/cell
     absolute magnetization    =    98.59 Bohr mag/cell

     iteration # 22     ecut=    50.00 Ry     beta= 0.10
     Davidson diagonalization with overlap
     ethr =  1.52E-04,  avg # of iterations =  9.5

     negative rho (up, down):  5.204E-02 8.115E-02
 
     Adding external electric field

     Computed dipole along edir(3) : 
        Dipole               -1.8785 Ry au,         -4.7747 Debye
        Dipole field         -0.0011 Ry au, 
 
        Potential amp.        0.1232 Ry
        Total length         54.7057 bohr
 
 
     Adding external electric field

     Computed dipole along edir(3) : 
        Dipole               -1.8785 Ry au,         -4.7747 Debye
        Dipole field         -0.0011 Ry au, 
 
        Potential amp.        0.1232 Ry
        Total length         54.7057 bohr
 

     total cpu time spent up to now is      398.9 secs

     total energy              =   -8078.27210261 Ry
     estimated scf accuracy    <       1.98907183 Ry

     total magnetization       =    92.07 Bohr mag/cell
     absolute magnetization    =    96.46 Bohr mag/cell

     iteration # 23     ecut=    50.00 Ry     beta= 0.10
     Davidson diagonalization with overlap
     ethr =  1.52E-04,  avg # of iterations =  1.5

     negative rho (up, down):  4.107E-02 6.815E-02
 
     Adding external electric field

     Computed dipole along edir(3) : 
        Dipole               -1.7288 Ry au,         -4.3942 Debye
        Dipole field         -0.0010 Ry au, 
 
        Potential amp.        0.1134 Ry
        Total length         54.7057 bohr
 
 
     Adding external electric field

     Computed dipole along edir(3) : 
        Dipole               -1.7288 Ry au,         -4.3942 Debye
        Dipole field         -0.0010 Ry au, 
 
        Potential amp.        0.1134 Ry
        Total length         54.7057 bohr
 

     total cpu time spent up to now is      413.9 secs

     total energy              =   -8078.29066660 Ry
     estimated scf accuracy    <       1.29589293 Ry

     total magnetization       =    92.15 Bohr mag/cell
     absolute magnetization    =    95.91 Bohr mag/cell

     iteration # 24     ecut=    50.00 Ry     beta= 0.10
     Davidson diagonalization with overlap
     ethr =  1.17E-04,  avg # of iterations =  1.0

     negative rho (up, down):  1.676E-02 3.339E-02
 
     Adding external electric field

     Computed dipole along edir(3) : 
        Dipole               -1.5098 Ry au,         -3.8376 Debye
        Dipole field         -0.0009 Ry au, 
 
        Potential amp.        0.0990 Ry
        Total length         54.7057 bohr
 
 
     Adding external electric field

     Computed dipole along edir(3) : 
        Dipole               -1.5098 Ry au,         -3.8376 Debye
        Dipole field         -0.0009 Ry au, 
 
        Potential amp.        0.0990 Ry
        Total length         54.7057 bohr
 

     total cpu time spent up to now is      428.4 secs

     total energy              =   -8078.34391202 Ry
     estimated scf accuracy    <       0.57291179 Ry

     total magnetization       =    95.11 Bohr mag/cell
     absolute magnetization    =    97.70 Bohr mag/cell

     iteration # 25     ecut=    50.00 Ry     beta= 0.10
     Davidson diagonalization with overlap
     ethr =  5.17E-05,  avg # of iterations =  2.0

     negative rho (up, down):  7.076E-03 1.810E-02
 
     Adding external electric field

     Computed dipole along edir(3) : 
        Dipole               -1.2513 Ry au,         -3.1804 Debye
        Dipole field         -0.0008 Ry au, 
 
        Potential amp.        0.0821 Ry
        Total length         54.7057 bohr
 
 
     Adding external electric field

     Computed dipole along edir(3) : 
        Dipole               -1.2513 Ry au,         -3.1804 Debye
        Dipole field         -0.0008 Ry au, 
 
        Potential amp.        0.0821 Ry
        Total length         54.7057 bohr
 

     total cpu time spent up to now is      444.2 secs

     total energy              =   -8078.40438205 Ry
     estimated scf accuracy    <       0.40578236 Ry

     total magnetization       =    94.87 Bohr mag/cell
     absolute magnetization    =    97.27 Bohr mag/cell

     iteration # 26     ecut=    50.00 Ry     beta= 0.10
     Davidson diagonalization with overlap
     ethr =  3.66E-05,  avg # of iterations =  2.0

     negative rho (up, down):  7.742E-03 1.717E-02
 
     Adding external electric field

     Computed dipole along edir(3) : 
        Dipole               -1.2791 Ry au,         -3.2510 Debye
        Dipole field         -0.0008 Ry au, 
 
        Potential amp.        0.0839 Ry
        Total length         54.7057 bohr
 
 
     Adding external electric field

     Computed dipole along edir(3) : 
        Dipole               -1.2791 Ry au,         -3.2510 Debye
        Dipole field         -0.0008 Ry au, 
 
        Potential amp.        0.0839 Ry
        Total length         54.7057 bohr
 

     total cpu time spent up to now is      460.4 secs

     total energy              =   -8078.43963645 Ry
     estimated scf accuracy    <       1.38419228 Ry

     total magnetization       =    92.86 Bohr mag/cell
     absolute magnetization    =    95.44 Bohr mag/cell

     iteration # 27     ecut=    50.00 Ry     beta= 0.10
     Davidson diagonalization with overlap
     ethr =  3.66E-05,  avg # of iterations =  1.5

     negative rho (up, down):  1.225E-02 2.179E-02
 
     Adding external electric field

     Computed dipole along edir(3) : 
        Dipole               -1.3489 Ry au,         -3.4286 Debye
        Dipole field         -0.0008 Ry au, 
 
        Potential amp.        0.0885 Ry
        Total length         54.7057 bohr
 
 
     Adding external electric field

     Computed dipole along edir(3) : 
        Dipole               -1.3489 Ry au,         -3.4286 Debye
        Dipole field         -0.0008 Ry au, 
 
        Potential amp.        0.0885 Ry
        Total length         54.7057 bohr
 

     total cpu time spent up to now is      475.7 secs

     total energy              =   -8078.47729017 Ry
     estimated scf accuracy    <       0.89835890 Ry

     total magnetization       =    93.92 Bohr mag/cell
     absolute magnetization    =    96.52 Bohr mag/cell

     iteration # 28     ecut=    50.00 Ry     beta= 0.10
     Davidson diagonalization with overlap
     ethr =  3.66E-05,  avg # of iterations =  3.5

     negative rho (up, down):  5.775E-03 9.517E-03
 
     Adding external electric field

     Computed dipole along edir(3) : 
        Dipole               -1.1838 Ry au,         -3.0090 Debye
        Dipole field         -0.0007 Ry au, 
 
        Potential amp.        0.0776 Ry
        Total length         54.7057 bohr
 
 
     Adding external electric field

     Computed dipole along edir(3) : 
        Dipole               -1.1838 Ry au,         -3.0090 Debye
        Dipole field         -0.0007 Ry au, 
 
        Potential amp.        0.0776 Ry
        Total length         54.7057 bohr
 

     total cpu time spent up to now is      493.8 secs

     total energy              =   -8078.54050063 Ry
     estimated scf accuracy    <       0.63762076 Ry

     total magnetization       =    94.31 Bohr mag/cell
     absolute magnetization    =    97.09 Bohr mag/cell

     iteration # 29     ecut=    50.00 Ry     beta= 0.10
     Davidson diagonalization with overlap
     ethr =  3.66E-05,  avg # of iterations =  2.0

     negative rho (up, down):  1.949E-02 3.032E-02
 
     Adding external electric field

     Computed dipole along edir(3) : 
        Dipole               -1.4356 Ry au,         -3.6489 Debye
        Dipole field         -0.0009 Ry au, 
 
        Potential amp.        0.0942 Ry
        Total length         54.7057 bohr
 
 
     Adding external electric field

     Computed dipole along edir(3) : 
        Dipole               -1.4356 Ry au,         -3.6489 Debye
        Dipole field         -0.0009 Ry au, 
 
        Potential amp.        0.0942 Ry
        Total length         54.7057 bohr
 

     total cpu time spent up to now is      510.0 secs

     total energy              =   -8078.47844110 Ry
     estimated scf accuracy    <       1.31536181 Ry

     total magnetization       =    94.09 Bohr mag/cell
     absolute magnetization    =    96.66 Bohr mag/cell

     iteration # 30     ecut=    50.00 Ry     beta= 0.10
     Davidson diagonalization with overlap
     ethr =  3.66E-05,  avg # of iterations =  2.0

     negative rho (up, down):  1.239E-02 1.772E-02
 
     Adding external electric field

     Computed dipole along edir(3) : 
        Dipole               -1.3269 Ry au,         -3.3726 Debye
        Dipole field         -0.0008 Ry au, 
 
        Potential amp.        0.0870 Ry
        Total length         54.7057 bohr
 
 
     Adding external electric field

     Computed dipole along edir(3) : 
        Dipole               -1.3269 Ry au,         -3.3726 Debye
        Dipole field         -0.0008 Ry au, 
 
        Potential amp.        0.0870 Ry
        Total length         54.7057 bohr
 

     total cpu time spent up to now is      526.4 secs

     total energy              =   -8078.51348234 Ry
     estimated scf accuracy    <       0.34392044 Ry

     total magnetization       =    95.79 Bohr mag/cell
     absolute magnetization    =    98.33 Bohr mag/cell

     iteration # 31     ecut=    50.00 Ry     beta= 0.10
     Davidson diagonalization with overlap
     ethr =  3.10E-05,  avg # of iterations =  2.0

     negative rho (up, down):  1.408E-02 1.965E-02
 
     Adding external electric field

     Computed dipole along edir(3) : 
        Dipole               -1.3419 Ry au,         -3.4107 Debye
        Dipole field         -0.0008 Ry au, 
 
        Potential amp.        0.0880 Ry
        Total length         54.7057 bohr
 
 
     Adding external electric field

     Computed dipole along edir(3) : 
        Dipole               -1.3419 Ry au,         -3.4107 Debye
        Dipole field         -0.0008 Ry au, 
 
        Potential amp.        0.0880 Ry
        Total length         54.7057 bohr
 

     total cpu time spent up to now is      542.7 secs

     total energy              =   -8078.51784867 Ry
     estimated scf accuracy    <       0.43744854 Ry

     total magnetization       =    96.34 Bohr mag/cell
     absolute magnetization    =    99.09 Bohr mag/cell

     iteration # 32     ecut=    50.00 Ry     beta= 0.10
     Davidson diagonalization with overlap
     ethr =  3.10E-05,  avg # of iterations =  1.0

     negative rho (up, down):  5.340E-03 8.794E-03
 
     Adding external electric field

     Computed dipole along edir(3) : 
        Dipole               -1.1891 Ry au,         -3.0225 Debye
        Dipole field         -0.0007 Ry au, 
 
        Potential amp.        0.0780 Ry
        Total length         54.7057 bohr
 
 
     Adding external electric field

     Computed dipole along edir(3) : 
        Dipole               -1.1891 Ry au,         -3.0225 Debye
        Dipole field         -0.0007 Ry au, 
 
        Potential amp.        0.0780 Ry
        Total length         54.7057 bohr
 

     total cpu time spent up to now is      556.4 secs

     total energy              =   -8078.52187946 Ry
     estimated scf accuracy    <       0.48206353 Ry

     total magnetization       =    96.19 Bohr mag/cell
     absolute magnetization    =    98.97 Bohr mag/cell

     iteration # 33     ecut=    50.00 Ry     beta= 0.10
     Davidson diagonalization with overlap
     ethr =  3.10E-05,  avg # of iterations =  1.5

     negative rho (up, down):  6.568E-03 1.165E-02
 
     Adding external electric field

     Computed dipole along edir(3) : 
        Dipole               -1.1096 Ry au,         -2.8204 Debye
        Dipole field         -0.0007 Ry au, 
 
        Potential amp.        0.0728 Ry
        Total length         54.7057 bohr
 
 
     Adding external electric field

     Computed dipole along edir(3) : 
        Dipole               -1.1096 Ry au,         -2.8204 Debye
        Dipole field         -0.0007 Ry au, 
 
        Potential amp.        0.0728 Ry
        Total length         54.7057 bohr
 

     total cpu time spent up to now is      572.5 secs

     total energy              =   -8078.52773662 Ry
     estimated scf accuracy    <       0.40235501 Ry

     total magnetization       =    96.55 Bohr mag/cell
     absolute magnetization    =    99.15 Bohr mag/cell

     iteration # 34     ecut=    50.00 Ry     beta= 0.10
     Davidson diagonalization with overlap
     ethr =  3.10E-05,  avg # of iterations =  2.0

     negative rho (up, down):  8.579E-03 1.677E-02
 
     Adding external electric field

     Computed dipole along edir(3) : 
        Dipole               -1.1884 Ry au,         -3.0206 Debye
        Dipole field         -0.0007 Ry au, 
 
        Potential amp.        0.0779 Ry
        Total length         54.7057 bohr
 
 
     Adding external electric field

     Computed dipole along edir(3) : 
        Dipole               -1.1884 Ry au,         -3.0206 Debye
        Dipole field         -0.0007 Ry au, 
 
        Potential amp.        0.0779 Ry
        Total length         54.7057 bohr
 

     total cpu time spent up to now is      588.9 secs

     total energy              =   -8078.51306765 Ry
     estimated scf accuracy    <       0.29032744 Ry

     total magnetization       =    96.77 Bohr mag/cell
     absolute magnetization    =    99.09 Bohr mag/cell

     iteration # 35     ecut=    50.00 Ry     beta= 0.10
     Davidson diagonalization with overlap
     ethr =  2.62E-05,  avg # of iterations =  1.5

     negative rho (up, down):  5.381E-03 1.028E-02
 
     Adding external electric field

     Computed dipole along edir(3) : 
        Dipole               -1.1273 Ry au,         -2.8654 Debye
        Dipole field         -0.0007 Ry au, 
 
        Potential amp.        0.0739 Ry
        Total length         54.7057 bohr
 
 
     Adding external electric field

     Computed dipole along edir(3) : 
        Dipole               -1.1273 Ry au,         -2.8654 Debye
        Dipole field         -0.0007 Ry au, 
 
        Potential amp.        0.0739 Ry
        Total length         54.7057 bohr
 

     total cpu time spent up to now is      604.7 secs

     total energy              =   -8078.51040426 Ry
     estimated scf accuracy    <       0.27764944 Ry

     total magnetization       =    96.57 Bohr mag/cell
     absolute magnetization    =    98.75 Bohr mag/cell

     iteration # 36     ecut=    50.00 Ry     beta= 0.10
     Davidson diagonalization with overlap
     ethr =  2.51E-05,  avg # of iterations =  2.0

     negative rho (up, down):  5.743E-03 1.080E-02
 
     Adding external electric field

     Computed dipole along edir(3) : 
        Dipole               -1.0856 Ry au,         -2.7594 Debye
        Dipole field         -0.0007 Ry au, 
 
        Potential amp.        0.0712 Ry
        Total length         54.7057 bohr
 
 
     Adding external electric field

     Computed dipole along edir(3) : 
        Dipole               -1.0856 Ry au,         -2.7594 Debye
        Dipole field         -0.0007 Ry au, 
 
        Potential amp.        0.0712 Ry
        Total length         54.7057 bohr
 

     total cpu time spent up to now is      620.7 secs

     total energy              =   -8078.54066360 Ry
     estimated scf accuracy    <       0.33091703 Ry

     total magnetization       =    96.67 Bohr mag/cell
     absolute magnetization    =    99.09 Bohr mag/cell

     iteration # 37     ecut=    50.00 Ry     beta= 0.10
     Davidson diagonalization with overlap
     ethr =  2.51E-05,  avg # of iterations =  2.0

     negative rho (up, down):  1.119E-02 1.555E-02
 
     Adding external electric field

     Computed dipole along edir(3) : 
        Dipole               -1.0863 Ry au,         -2.7611 Debye
        Dipole field         -0.0007 Ry au, 
 
        Potential amp.        0.0712 Ry
        Total length         54.7057 bohr
 
 
     Adding external electric field

     Computed dipole along edir(3) : 
        Dipole               -1.0863 Ry au,         -2.7611 Debye
        Dipole field         -0.0007 Ry au, 
 
        Potential amp.        0.0712 Ry
        Total length         54.7057 bohr
 

     total cpu time spent up to now is      637.0 secs

     total energy              =   -8078.55784285 Ry
     estimated scf accuracy    <       0.27976646 Ry

     total magnetization       =    96.76 Bohr mag/cell
     absolute magnetization    =    98.70 Bohr mag/cell

     iteration # 38     ecut=    50.00 Ry     beta= 0.10
     Davidson diagonalization with overlap
     ethr =  2.51E-05,  avg # of iterations =  2.0

     negative rho (up, down):  1.223E-02 1.677E-02
 
     Adding external electric field

     Computed dipole along edir(3) : 
        Dipole               -1.0832 Ry au,         -2.7532 Debye
        Dipole field         -0.0006 Ry au, 
 
        Potential amp.        0.0710 Ry
        Total length         54.7057 bohr
 
 
     Adding external electric field

     Computed dipole along edir(3) : 
        Dipole               -1.0832 Ry au,         -2.7532 Debye
        Dipole field         -0.0006 Ry au, 
 
        Potential amp.        0.0710 Ry
        Total length         54.7057 bohr
 

     total cpu time spent up to now is      652.7 secs

     total energy              =   -8078.56356713 Ry
     estimated scf accuracy    <       0.23646058 Ry

     total magnetization       =    96.87 Bohr mag/cell
     absolute magnetization    =    98.16 Bohr mag/cell

     iteration # 39     ecut=    50.00 Ry     beta= 0.10
     Davidson diagonalization with overlap
     ethr =  2.13E-05,  avg # of iterations =  1.0

     negative rho (up, down):  3.040E-02 3.744E-02
 
     Adding external electric field

     Computed dipole along edir(3) : 
        Dipole               -1.1574 Ry au,         -2.9419 Debye
        Dipole field         -0.0007 Ry au, 
 
        Potential amp.        0.0759 Ry
        Total length         54.7057 bohr
 
 
     Adding external electric field

     Computed dipole along edir(3) : 
        Dipole               -1.1574 Ry au,         -2.9419 Debye
        Dipole field         -0.0007 Ry au, 
 
        Potential amp.        0.0759 Ry
        Total length         54.7057 bohr
 

     total cpu time spent up to now is      666.8 secs

     total energy              =   -8078.56193245 Ry
     estimated scf accuracy    <       0.23047836 Ry

     total magnetization       =    96.90 Bohr mag/cell
     absolute magnetization    =    98.14 Bohr mag/cell

     iteration # 40     ecut=    50.00 Ry     beta= 0.10
     Davidson diagonalization with overlap
     ethr =  2.08E-05,  avg # of iterations =  2.0

     negative rho (up, down):  2.595E-02 3.295E-02
 
     Adding external electric field

     Computed dipole along edir(3) : 
        Dipole               -1.1541 Ry au,         -2.9335 Debye
        Dipole field         -0.0007 Ry au, 
 
        Potential amp.        0.0757 Ry
        Total length         54.7057 bohr
 
 
     Adding external electric field

     Computed dipole along edir(3) : 
        Dipole               -1.1541 Ry au,         -2.9335 Debye
        Dipole field         -0.0007 Ry au, 
 
        Potential amp.        0.0757 Ry
        Total length         54.7057 bohr
 

     total cpu time spent up to now is      682.9 secs

     total energy              =   -8078.56159552 Ry
     estimated scf accuracy    <       0.19068203 Ry

     total magnetization       =    97.05 Bohr mag/cell
     absolute magnetization    =    98.07 Bohr mag/cell

     iteration # 41     ecut=    50.00 Ry     beta= 0.10
     Davidson diagonalization with overlap
     ethr =  1.72E-05,  avg # of iterations =  1.5

     negative rho (up, down):  1.825E-02 2.461E-02
 
     Adding external electric field

     Computed dipole along edir(3) : 
        Dipole               -1.1795 Ry au,         -2.9979 Debye
        Dipole field         -0.0007 Ry au, 
 
        Potential amp.        0.0774 Ry
        Total length         54.7057 bohr
 
 
     Adding external electric field

     Computed dipole along edir(3) : 
        Dipole               -1.1795 Ry au,         -2.9979 Debye
        Dipole field         -0.0007 Ry au, 
 
        Potential amp.        0.0774 Ry
        Total length         54.7057 bohr
 

     total cpu time spent up to now is      697.2 secs

     total energy              =   -8078.55740114 Ry
     estimated scf accuracy    <       0.18637666 Ry

     total magnetization       =    97.01 Bohr mag/cell
     absolute magnetization    =    98.00 Bohr mag/cell

     iteration # 42     ecut=    50.00 Ry     beta= 0.10
     Davidson diagonalization with overlap
     ethr =  1.68E-05,  avg # of iterations =  2.0

     negative rho (up, down):  1.389E-02 1.759E-02
 
     Adding external electric field

     Computed dipole along edir(3) : 
        Dipole               -1.3516 Ry au,         -3.4354 Debye
        Dipole field         -0.0008 Ry au, 
 
        Potential amp.        0.0886 Ry
        Total length         54.7057 bohr
 
 
     Adding external electric field

     Computed dipole along edir(3) : 
        Dipole               -1.3516 Ry au,         -3.4354 Debye
        Dipole field         -0.0008 Ry au, 
 
        Potential amp.        0.0886 Ry
        Total length         54.7057 bohr
 

     total cpu time spent up to now is      712.5 secs

     total energy              =   -8078.55742322 Ry
     estimated scf accuracy    <       0.16793042 Ry

     total magnetization       =    96.94 Bohr mag/cell
     absolute magnetization    =    97.91 Bohr mag/cell

     iteration # 43     ecut=    50.00 Ry     beta= 0.10
     Davidson diagonalization with overlap
     ethr =  1.52E-05,  avg # of iterations = 12.5

     negative rho (up, down):  1.788E-02 2.286E-02
 
     Adding external electric field

     Computed dipole along edir(3) : 
        Dipole               -1.3720 Ry au,         -3.4874 Debye
        Dipole field         -0.0008 Ry au, 
 
        Potential amp.        0.0900 Ry
        Total length         54.7057 bohr
 
 
     Adding external electric field

     Computed dipole along edir(3) : 
        Dipole               -1.3720 Ry au,         -3.4874 Debye
        Dipole field         -0.0008 Ry au, 
 
        Potential amp.        0.0900 Ry
        Total length         54.7057 bohr
 

     total cpu time spent up to now is      740.8 secs

     total energy              =   -8078.55790585 Ry
     estimated scf accuracy    <       0.14175833 Ry

     total magnetization       =    96.77 Bohr mag/cell
     absolute magnetization    =    97.72 Bohr mag/cell

     iteration # 44     ecut=    50.00 Ry     beta= 0.10
     Davidson diagonalization with overlap
     ethr =  1.28E-05,  avg # of iterations =  2.0

     negative rho (up, down):  6.960E-03 7.969E-03
 
     Adding external electric field

     Computed dipole along edir(3) : 
        Dipole               -1.3467 Ry au,         -3.4230 Debye
        Dipole field         -0.0008 Ry au, 
 
        Potential amp.        0.0883 Ry
        Total length         54.7057 bohr
 
 
     Adding external electric field

     Computed dipole along edir(3) : 
        Dipole               -1.3467 Ry au,         -3.4230 Debye
        Dipole field         -0.0008 Ry au, 
 
        Potential amp.        0.0883 Ry
        Total length         54.7057 bohr
 

     total cpu time spent up to now is      755.8 secs

     total energy              =   -8078.56440439 Ry
     estimated scf accuracy    <       0.15561233 Ry

     total magnetization       =    96.61 Bohr mag/cell
     absolute magnetization    =    97.56 Bohr mag/cell

     iteration # 45     ecut=    50.00 Ry     beta= 0.10
     Davidson diagonalization with overlap
     ethr =  1.28E-05,  avg # of iterations =  2.0

     negative rho (up, down):  5.304E-03 6.039E-03
 
     Adding external electric field

     Computed dipole along edir(3) : 
        Dipole               -1.3160 Ry au,         -3.3448 Debye
        Dipole field         -0.0008 Ry au, 
 
        Potential amp.        0.0863 Ry
        Total length         54.7057 bohr
 
 
     Adding external electric field

     Computed dipole along edir(3) : 
        Dipole               -1.3160 Ry au,         -3.3448 Debye
        Dipole field         -0.0008 Ry au, 
 
        Potential amp.        0.0863 Ry
        Total length         54.7057 bohr
 

     total cpu time spent up to now is      771.0 secs

     total energy              =   -8078.56700029 Ry
     estimated scf accuracy    <       0.11564033 Ry

     total magnetization       =    97.09 Bohr mag/cell
     absolute magnetization    =    98.01 Bohr mag/cell

     iteration # 46     ecut=    50.00 Ry     beta= 0.10
     Davidson diagonalization with overlap
     ethr =  1.04E-05,  avg # of iterations =  1.5

     negative rho (up, down):  4.880E-03 5.818E-03
 
     Adding external electric field

     Computed dipole along edir(3) : 
        Dipole               -1.3709 Ry au,         -3.4844 Debye
        Dipole field         -0.0008 Ry au, 
 
        Potential amp.        0.0899 Ry
        Total length         54.7057 bohr
 
 
     Adding external electric field

     Computed dipole along edir(3) : 
        Dipole               -1.3709 Ry au,         -3.4844 Debye
        Dipole field         -0.0008 Ry au, 
 
        Potential amp.        0.0899 Ry
        Total length         54.7057 bohr
 

     total cpu time spent up to now is      786.1 secs

     total energy              =   -8078.56436381 Ry
     estimated scf accuracy    <       0.10358377 Ry

     total magnetization       =    97.21 Bohr mag/cell
     absolute magnetization    =    98.10 Bohr mag/cell

     iteration # 47     ecut=    50.00 Ry     beta= 0.10
     Davidson diagonalization with overlap
     ethr =  9.35E-06,  avg # of iterations =  3.5

     negative rho (up, down):  2.804E-03 3.483E-03
 
     Adding external electric field

     Computed dipole along edir(3) : 
        Dipole               -1.3833 Ry au,         -3.5160 Debye
        Dipole field         -0.0008 Ry au, 
 
        Potential amp.        0.0907 Ry
        Total length         54.7057 bohr
 
 
     Adding external electric field

     Computed dipole along edir(3) : 
        Dipole               -1.3833 Ry au,         -3.5160 Debye
        Dipole field         -0.0008 Ry au, 
 
        Potential amp.        0.0907 Ry
        Total length         54.7057 bohr
 

     total cpu time spent up to now is      803.0 secs

     total energy              =   -8078.56617231 Ry
     estimated scf accuracy    <       0.08453347 Ry

     total magnetization       =    97.14 Bohr mag/cell
     absolute magnetization    =    97.98 Bohr mag/cell

     iteration # 48     ecut=    50.00 Ry     beta= 0.10
     Davidson diagonalization with overlap
     c_bands:  2 eigenvalues not converged
     ethr =  7.63E-06,  avg # of iterations = 26.0

     negative rho (up, down):  1.342E-03 1.778E-03
 
     Adding external electric field

     Computed dipole along edir(3) : 
        Dipole               -1.3781 Ry au,         -3.5027 Debye
        Dipole field         -0.0008 Ry au, 
 
        Potential amp.        0.0904 Ry
        Total length         54.7057 bohr
 
 
     Adding external electric field

     Computed dipole along edir(3) : 
        Dipole               -1.3781 Ry au,         -3.5027 Debye
        Dipole field         -0.0008 Ry au, 
 
        Potential amp.        0.0904 Ry
        Total length         54.7057 bohr
 

     total cpu time spent up to now is      840.8 secs

     total energy              =   -8078.57054156 Ry
     estimated scf accuracy    <       0.07969170 Ry

     total magnetization       =    97.15 Bohr mag/cell
     absolute magnetization    =    97.99 Bohr mag/cell

     iteration # 49     ecut=    50.00 Ry     beta= 0.10
     Davidson diagonalization with overlap
     ethr =  7.19E-06,  avg # of iterations =  2.0

     negative rho (up, down):  1.125E-03 1.534E-03
 
     Adding external electric field

     Computed dipole along edir(3) : 
        Dipole               -1.3773 Ry au,         -3.5007 Debye
        Dipole field         -0.0008 Ry au, 
 
        Potential amp.        0.0903 Ry
        Total length         54.7057 bohr
 
 
     Adding external electric field

     Computed dipole along edir(3) : 
        Dipole               -1.3773 Ry au,         -3.5007 Debye
        Dipole field         -0.0008 Ry au, 
 
        Potential amp.        0.0903 Ry
        Total length         54.7057 bohr
 

     total cpu time spent up to now is      855.9 secs

     total energy              =   -8078.56960074 Ry
     estimated scf accuracy    <       0.08100988 Ry

     total magnetization       =    97.14 Bohr mag/cell
     absolute magnetization    =    98.04 Bohr mag/cell

     iteration # 50     ecut=    50.00 Ry     beta= 0.10
     Davidson diagonalization with overlap
     ethr =  7.19E-06,  avg # of iterations =  1.5

     negative rho (up, down):  1.350E-03 1.734E-03
 
     Adding external electric field

     Computed dipole along edir(3) : 
        Dipole               -1.3726 Ry au,         -3.4888 Debye
        Dipole field         -0.0008 Ry au, 
 
        Potential amp.        0.0900 Ry
        Total length         54.7057 bohr
 
 
     Adding external electric field

     Computed dipole along edir(3) : 
        Dipole               -1.3726 Ry au,         -3.4888 Debye
        Dipole field         -0.0008 Ry au, 
 
        Potential amp.        0.0900 Ry
        Total length         54.7057 bohr
 

     total cpu time spent up to now is      871.1 secs

     total energy              =   -8078.56861122 Ry
     estimated scf accuracy    <       0.07739503 Ry

     total magnetization       =    97.18 Bohr mag/cell
     absolute magnetization    =    98.05 Bohr mag/cell

     iteration # 51     ecut=    50.00 Ry     beta= 0.10
     Davidson diagonalization with overlap
     ethr =  6.99E-06,  avg # of iterations =  2.0

     negative rho (up, down):  1.452E-03 1.684E-03
 
     Adding external electric field

     Computed dipole along edir(3) : 
        Dipole               -1.3438 Ry au,         -3.4155 Debye
        Dipole field         -0.0008 Ry au, 
 
        Potential amp.        0.0881 Ry
        Total length         54.7057 bohr
 
 
     Adding external electric field

     Computed dipole along edir(3) : 
        Dipole               -1.3438 Ry au,         -3.4155 Debye
        Dipole field         -0.0008 Ry au, 
 
        Potential amp.        0.0881 Ry
        Total length         54.7057 bohr
 

     total cpu time spent up to now is      886.4 secs

     total energy              =   -8078.56859895 Ry
     estimated scf accuracy    <       0.06956791 Ry

     total magnetization       =    97.27 Bohr mag/cell
     absolute magnetization    =    98.11 Bohr mag/cell

     iteration # 52     ecut=    50.00 Ry     beta= 0.10
     Davidson diagonalization with overlap
     ethr =  6.28E-06,  avg # of iterations =  1.0

     negative rho (up, down):  1.016E-03 1.422E-03
 
     Adding external electric field

     Computed dipole along edir(3) : 
        Dipole               -1.3888 Ry au,         -3.5301 Debye
        Dipole field         -0.0008 Ry au, 
 
        Potential amp.        0.0911 Ry
        Total length         54.7057 bohr
 
 
     Adding external electric field

     Computed dipole along edir(3) : 
        Dipole               -1.3888 Ry au,         -3.5301 Debye
        Dipole field         -0.0008 Ry au, 
 
        Potential amp.        0.0911 Ry
        Total length         54.7057 bohr
 

     total cpu time spent up to now is      900.6 secs

     total energy              =   -8078.57289666 Ry
     estimated scf accuracy    <       0.07457879 Ry

     total magnetization       =    97.33 Bohr mag/cell
     absolute magnetization    =    98.17 Bohr mag/cell

     iteration # 53     ecut=    50.00 Ry     beta= 0.10
     Davidson diagonalization with overlap
     ethr =  6.28E-06,  avg # of iterations =  2.0

     negative rho (up, down):  1.049E-03 1.542E-03
 
     Adding external electric field

     Computed dipole along edir(3) : 
        Dipole               -1.3794 Ry au,         -3.5061 Debye
        Dipole field         -0.0008 Ry au, 
 
        Potential amp.        0.0905 Ry
        Total length         54.7057 bohr
 
 
     Adding external electric field

     Computed dipole along edir(3) : 
        Dipole               -1.3794 Ry au,         -3.5061 Debye
        Dipole field         -0.0008 Ry au, 
 
        Potential amp.        0.0905 Ry
        Total length         54.7057 bohr
 

     total cpu time spent up to now is      916.3 secs

     total energy              =   -8078.57197562 Ry
     estimated scf accuracy    <       0.06898968 Ry

     total magnetization       =    97.19 Bohr mag/cell
     absolute magnetization    =    98.10 Bohr mag/cell

     iteration # 54     ecut=    50.00 Ry     beta= 0.10
     Davidson diagonalization with overlap
     ethr =  6.23E-06,  avg # of iterations =  1.5

     negative rho (up, down):  1.525E-03 1.923E-03
 
     Adding external electric field

     Computed dipole along edir(3) : 
        Dipole               -1.4610 Ry au,         -3.7134 Debye
        Dipole field         -0.0009 Ry au, 
 
        Potential amp.        0.0958 Ry
        Total length         54.7057 bohr
 
 
     Adding external electric field

     Computed dipole along edir(3) : 
        Dipole               -1.4610 Ry au,         -3.7134 Debye
        Dipole field         -0.0009 Ry au, 
 
        Potential amp.        0.0958 Ry
        Total length         54.7057 bohr
 

     total cpu time spent up to now is      931.4 secs

     total energy              =   -8078.57431329 Ry
     estimated scf accuracy    <       0.07122417 Ry

     total magnetization       =    97.14 Bohr mag/cell
     absolute magnetization    =    98.06 Bohr mag/cell

     iteration # 55     ecut=    50.00 Ry     beta= 0.10
     Davidson diagonalization with overlap
     ethr =  6.23E-06,  avg # of iterations =  2.0

     negative rho (up, down):  1.055E-03 1.383E-03
 
     Adding external electric field

     Computed dipole along edir(3) : 
        Dipole               -1.3980 Ry au,         -3.5534 Debye
        Dipole field         -0.0008 Ry au, 
 
        Potential amp.        0.0917 Ry
        Total length         54.7057 bohr
 
 
     Adding external electric field

     Computed dipole along edir(3) : 
        Dipole               -1.3980 Ry au,         -3.5534 Debye
        Dipole field         -0.0008 Ry au, 
 
        Potential amp.        0.0917 Ry
        Total length         54.7057 bohr
 

     total cpu time spent up to now is      947.3 secs

     total energy              =   -8078.57478948 Ry
     estimated scf accuracy    <       0.06769107 Ry

     total magnetization       =    97.17 Bohr mag/cell
     absolute magnetization    =    98.11 Bohr mag/cell

     iteration # 56     ecut=    50.00 Ry     beta= 0.10
     Davidson diagonalization with overlap
     ethr =  6.11E-06,  avg # of iterations =  2.0

     negative rho (up, down):  9.308E-04 1.185E-03
 
     Adding external electric field

     Computed dipole along edir(3) : 
        Dipole               -1.3903 Ry au,         -3.5338 Debye
        Dipole field         -0.0008 Ry au, 
 
        Potential amp.        0.0912 Ry
        Total length         54.7057 bohr
 
 
     Adding external electric field

     Computed dipole along edir(3) : 
        Dipole               -1.3903 Ry au,         -3.5338 Debye
        Dipole field         -0.0008 Ry au, 
 
        Potential amp.        0.0912 Ry
        Total length         54.7057 bohr
 

     total cpu time spent up to now is      962.8 secs

     total energy              =   -8078.57461009 Ry
     estimated scf accuracy    <       0.06817072 Ry

     total magnetization       =    97.26 Bohr mag/cell
     absolute magnetization    =    98.19 Bohr mag/cell

     iteration # 57     ecut=    50.00 Ry     beta= 0.10
     Davidson diagonalization with overlap
     ethr =  6.11E-06,  avg # of iterations =  2.0

     negative rho (up, down):  8.872E-04 1.268E-03
 
     Adding external electric field

     Computed dipole along edir(3) : 
        Dipole               -1.4087 Ry au,         -3.5807 Debye
        Dipole field         -0.0008 Ry au, 
 
        Potential amp.        0.0924 Ry
        Total length         54.7057 bohr
 
 
     Adding external electric field

     Computed dipole along edir(3) : 
        Dipole               -1.4087 Ry au,         -3.5807 Debye
        Dipole field         -0.0008 Ry au, 
 
        Potential amp.        0.0924 Ry
        Total length         54.7057 bohr
 

     total cpu time spent up to now is      978.3 secs

     total energy              =   -8078.57615195 Ry
     estimated scf accuracy    <       0.07433415 Ry

     total magnetization       =    97.22 Bohr mag/cell
     absolute magnetization    =    98.19 Bohr mag/cell

     iteration # 58     ecut=    50.00 Ry     beta= 0.10
     Davidson diagonalization with overlap
     ethr =  6.11E-06,  avg # of iterations =  8.5

     negative rho (up, down):  1.223E-03 1.601E-03
 
     Adding external electric field

     Computed dipole along edir(3) : 
        Dipole               -1.4276 Ry au,         -3.6285 Debye
        Dipole field         -0.0009 Ry au, 
 
        Potential amp.        0.0936 Ry
        Total length         54.7057 bohr
 
 
[...]
    -6.0036  -5.9931  -5.9808  -5.9588  -5.9138  -5.9049  -5.8663  -5.8619
    -5.8564  -5.8354  -5.8155  -5.7818  -5.7693  -5.7607  -5.6988  -5.6842
    -5.6769  -5.6537  -5.6264  -5.6227  -5.5927  -5.5877  -5.5717  -5.5571
    -5.5492  -5.5183  -5.5076  -5.4947  -5.4893  -5.4841  -5.4658  -5.3809
    -5.3511  -5.3171  -5.2806  -5.2595  -5.2546  -5.2494  -5.2352  -5.1741
    -5.1613  -5.1225  -5.0812  -5.0523  -5.0420  -5.0003  -4.9283  -4.9201
    -4.8753  -4.8566  -4.8387  -4.8030  -4.7935  -4.7607  -4.7469  -4.7216
    -4.6657  -4.6406  -4.6090  -4.5817  -4.5516  -4.4701  -4.4525  -4.4106
    -4.3922  -4.3904  -4.3273  -4.2965  -4.2859  -4.2378  -4.2226  -4.1982
    -4.1945  -4.1560  -4.1153  -4.0791  -4.0555  -4.0031  -3.9996  -3.9744
    -3.9008  -3.8608  -3.8529  -3.8356  -3.8208  -3.7746  -3.7550  -3.7406
    -3.7349  -3.7187  -3.6865  -3.6828  -3.6267  -3.6215  -3.6027  -3.6000
    -3.5545  -3.5323  -3.5283  -3.5253  -3.5064  -3.4955  -3.4669  -3.4333
    -3.4238  -3.4164  -3.3945  -3.3821  -3.3747  -3.3481  -3.3340  -3.3214
    -3.2970  -3.2929  -3.2741  -3.2433  -3.2342  -3.2211  -3.1826  -3.1606
    -3.1433  -3.1065  -3.0805  -3.0742  -3.0577  -3.0417  -3.0295  -3.0054
    -2.9873  -2.9548  -2.9419  -2.9155  -2.8986  -2.8674  -2.8600  -2.8320
    -2.8178  -2.7856  -2.7520  -2.7216  -2.7112  -2.7020  -2.6882  -2.6838
    -2.6785  -2.6660  -2.6543  -2.6378  -2.6287  -2.6188  -2.6006  -2.5838
    -2.5643  -2.5465  -2.5333  -2.5251  -2.5130  -2.5018  -2.4833  -2.4607
    -2.4466  -2.4357  -2.3999  -2.3934  -2.3723  -2.3542  -2.3500  -2.3219
    -2.3034  -2.2915  -2.2838  -2.2672  -2.2445  -2.2131  -2.2047  -2.1849
    -2.1655  -2.1546  -2.1415  -2.1031  -2.0916  -2.0651  -2.0487  -2.0285
    -2.0172  -2.0117  -1.9887  -1.9686  -1.9650  -1.9315  -1.9107  -1.8860
    -1.8812  -1.8690  -1.8630  -1.8441  -1.8340  -1.8220  -1.8120  -1.8005
    -1.7321  -1.7177  -1.6864  -1.6676  -1.6389  -1.6335  -1.6277  -1.6106
    -1.6041  -1.5891  -1.5826  -1.5412  -1.5326  -1.5205  -1.4852  -1.4636
    -1.4455  -1.4296  -1.4100  -1.3886  -1.3750  -1.3542  -1.3421  -1.3311
    -1.3131  -1.3088  -1.2689  -1.2234  -1.1801  -1.1658  -1.1512  -1.1164
    -1.0739  -1.0404  -1.0096  -1.0049  -0.9972  -0.8871  -0.8461  -0.8033
    -0.7566  -0.6511  -0.6182  -0.5984  -0.4601  -0.4172  -0.2789  -0.1738
     0.1747   0.1915   0.2304   0.2517   0.2627   0.2809   0.2902   0.3025
     0.3100   0.3211   0.3382   0.3663   0.3785   0.3805   0.3849   0.3974
     0.4020   0.4067   0.4153   0.4302   0.4372   0.4539   0.4615   0.4637
     0.4762   0.4804   0.4866   0.4925   0.4993   0.5042   0.5128   0.5212
     0.5296   0.5346   0.5487   0.5545   0.5600   0.5719   0.5812   0.5949
     0.6010   0.6079   0.6224   0.6299   0.6336   0.6417   0.6560   0.6603
     0.6687   0.6734   0.6805   0.7155   0.7181   0.7276   0.7302   0.7386
     0.7452   0.7611   0.7721   0.7824   0.8048   0.8067   0.8110   0.8193
     0.8322   0.8388   0.8461   0.8675   0.8723   0.8780   0.8812   0.9025
     0.9048   0.9781   0.9885   1.0247   1.0409   1.0691   1.1277   1.1470
     1.6864   1.7586   1.7701   1.7796   1.7943   1.8240   1.8331   1.8744
     1.8853   1.8923   1.9256   1.9642   1.9771   1.9830   1.9970   2.0266
     2.0482   2.0769   2.0879   2.0970   2.1063   2.1103   2.1487   2.1545
     2.1760   2.1971   2.2025   2.2107   2.2211   2.2381   2.2576   2.2754
     2.2861   2.3022   2.3060   2.3379   2.3613   2.3759   2.4114   2.4426
     2.4519   2.4639   2.4796   2.5004   2.5137   2.5179   2.5650   2.6014
     2.6158   2.6572   2.7375   2.8004   2.8373   2.8559   2.8597   3.4161
     3.4834   3.6778   3.6918   3.7037   3.7553   3.7848   3.8481   3.8778
     3.8841   3.9161   3.9406   3.9503   3.9714   4.0029   4.0197   4.0285
     4.0657   4.0811   4.0864   4.0960   4.1066   4.1374   4.1480   4.1625
     4.2035   4.2219   4.2480   4.2660   4.3033   4.5975   4.6085   4.7797
     4.7925   4.8471   4.8838   4.8955   4.9617   4.9809   4.9886   5.0315
     5.0667   5.0890   5.1433   5.1681   5.2093   5.2185   5.3822   6.1745
     6.3548   6.4402   6.5765   6.6890   6.7178   6.7642   6.8055   6.9012
     6.9248   6.9558   7.0154   7.0449   7.2233   7.2841   7.3229   7.3519
     7.3811   7.4238   7.4764   7.5179   7.5439   7.5881   7.7033   7.7204
     7.8222   7.8325   7.9002   7.9248   7.9583   7.9997   8.0130   8.0453
     8.0629   8.0804   8.1172   8.1637   8.1763   8.2081   8.2332   8.3005
     8.3172   8.3382   8.3596   8.3689   8.3949   8.4005   8.4162   8.4267
     8.4612   8.4782   8.5104   8.5334   8.5652   8.5766   8.6006   8.6432
     8.6484

     the Fermi energy is     1.6872 ev

!    total energy              =   -8078.56151487 Ry
     estimated scf accuracy    <       0.00000071 Ry
     smearing contrib. (-TS)   =      -0.02497057 Ry
     internal energy E=F+TS    =   -8078.53654430 Ry

     The total energy is F=E-TS. E is the sum of the following terms:
     one-electron contribution =  -94745.43801319 Ry
     hartree contribution      =   47957.06935587 Ry
     xc contribution           =   -2177.36485301 Ry
     ewald contribution        =   40888.96727810 Ry
     Dispersion Correction     =      -1.77032875 Ry
     electric field correction =       0.00001668 Ry

     total magnetization       =    97.11 Bohr mag/cell
     absolute magnetization    =    98.33 Bohr mag/cell

     convergence has been achieved in  98 iterations

     negative rho (up, down):  1.166E-03 6.273E-04

     Forces acting on atoms (cartesian axes, Ry/au):

     atom    1 type  1   force =     0.02416219   -0.01759391    0.02031220
     atom    2 type  1   force =    -0.00196384    0.00032245   -0.00545432
     atom    3 type  2   force =    -0.03021518   -0.01571244   -0.00829906
     atom    4 type  1   force =     0.00191636   -0.00347551   -0.00442815
     atom    5 type  1   force =    -0.00372260    0.00225263   -0.00159591
     atom    6 type  1   force =     0.00250558    0.00741208   -0.00405670
     atom    7 type  1   force =     0.03190445   -0.01945454    0.01805874
     atom    8 type  2   force =    -0.00183697    0.00035516   -0.00900262
     atom    9 type  2   force =    -0.02888347   -0.01537468   -0.00832789
     atom   10 type  1   force =     0.00188831   -0.00312053   -0.00416934
     atom   11 type  1   force =    -0.00342869    0.00267014   -0.00075715
     atom   12 type  1   force =     0.00365929    0.00682178   -0.00355362
     atom   13 type  3   force =     0.00212159    0.00071631   -0.00758820
     atom   14 type  3   force =    -0.02977131    0.04993112   -0.06593178
     atom   15 type  3   force =     0.03465728    0.03760162   -0.05980872
     atom   16 type  3   force =    -0.00432294    0.00309551   -0.00093773
     atom   17 type  4   force =    -0.00195540    0.00143765    0.00291183
     atom   18 type  4   force =    -0.00155306   -0.00521361    0.02729612
     atom   19 type  4   force =     0.00392384    0.00274992    0.02941766
     atom   20 type  4   force =     0.00000302   -0.00267788   -0.00470680
     atom   21 type  4   force =    -0.00295871   -0.00219556    0.00324185
     atom   22 type  4   force =     0.00473872   -0.00329504    0.03428091
     atom   23 type  4   force =    -0.00598402   -0.00110498    0.03254244
     atom   24 type  4   force =     0.00058021   -0.00090523   -0.00006369
     atom   25 type  4   force =    -0.00140038    0.00068595    0.00219388
     atom   26 type  4   force =    -0.01456615   -0.02263004   -0.00175847
     atom   27 type  4   force =     0.00196628   -0.00071649    0.00121325
     atom   28 type  4   force =    -0.01756028    0.00342181    0.00124965
     atom   29 type  4   force =     0.02059657   -0.00457910    0.00833410
     atom   30 type  4   force =     0.01245990   -0.03404969    0.00118689
     atom   31 type  4   force =     0.00060191    0.00079230    0.00231651
     atom   32 type  4   force =    -0.00228646    0.00006477    0.00267566
     atom   33 type  3   force =    -0.00052097   -0.00170490   -0.00506818
     atom   34 type  3   force =    -0.03022732    0.05984215   -0.08312330
     atom   35 type  3   force =     0.03457246    0.03336016   -0.05929975
     atom   36 type  3   force =    -0.00393473    0.00478183   -0.00068234
     atom   37 type  4   force =    -0.00102273    0.00143328    0.00319862
     atom   38 type  4   force =    -0.00301902   -0.00562291    0.03289855
     atom   39 type  4   force =     0.00436943    0.00389461    0.02923506
     atom   40 type  4   force =     0.00026595   -0.00328088   -0.00475346
     atom   41 type  4   force =     0.00002266    0.00015802    0.00344558
     atom   42 type  4   force =     0.00544028    0.00027496    0.02001004
     atom   43 type  4   force =    -0.00178873    0.00036258    0.03463591
     atom   44 type  4   force =     0.00087776   -0.00082052   -0.00010495
     atom   45 type  4   force =    -0.00024902   -0.00285211    0.00128651
     atom   46 type  4   force =    -0.01515369   -0.02026716   -0.00041854
     atom   47 type  4   force =     0.00197145   -0.00064249    0.00130022
     atom   48 type  4   force =    -0.01789785    0.00405562    0.00168858
     atom   49 type  4   force =     0.01640594   -0.00276323    0.00504943
     atom   50 type  4   force =     0.01182829   -0.03673798    0.00442029
     atom   51 type  4   force =     0.00112657    0.00087470    0.00171832
     atom   52 type  4   force =     0.00082346   -0.00221356    0.00364593
     atom   53 type  1   force =     0.00155455    0.00063262   -0.00092372
     atom   54 type  1   force =     0.00140485    0.00077923   -0.00046132
     atom   55 type  2   force =    -0.00017317   -0.00067874   -0.00042723
     atom   56 type  1   force =    -0.00086282    0.00124277    0.00027335
     atom   57 type  1   force =    -0.00017243    0.00040538    0.00014598
     atom   58 type  1   force =     0.00030639   -0.00039205    0.00020266
     atom   59 type  1   force =     0.00043177    0.00096280   -0.00087983
     atom   60 type  2   force =    -0.00165672   -0.00135737    0.00609108
     atom   61 type  2   force =    -0.00019508   -0.00034995   -0.00013879
     atom   62 type  1   force =     0.00048300   -0.00010346    0.00145993
     atom   63 type  1   force =     0.00003511    0.00051240    0.00033401
     atom   64 type  1   force =     0.00007341   -0.00071492   -0.00001107
     atom   65 type  3   force =     0.00030188    0.00046128    0.00039097
     atom   66 type  3   force =     0.00009501   -0.00030150   -0.00173491
     atom   67 type  3   force =     0.00040406    0.00053381   -0.00132392
     atom   68 type  3   force =    -0.00142751   -0.00157353    0.00326737
     atom   69 type  4   force =    -0.00057563    0.00037149   -0.00010343
     atom   70 type  4   force =    -0.00009467    0.00006324    0.00033971
     atom   71 type  4   force =    -0.00004380   -0.00034290    0.00023870
     atom   72 type  4   force =     0.00049273   -0.00027922   -0.00128746
     atom   73 type  4   force =     0.00002240    0.00080561   -0.00052758
     atom   74 type  4   force =    -0.00014569   -0.00068608    0.00201136
     atom   75 type  4   force =    -0.00016494   -0.00013199    0.00069085
     atom   76 type  4   force =    -0.00147436   -0.00103253    0.00228022
     atom   77 type  4   force =    -0.00105340    0.00113993    0.00008082
     atom   78 type  4   force =    -0.00050866    0.00023097    0.00040862
     atom   79 type  4   force =     0.00039938    0.00127087   -0.00194619
     atom   80 type  4   force =     0.00029655    0.00057312    0.00034792
     atom   81 type  4   force =    -0.00050319   -0.00024405    0.00043719
     atom   82 type  4   force =     0.00018259    0.00011668    0.00001929
     atom   83 type  4   force =     0.00096952    0.00002675    0.00071607
     atom   84 type  4   force =    -0.00111551    0.00001944   -0.00053136
     atom   85 type  3   force =     0.00040851    0.00219324    0.00147294
     atom   86 type  3   force =     0.00047900   -0.00064021   -0.00052896
     atom   87 type  3   force =    -0.00023356    0.00022214   -0.00041298
     atom   88 type  3   force =    -0.00062202   -0.00218505    0.00029446
     atom   89 type  4   force =    -0.00022296   -0.00031453   -0.00009891
     atom   90 type  4   force =     0.00012491   -0.00050798    0.00152149
     atom   91 type  4   force =     0.00028855   -0.00022278   -0.00020607
     atom   92 type  4   force =    -0.00054329    0.00062791   -0.00145291
     atom   93 type  4   force =     0.00092009   -0.00010970    0.00051857
     atom   94 type  4   force =    -0.00018490   -0.00001726    0.00153333
     atom   95 type  4   force =     0.00015913    0.00014192    0.00039978
     atom   96 type  4   force =    -0.00123047    0.00018809   -0.00031459
     atom   97 type  4   force =     0.00033241    0.00015405   -0.00071162
     atom   98 type  4   force =    -0.00059962   -0.00007017    0.00036054
     atom   99 type  4   force =     0.00108939    0.00163971   -0.00153190
     atom  100 type  4   force =     0.00068453    0.00038059    0.00038291
     atom  101 type  4   force =    -0.00051127   -0.00008777    0.00050355
     atom  102 type  4   force =     0.00097476   -0.00017521    0.00043506
     atom  103 type  4   force =     0.00088864   -0.00141690   -0.00029633
     atom  104 type  4   force =    -0.00052304   -0.00117117    0.00029887
     atom  105 type  1   force =     0.00002779    0.00021719   -0.00010126
     atom  106 type  1   force =    -0.00015212   -0.00052218   -0.00043351
     atom  107 type  2   force =     0.00031516   -0.00022585    0.00037202
     atom  108 type  1   force =    -0.00021857   -0.00008441    0.00008164
     atom  109 type  1   force =     0.00068650   -0.00015770   -0.00068980
     atom  110 type  1   force =     0.00046487   -0.00012318    0.00042705
     atom  111 type  1   force =    -0.00033091    0.00022996    0.00041284
     atom  112 type  2   force =     0.00009331   -0.00045309    0.00010678
     atom  113 type  2   force =    -0.00019204    0.00003892   -0.00013896
     atom  114 type  1   force =     0.00199952   -0.00211369    0.00246497
     atom  115 type  1   force =    -0.00057041    0.00070799   -0.00053206
     atom  116 type  1   force =    -0.00046966   -0.00065539    0.00020873
     atom  117 type  3   force =    -0.00013734   -0.00048098    0.00017639
     atom  118 type  3   force =    -0.00051501    0.00000036    0.00004670
     atom  119 type  3   force =     0.00013017    0.00025290   -0.00004685
     atom  120 type  3   force =     0.00033381    0.00006411    0.00003162
     atom  121 type  4   force =    -0.00001766    0.00000908   -0.00017138
     atom  122 type  4   force =    -0.00032704   -0.00018472    0.00009363
     atom  123 type  4   force =     0.00030172   -0.00008993    0.00012062
     atom  124 type  4   force =     0.00019921   -0.00042570    0.00002106
     atom  125 type  4   force =     0.00054597    0.00003212    0.00000685
     atom  126 type  4   force =     0.00018527   -0.00024212    0.00047855
     atom  127 type  4   force =    -0.00005024   -0.00016245   -0.00004416
     atom  128 type  4   force =    -0.00022141    0.00004179   -0.00017797
     atom  129 type  4   force =    -0.00004236    0.00041890   -0.00014261
     atom  130 type  4   force =     0.00043534    0.00018616    0.00031320
     atom  131 type  4   force =     0.00018355    0.00017454   -0.00028006
     atom  132 type  4   force =     0.00049228   -0.00024818   -0.00007273
     atom  133 type  4   force =    -0.00022553   -0.00036002    0.00027721
     atom  134 type  4   force =    -0.00001340   -0.00006102    0.00026422
     atom  135 type  4   force =    -0.00026312   -0.00031983   -0.00032014
     atom  136 type  4   force =     0.00050596   -0.00003236    0.00016564
     atom  137 type  3   force =    -0.00005444   -0.00038039    0.00000236
     atom  138 type  3   force =     0.00010732   -0.00007406    0.00002050
     atom  139 type  3   force =     0.00007202   -0.00002473   -0.00002644
     atom  140 type  3   force =     0.00016646   -0.00018491    0.00007549
     atom  141 type  4   force =     0.00060166    0.00055317   -0.00065010
     atom  142 type  4   force =     0.00005394    0.00007847   -0.00005067
     atom  143 type  4   force =     0.00028712   -0.00010371    0.00031995
     atom  144 type  4   force =    -0.00023636    0.00070542   -0.00051524
     atom  145 type  4   force =     0.00016789    0.00033801    0.00089955
     atom  146 type  4   force =     0.00007557   -0.00009630    0.00008786
     atom  147 type  4   force =    -0.00041812    0.00014877    0.00001608
     atom  148 type  4   force =     0.00017246    0.00007347    0.00000310
     atom  149 type  4   force =    -0.00014171    0.00002796   -0.00019862
     atom  150 type  4   force =    -0.00021971    0.00018966   -0.00008297
     atom  151 type  4   force =     0.00045898   -0.00039267    0.00016115
     atom  152 type  4   force =     0.00020984   -0.00024550    0.00026825
     atom  153 type  4   force =     0.00006512    0.00042543    0.00007002
     atom  154 type  4   force =    -0.00011700   -0.00024007    0.00022994
     atom  155 type  4   force =     0.00036455   -0.00009269    0.00044028
     atom  156 type  4   force =     0.00001140    0.00067155   -0.00004892
     atom  157 type  4   force =    -0.00602477   -0.00056720   -0.00332857
     atom  158 type  5   force =     0.00311356    0.00280595    0.00190816

     Total force =     0.225407     Total SCF correction =     0.003537
 
     init_run     :      9.71s CPU     10.54s WALL (       1 calls)
     electrons    :   1543.53s CPU   1614.18s WALL (       1 calls)
     forces       :      4.67s CPU      5.12s WALL (       1 calls)
     force_london :      0.11s CPU      0.11s WALL (       1 calls)

     Called by init_run:
     wfcinit      :      5.65s CPU      5.87s WALL (       1 calls)
     potinit      :      0.74s CPU      0.95s WALL (       1 calls)
     hinit0       :      1.80s CPU      1.90s WALL (       1 calls)

     Called by electrons:
     c_bands      :   1213.26s CPU   1249.40s WALL (      98 calls)
     sum_band     :    209.12s CPU    227.12s WALL (      98 calls)
     v_of_rho     :     29.45s CPU     31.05s WALL (      99 calls)
     newd         :     57.89s CPU     72.78s WALL (      99 calls)
     mix_rho      :     32.26s CPU     32.38s WALL (      98 calls)
     energy_londo :      0.11s CPU      0.12s WALL (       1 calls)

     Called by c_bands:
     init_us_2    :      3.52s CPU      3.62s WALL (     396 calls)
     init_us_2:cp :      3.52s CPU      3.62s WALL (     396 calls)
     regterg      :   1188.72s CPU   1224.48s WALL (     198 calls)

     Called by *egterg:
     rdiaghg      :    316.68s CPU    334.20s WALL (     733 calls)
     h_psi        :    488.62s CPU    496.80s WALL (     735 calls)
     s_psi        :     81.40s CPU     81.46s WALL (     735 calls)
     g_psi        :      0.60s CPU      0.60s WALL (     535 calls)

     Called by h_psi:
     h_psi:calbec :    114.05s CPU    120.43s WALL (     735 calls)
     vloc_psi     :    291.34s CPU    292.30s WALL (     735 calls)
     add_vuspsi   :     82.07s CPU     82.89s WALL (     735 calls)

     General routines
     calbec       :    168.73s CPU    178.36s WALL (     939 calls)
     fft          :     29.43s CPU     31.64s WALL (    1795 calls)
     ffts         :     19.55s CPU     19.59s WALL (   12227 calls)
     fftw         :    330.58s CPU    331.62s WALL (  336578 calls)
     interpolate  :      2.07s CPU      2.33s WALL (     198 calls)
 
     Parallel routines
 
     PWSCF        :  26m 0.15s CPU  27m12.39s WALL

 
   This run was terminated on:  22:29:36  17Nov2025            

=------------------------------------------------------------------------------=
   JOB DONE.
=------------------------------------------------------------------------------=
