
     Program PWSCF v.7.2 starts on 19Nov2025 at 23:23:48 

     This program is part of the open-source Quantum ESPRESSO suite
     for quantum simulation of materials; please cite
         "P. Giannozzi et al., J. Phys.:Condens. Matter 21 395502 (2009);
         "P. Giannozzi et al., J. Phys.:Condens. Matter 29 465901 (2017);
         "P. Giannozzi et al., J. Chem. Phys. 152 154105 (2020);
          URL http://www.quantum-espresso.org", 
     in publications or presentations arising from this work. More details at
     http://www.quantum-espresso.org/quote

     Parallel version (MPI), running on    64 processors

     MPI processes distributed on     4 nodes
     393867 MiB available memory on the printing compute node when the environment starts
 
     Reading input from PWINPUT_atm158_zm

     Current dimensions of program PWSCF are:
     Max number of different atomic species (ntypx) = 10
     Max number of k-points (npk) =  40000
     Max angular momentum in pseudopotentials (lmaxx) =  4
     Presently no symmetry can be used with electric field

     file Ni.pbe-n-rrkjus_psl.1.0.0.UPF: wavefunction(s)  3D renormalized
     file Mn.pbe-spn-rrkjus_psl.0.3.1.UPF: wavefunction(s)  3D renormalized
     file O.pbe-rrkjus.UPF: wavefunction(s)  2S renormalized
     file H.pbe-rrkjus.UPF: wavefunction(s)  1S renormalized

     gamma-point specific algorithms are used
 
     R & G space division:  proc/nbgrp/npool/nimage =      64
     Subspace diagonalization in iterative solution of the eigenvalue problem:
     one sub-group per band group will be used
     custom distributed-memory algorithm (size of sub-group:  7*  7 procs)

 
     Parallelization info
     --------------------
     sticks:   dense  smooth     PW     G-vecs:    dense   smooth      PW
     Min         214      85     20                61830    15614    1928
     Max         216      86     22                61864    15658    1982
     Sum       13727    5503   1375              3958051  1001255  125211
 
     Using Slab Decomposition
 


     bravais-lattice index     =            0
     lattice parameter (alat)  =      17.8532  a.u.
     unit-cell volume          =   20962.6682 (a.u.)^3
     number of atoms/cell      =          158
     number of atomic types    =            5
     number of electrons       =      1108.00
     number of Kohn-Sham states=          665
     kinetic-energy cutoff     =      50.0000  Ry
     charge density cutoff     =     500.0000  Ry
     scf convergence threshold =      1.0E-06
     mixing beta               =       0.5000
     number of iterations used =            8  local-TF  mixing
     Exchange-correlation=  SLA  PW   PBE  PBE
                           (   1   4   3   4   0   0   0)

     celldm(1)=  17.853155  celldm(2)=   0.000000  celldm(3)=   0.000000
     celldm(4)=   0.000000  celldm(5)=   0.000000  celldm(6)=   0.000000

     crystal axes: (cart. coord. in units of alat)
               a(1) = (   1.000000   0.000000   0.000000 )  
               a(2) = (   0.003237   1.081997   0.000000 )  
               a(3) = (   0.000000   0.000000   3.404673 )  

     reciprocal axes: (cart. coord. in units 2 pi/alat)
               b(1) = (  1.000000 -0.002992  0.000000 )  
               b(2) = (  0.000000  0.924217  0.000000 )  
               b(3) = (  0.000000  0.000000  0.293714 )  


     PseudoPot. # 1 for Ni read from file:
     ~/PSEUDO/Ni.pbe-n-rrkjus_psl.1.0.0.UPF
     MD5 check sum: Not computed, couldn't open file
     Pseudo is Ultrasoft + core correction, Zval = 10.0
     Generated using "atomic" code by A. Dal Corso  v.5.1.2
     Using radial grid of 1195 points,  6 beta functions with: 
                l(1) =   0
                l(2) =   0
                l(3) =   1
                l(4) =   1
                l(5) =   2
                l(6) =   2
     Q(r) pseudized with 0 coefficients 


     PseudoPot. # 2 for Mn read from file:
     ~/PSEUDO/Mn.pbe-spn-rrkjus_psl.0.3.1.UPF
     MD5 check sum: Not computed, couldn't open file
     Pseudo is Ultrasoft + core correction, Zval = 15.0
     Generated using &quot;atomic&quot; code by A. Dal Corso  v.6.2.2
     Using radial grid of 1187 points,  6 beta functions with: 
                l(1) =   0
                l(2) =   0
                l(3) =   1
                l(4) =   1
                l(5) =   2
                l(6) =   2
     Q(r) pseudized with 0 coefficients 


     PseudoPot. # 3 for P  read from file:
     ~/PSEUDO/P.pbe-n-rrkjus_psl.1.0.0.UPF
     MD5 check sum: Not computed, couldn't open file
     Pseudo is Ultrasoft + core correction, Zval =  5.0
     Generated using "atomic" code by A. Dal Corso  v.5.1
     Using radial grid of 1147 points,  6 beta functions with: 
                l(1) =   0
                l(2) =   0
                l(3) =   1
                l(4) =   1
                l(5) =   2
                l(6) =   2
     Q(r) pseudized with 0 coefficients 


     PseudoPot. # 4 for O  read from file:
     ~/PSEUDO/O.pbe-rrkjus.UPF
     MD5 check sum: Not computed, couldn't open file
     Pseudo is Ultrasoft, Zval =  6.0
     Generated by new atomic code, or converted to UPF format
     Using radial grid of 1269 points,  4 beta functions with: 
                l(1) =   0
                l(2) =   0
                l(3) =   1
                l(4) =   1
     Q(r) pseudized with 0 coefficients 


     PseudoPot. # 5 for H  read from file:
     ~/PSEUDO/H.pbe-rrkjus.UPF
     MD5 check sum: Not computed, couldn't open file
     Pseudo is Ultrasoft, Zval =  1.0
     Generated by new atomic code, or converted to UPF format
     Using radial grid of 1061 points,  2 beta functions with: 
                l(1) =   0
                l(2) =   0
     Q(r) pseudized with 0 coefficients 


     atomic species   valence    mass     pseudopotential
     Ni               10.00    58.69300     Ni( 1.00)
     Mn               15.00    54.93800     Mn( 1.00)
     P                 5.00    30.97300     P ( 1.00)
     O                 6.00    15.99900     O ( 1.00)
     H                 1.00     1.00790     H ( 1.00)

     Starting magnetic structure 
     atomic species   magnetization
     Ni              1.000
     Mn              1.000
     P               1.000
     O               1.000
     H               0.000

     No symmetry found



   Cartesian axes

     site n.     atom                  positions (alat units)
         1        Ni     tau(   1) = (   0.2448189   0.8359134   0.1216996  )
         2        Ni     tau(   2) = (   0.4920952   0.7731948   0.4438949  )
         3        Mn     tau(   3) = (   0.0113021   0.2918949   0.1160512  )
         4        Ni     tau(   4) = (   0.2586115   0.2268566   0.4417628  )
         5        Ni     tau(   5) = (   1.0019827   1.0705803   0.2835623  )
         6        Ni     tau(   6) = (   0.2518099   0.5339061   0.2823483  )
         7        Ni     tau(   7) = (   0.7400999   0.8349186   0.1225624  )
         8        Mn     tau(   8) = (   0.9886961   0.7700845   0.4492175  )
         9        Mn     tau(   9) = (   0.5113421   0.2944667   0.1158892  )
        10        Ni     tau(  10) = (   0.7560857   0.2263843   0.4422798  )
        11        Ni     tau(  11) = (   0.5009386   1.0712238   0.2822610  )
        12        Ni     tau(  12) = (   0.7496978   0.5336600   0.2834396  )
        13        P      tau(  13) = (   0.2147792   0.9686896   0.4382665  )
        14        P      tau(  14) = (   0.4607377   0.6441916   0.1265334  )
        15        P      tau(  15) = (   0.2883218   0.0913464   0.1265752  )
        16        P      tau(  16) = (   0.0408981   0.4221836   0.4354960  )
        17        O      tau(  17) = (   0.1380864   0.9007819   0.3023220  )
        18        O      tau(  18) = (   0.3817439   0.7113683   0.2624610  )
        19        O      tau(  19) = (   0.3638364   0.1608547   0.2624417  )
        20        O      tau(  20) = (   0.1207568   0.3545755   0.3021219  )
        21        O      tau(  21) = (   0.1552194   0.8797563   0.5625160  )
        22        O      tau(  22) = (   0.4022820   0.7317969   0.0010585  )
        23        O      tau(  23) = (   0.3454844   0.1823965   0.0026336  )
        24        O      tau(  24) = (   0.1017019   0.3344979   0.5594858  )
        25        O      tau(  25) = (   0.0970074   0.5770714   0.4346455  )
        26        O      tau(  26) = (   0.3534166   1.0203677   0.1270707  )
        27        O      tau(  27) = (   0.3778024   0.4172402   0.4261028  )
        28        O      tau(  28) = (   0.1256171   0.0954063   0.1372153  )
        29        O      tau(  29) = (   0.1232168   0.6482422   0.1385172  )
        30        O      tau(  30) = (   0.4028533   0.4897833   0.1289718  )
        31        O      tau(  31) = (   0.1511050   0.0405554   0.4369979  )
        32        O      tau(  32) = (   0.3776556   0.9624293   0.4288159  )
        33        P      tau(  33) = (   0.7084770   0.9682119   0.4394551  )
        34        P      tau(  34) = (   0.9603154   0.6409658   0.1292469  )
        35        P      tau(  35) = (   0.7875734   0.0899770   0.1274098  )
        36        P      tau(  36) = (   0.5405152   0.4272620   0.4364455  )
        37        O      tau(  37) = (   0.6323583   0.8977630   0.3036670  )
        38        O      tau(  38) = (   0.8809646   0.7091921   0.2627111  )
        39        O      tau(  39) = (   0.8631054   0.1587239   0.2636487  )
        40        O      tau(  40) = (   0.6202581   0.3578380   0.3034239  )
        41        O      tau(  41) = (   0.6499160   0.8772596   0.5630912  )
        42        O      tau(  42) = (   0.8990171   0.7283464   0.0054426  )
        43        O      tau(  43) = (   0.8448361   0.1806154   0.0030658  )
        44        O      tau(  44) = (   0.6023096   0.3392612   0.5600469  )
        45        O      tau(  45) = (   0.5960222   0.5826131   0.4346340  )
        46        O      tau(  46) = (   0.8515023   1.0184215   0.1281632  )
        47        O      tau(  47) = (   0.8779640   0.4148900   0.4260983  )
        48        O      tau(  48) = (   0.6251159   0.0957170   0.1376895  )
        49        O      tau(  49) = (   0.6237654   0.6481585   0.1378370  )
        50        O      tau(  50) = (   0.9038046   0.4863338   0.1307354  )
        51        O      tau(  51) = (   0.6458737   0.0402574   0.4377979  )
        52        O      tau(  52) = (   0.8712434   0.9635255   0.4285638  )
        53        Ni     tau(  53) = (   0.2420320   0.8169913   0.7491577  )
        54        Ni     tau(  54) = (   0.4893084   0.7542727   1.0713530  )
        55        Mn     tau(  55) = (   0.0085152   0.2729728   0.7435093  )
        56        Ni     tau(  56) = (   0.2558246   0.2079345   1.0692209  )
        57        Ni     tau(  57) = (   0.9991959   1.0516583   0.9110204  )
        58        Ni     tau(  58) = (   0.2490231   0.5149840   0.9098064  )
        59        Ni     tau(  59) = (   0.7373131   0.8159965   0.7500205  )
        60        Mn     tau(  60) = (   0.9859093   0.7511625   1.0766756  )
        61        Mn     tau(  61) = (   0.5085552   0.2755447   0.7433473  )
        62        Ni     tau(  62) = (   0.7532989   0.2074622   1.0697379  )
        63        Ni     tau(  63) = (   0.4981517   1.0523018   0.9097191  )
        64        Ni     tau(  64) = (   0.7469109   0.5147379   0.9108977  )
        65        P      tau(  65) = (   0.2119924   0.9497675   1.0657246  )
        66        P      tau(  66) = (   0.4579509   0.6252695   0.7539915  )
        67        P      tau(  67) = (   0.2855349   0.0724244   0.7540333  )
        68        P      tau(  68) = (   0.0381112   0.4032615   1.0629541  )
        69        O      tau(  69) = (   0.1352995   0.8818598   0.9297801  )
        70        O      tau(  70) = (   0.3789570   0.6924463   0.8899191  )
        71        O      tau(  71) = (   0.3610496   0.1419327   0.8898998  )
        72        O      tau(  72) = (   0.1179700   0.3356534   0.9295800  )
        73        O      tau(  73) = (   0.1524325   0.8608343   1.1899741  )
        74        O      tau(  74) = (   0.3994952   0.7128748   0.6285166  )
        75        O      tau(  75) = (   0.3426976   0.1634744   0.6300917  )
        76        O      tau(  76) = (   0.0989151   0.3155758   1.1869439  )
        77        O      tau(  77) = (   0.0942206   0.5581494   1.0621036  )
        78        O      tau(  78) = (   0.3506297   1.0014456   0.7545288  )
        79        O      tau(  79) = (   0.3750155   0.3983181   1.0535609  )
        80        O      tau(  80) = (   0.1228303   0.0764842   0.7646734  )
        81        O      tau(  81) = (   0.1204299   0.6293201   0.7659753  )
        82        O      tau(  82) = (   0.4000664   0.4708612   0.7564299  )
        83        O      tau(  83) = (   0.1483182   0.0216333   1.0644560  )
        84        O      tau(  84) = (   0.3748687   0.9435072   1.0562740  )
        85        P      tau(  85) = (   0.7056901   0.9492898   1.0669132  )
        86        P      tau(  86) = (   0.9575286   0.6220438   0.7567050  )
        87        P      tau(  87) = (   0.7847866   0.0710549   0.7548679  )
        88        P      tau(  88) = (   0.5377283   0.4083400   1.0639036  )
        89        O      tau(  89) = (   0.6295714   0.8788409   0.9311251  )
        90        O      tau(  90) = (   0.8781778   0.6902700   0.8901692  )
        91        O      tau(  91) = (   0.8603186   0.1398018   0.8911068  )
        92        O      tau(  92) = (   0.6174712   0.3389159   0.9308820  )
        93        O      tau(  93) = (   0.6471291   0.8583376   1.1905493  )
        94        O      tau(  94) = (   0.8962302   0.7094244   0.6329007  )
        95        O      tau(  95) = (   0.8420493   0.1616933   0.6305239  )
        96        O      tau(  96) = (   0.5995227   0.3203391   1.1875050  )
        97        O      tau(  97) = (   0.5932354   0.5636910   1.0620921  )
        98        O      tau(  98) = (   0.8487155   0.9994995   0.7556213  )
        99        O      tau(  99) = (   0.8751772   0.3959680   1.0535564  )
       100        O      tau( 100) = (   0.6223291   0.0767949   0.7651476  )
       101        O      tau( 101) = (   0.6209785   0.6292365   0.7652951  )
       102        O      tau( 102) = (   0.9010178   0.4674118   0.7581935  )
       103        O      tau( 103) = (   0.6430869   0.0213354   1.0652560  )
       104        O      tau( 104) = (   0.8684566   0.9446034   1.0560219  )
       105        Ni     tau( 105) = (   0.2412023   0.8004481   1.3761697  )
       106        Ni     tau( 106) = (   0.4986735   0.7355768   1.6794178  )
       107        Mn     tau( 107) = (   0.0058178   0.2579714   1.3748439  )
       108        Ni     tau( 108) = (   0.2445030   0.1966672   1.6827613  )
       109        Ni     tau( 109) = (   0.9973019   1.0372672   1.5419400  )
       110        Ni     tau( 110) = (   0.2442193   0.4988167   1.5412053  )
       111        Ni     tau( 111) = (   0.7355958   0.7989306   1.3771896  )
       112        Mn     tau( 112) = (   0.9955940   0.7374460   1.6981170  )
       113        Mn     tau( 113) = (   0.5084073   0.2597986   1.3740649  )
       114        Ni     tau( 114) = (   0.7506413   0.1876866   1.7157338  )
       115        Ni     tau( 115) = (   0.4999815   1.0354405   1.5368422  )
       116        Ni     tau( 116) = (   0.7421734   0.4941468   1.5447217  )
       117        P      tau( 117) = (   0.2134520   0.9305608   1.6928748  )
       118        P      tau( 118) = (   0.4552265   0.6038409   1.3792233  )
       119        P      tau( 119) = (   0.2846976   0.0570133   1.3802773  )
       120        P      tau( 120) = (   0.0325224   0.3864354   1.7029347  )
       121        O      tau( 121) = (   0.1349751   0.8706564   1.5506288  )
       122        O      tau( 122) = (   0.3764107   0.6721600   1.5149202  )
       123        O      tau( 123) = (   0.3606206   0.1260236   1.5156957  )
       124        O      tau( 124) = (   0.1092748   0.3280951   1.5591652  )
       125        O      tau( 125) = (   0.1511793   0.8339695   1.8079082  )
       126        O      tau( 126) = (   0.3964659   0.6926639   1.2544695  )
       127        O      tau( 127) = (   0.3425042   0.1476694   1.2561401  )
       128        O      tau( 128) = (   0.0960478   0.2915149   1.8172940  )
       129        O      tau( 129) = (   0.0879065   0.5436709   1.7030381  )
       130        O      tau( 130) = (   0.3488342   0.9858816   1.3801817  )
       131        O      tau( 131) = (   0.3671736   0.3798408   1.6812659  )
       132        O      tau( 132) = (   0.1219276   0.0647475   1.3934455  )
       133        O      tau( 133) = (   0.1179523   0.6112524   1.3972003  )
       134        O      tau( 134) = (   0.3951101   0.4502108   1.3814183  )
       135        O      tau( 135) = (   0.1554058   0.0046046   1.6969583  )
       136        O      tau( 136) = (   0.3765182   0.9212570   1.6810882  )
       137        P      tau( 137) = (   0.7067285   0.9241104   1.6956373  )
       138        P      tau( 138) = (   0.9550835   0.6030567   1.3877912  )
       139        P      tau( 139) = (   0.7840039   0.0566892   1.3823828  )
       140        P      tau( 140) = (   0.5313930   0.3840217   1.6968505  )
       141        O      tau( 141) = (   0.6301565   0.8631087   1.5500589  )
       142        O      tau( 142) = (   0.8781540   0.6680547   1.5246654  )
       143        O      tau( 143) = (   0.8584090   0.1266911   1.5169273  )
       144        O      tau( 144) = (   0.6101434   0.3244037   1.5563583  )
       145        O      tau( 145) = (   0.6497044   0.8229155   1.8076390  )
       146        O      tau( 146) = (   0.8952346   0.6931503   1.2649845  )
       147        O      tau( 147) = (   0.8417833   0.1457064   1.2563858  )
       148        O      tau( 148) = (   0.5882982   0.2884097   1.8138105  )
       149        O      tau( 149) = (   0.5857986   0.5416269   1.6967524  )
       150        O      tau( 150) = (   0.8463249   0.9844929   1.3834097  )
       151        O      tau( 151) = (   0.8691606   0.3830520   1.6896730  )
       152        O      tau( 152) = (   0.6208256   0.0636157   1.3908489  )
       153        O      tau( 153) = (   0.6179180   0.6081228   1.3928659  )
       154        O      tau( 154) = (   0.8974059   0.4489532   1.3860662  )
       155        O      tau( 155) = (   0.6446735  -0.0036875   1.6925588  )
       156        O      tau( 156) = (   0.8709253   0.9175257   1.6809245  )
       157        O      tau( 157) = (   0.8700644   0.1000713   1.8382274  )
       158        H      tau( 158) = (   0.9531421   0.1587224   1.8623299  )

     -------------------------------------------------
     Parameters for Dispersion (Grimme-D2) Correction:
     -------------------------------------------------
       atom      VdW radius       C_6     

        Ni         2.952        374.666
        Mn         2.952        374.666
        P          3.222        271.980
        O          2.536         24.284
        H          1.892          4.857

     number of k points=     1  Gaussian smearing, width (Ry)=  0.0100
                       cart. coord. in units 2pi/alat
        k(    1) = (   0.0000000   0.0000000   0.0000000), wk =   1.0000000

     Dense  grid:  1979026 G-vectors     FFT dimensions: ( 128, 144, 450)

     Smooth grid:   500628 G-vectors     FFT dimensions: (  81,  90, 288)

     Estimated max dynamical RAM per process >     333.40 MB

     Estimated total dynamical RAM >      20.84 GB

     Check: negative core charge=   -0.000002
     Generating pointlists ...
     new r_m :   0.0793 (alat units)  1.4155 (a.u.) for type    1
     new r_m :   0.0881 (alat units)  1.5722 (a.u.) for type    2
     new r_m :   0.0666 (alat units)  1.1883 (a.u.) for type    3
     new r_m :   0.0431 (alat units)  0.7697 (a.u.) for type    4
     new r_m :   0.0431 (alat units)  0.7697 (a.u.) for type    5

     Initial potential from superposition of free atoms

     starting charge    1107.8886, renormalised to    1108.0000

     negative rho (up, down):  1.535E-03 4.697E-04
 
     Adding external electric field

     Computed dipole along edir(3) : 
        Dipole                1.6266 Ry au,          4.1345 Debye
        Dipole field          0.0010 Ry au, 
 
        Potential amp.       -0.1067 Ry
        Total length         54.7057 bohr
 
 
     Adding external electric field

     Computed dipole along edir(3) : 
        Dipole                1.6266 Ry au,          4.1345 Debye
        Dipole field          0.0010 Ry au, 
 
        Potential amp.       -0.1067 Ry
        Total length         54.7057 bohr
 
     Starting wfcs are  818 randomized atomic wfcs

     total cpu time spent up to now is       11.4 secs

     Self-consistent Calculation

     iteration #  1     ecut=    50.00 Ry     beta= 0.50
     Davidson diagonalization with overlap
     ethr =  1.00E-02,  avg # of iterations =  5.5

     negative rho (up, down):  2.815E+00 1.195E-06
 
     Adding external electric field

     Computed dipole along edir(3) : 
        Dipole              -25.3128 Ry au,        -64.3387 Debye
        Dipole field         -0.0152 Ry au, 
 
        Potential amp.        1.6602 Ry
        Total length         54.7057 bohr
 
 
     Adding external electric field

     Computed dipole along edir(3) : 
        Dipole              -25.3128 Ry au,        -64.3387 Debye
        Dipole field         -0.0152 Ry au, 
 
        Potential amp.        1.6602 Ry
        Total length         54.7057 bohr
 

     total cpu time spent up to now is       41.6 secs

     total energy              =   -7888.60201581 Ry
     estimated scf accuracy    <     732.61536790 Ry

     total magnetization       =   222.00 Bohr mag/cell
     absolute magnetization    =   319.77 Bohr mag/cell

     iteration #  2     ecut=    50.00 Ry     beta= 0.50
     Davidson diagonalization with overlap
     ethr =  1.00E-02,  avg # of iterations =  8.0

     negative rho (up, down):  2.762E+00 8.095E-06
 
     Adding external electric field

     Computed dipole along edir(3) : 
        Dipole               -0.7322 Ry au,         -1.8610 Debye
        Dipole field         -0.0004 Ry au, 
 
        Potential amp.        0.0480 Ry
        Total length         54.7057 bohr
 
 
     Adding external electric field

     Computed dipole along edir(3) : 
        Dipole               -0.7322 Ry au,         -1.8610 Debye
        Dipole field         -0.0004 Ry au, 
 
        Potential amp.        0.0480 Ry
        Total length         54.7057 bohr
 

     total cpu time spent up to now is       73.9 secs

     total energy              =   -7974.70074685 Ry
     estimated scf accuracy    <    8797.37320115 Ry

     total magnetization       =   136.48 Bohr mag/cell
     absolute magnetization    =   178.60 Bohr mag/cell

     iteration #  3     ecut=    50.00 Ry     beta= 0.50
     Davidson diagonalization with overlap
     ethr =  1.00E-02,  avg # of iterations =  9.0

     negative rho (up, down):  1.933E+00 1.518E-05
 
     Adding external electric field

     Computed dipole along edir(3) : 
        Dipole               -3.3409 Ry au,         -8.4917 Debye
        Dipole field         -0.0020 Ry au, 
 
        Potential amp.        0.2191 Ry
        Total length         54.7057 bohr
 
 
     Adding external electric field

     Computed dipole along edir(3) : 
        Dipole               -3.3409 Ry au,         -8.4917 Debye
        Dipole field         -0.0020 Ry au, 
 
        Potential amp.        0.2191 Ry
        Total length         54.7057 bohr
 

     total cpu time spent up to now is       96.8 secs

     total energy              =   -8043.40086100 Ry
     estimated scf accuracy    <     442.46596142 Ry

     total magnetization       =   130.01 Bohr mag/cell
     absolute magnetization    =   177.24 Bohr mag/cell

     iteration #  4     ecut=    50.00 Ry     beta= 0.50
     Davidson diagonalization with overlap
     ethr =  1.00E-02,  avg # of iterations =  4.5

     negative rho (up, down):  1.262E+00 5.164E-06
 
     Adding external electric field

     Computed dipole along edir(3) : 
        Dipole               -3.4360 Ry au,         -8.7334 Debye
        Dipole field         -0.0021 Ry au, 
 
        Potential amp.        0.2254 Ry
        Total length         54.7057 bohr
 
 
     Adding external electric field

     Computed dipole along edir(3) : 
        Dipole               -3.4360 Ry au,         -8.7334 Debye
        Dipole field         -0.0021 Ry au, 
 
        Potential amp.        0.2254 Ry
        Total length         54.7057 bohr
 

     total cpu time spent up to now is      114.1 secs

     total energy              =   -8060.37219306 Ry
     estimated scf accuracy    <     144.85121835 Ry

     total magnetization       =   102.01 Bohr mag/cell
     absolute magnetization    =   146.73 Bohr mag/cell

     iteration #  5     ecut=    50.00 Ry     beta= 0.50
     Davidson diagonalization with overlap
     ethr =  1.00E-02,  avg # of iterations =  1.5

     negative rho (up, down):  6.290E-01 0.000E+00
 
     Adding external electric field

     Computed dipole along edir(3) : 
        Dipole               -3.6696 Ry au,         -9.3271 Debye
        Dipole field         -0.0022 Ry au, 
 
        Potential amp.        0.2407 Ry
        Total length         54.7057 bohr
 
 
     Adding external electric field

     Computed dipole along edir(3) : 
        Dipole               -3.6696 Ry au,         -9.3271 Debye
        Dipole field         -0.0022 Ry au, 
 
        Potential amp.        0.2407 Ry
        Total length         54.7057 bohr
 

     total cpu time spent up to now is      128.3 secs

     total energy              =   -8070.00315642 Ry
     estimated scf accuracy    <      64.81834866 Ry

     total magnetization       =    99.99 Bohr mag/cell
     absolute magnetization    =   134.43 Bohr mag/cell

     iteration #  6     ecut=    50.00 Ry     beta= 0.50
     Davidson diagonalization with overlap
     ethr =  5.85E-03,  avg # of iterations =  1.5

     negative rho (up, down):  2.750E-01 0.000E+00
 
     Adding external electric field

     Computed dipole along edir(3) : 
        Dipole               -4.0385 Ry au,        -10.2650 Debye
        Dipole field         -0.0024 Ry au, 
 
        Potential amp.        0.2649 Ry
        Total length         54.7057 bohr
 
 
     Adding external electric field

     Computed dipole along edir(3) : 
        Dipole               -4.0385 Ry au,        -10.2650 Debye
        Dipole field         -0.0024 Ry au, 
 
        Potential amp.        0.2649 Ry
        Total length         54.7057 bohr
 

     total cpu time spent up to now is      143.1 secs

     total energy              =   -8073.78160166 Ry
     estimated scf accuracy    <      40.38338987 Ry

     total magnetization       =    99.02 Bohr mag/cell
     absolute magnetization    =   123.99 Bohr mag/cell

     iteration #  7     ecut=    50.00 Ry     beta= 0.50
     Davidson diagonalization with overlap
     ethr =  3.64E-03,  avg # of iterations =  1.5

     negative rho (up, down):  1.747E-03 1.247E-03
 
     Adding external electric field

     Computed dipole along edir(3) : 
        Dipole               -4.2922 Ry au,        -10.9096 Debye
        Dipole field         -0.0026 Ry au, 
 
        Potential amp.        0.2815 Ry
        Total length         54.7057 bohr
 
 
     Adding external electric field

     Computed dipole along edir(3) : 
        Dipole               -4.2922 Ry au,        -10.9096 Debye
        Dipole field         -0.0026 Ry au, 
 
        Potential amp.        0.2815 Ry
        Total length         54.7057 bohr
 

     total cpu time spent up to now is      157.6 secs

     total energy              =   -8076.70372707 Ry
     estimated scf accuracy    <      27.84463218 Ry

     total magnetization       =    98.59 Bohr mag/cell
     absolute magnetization    =   116.47 Bohr mag/cell

     iteration #  8     ecut=    50.00 Ry     beta= 0.50
     Davidson diagonalization with overlap
     ethr =  2.51E-03,  avg # of iterations =  2.0

     negative rho (up, down):  8.263E-05 2.218E-03
 
     Adding external electric field

     Computed dipole along edir(3) : 
        Dipole               -4.3303 Ry au,        -11.0064 Debye
        Dipole field         -0.0026 Ry au, 
 
        Potential amp.        0.2840 Ry
        Total length         54.7057 bohr
 
 
     Adding external electric field

     Computed dipole along edir(3) : 
        Dipole               -4.3303 Ry au,        -11.0064 Debye
        Dipole field         -0.0026 Ry au, 
 
        Potential amp.        0.2840 Ry
        Total length         54.7057 bohr
 

     total cpu time spent up to now is      173.0 secs

     total energy              =   -8077.88618234 Ry
     estimated scf accuracy    <      76.31478013 Ry

     total magnetization       =    87.86 Bohr mag/cell
     absolute magnetization    =    98.72 Bohr mag/cell

     iteration #  9     ecut=    50.00 Ry     beta= 0.50
     Davidson diagonalization with overlap
     ethr =  2.51E-03,  avg # of iterations =  1.5

     negative rho (up, down):  2.139E-05 1.224E-03
 
     Adding external electric field

     Computed dipole along edir(3) : 
        Dipole               -4.3027 Ry au,        -10.9363 Debye
        Dipole field         -0.0026 Ry au, 
 
        Potential amp.        0.2822 Ry
        Total length         54.7057 bohr
 
 
     Adding external electric field

     Computed dipole along edir(3) : 
        Dipole               -4.3027 Ry au,        -10.9363 Debye
        Dipole field         -0.0026 Ry au, 
 
        Potential amp.        0.2822 Ry
        Total length         54.7057 bohr
 

     total cpu time spent up to now is      187.8 secs

     total energy              =   -8078.36194579 Ry
     estimated scf accuracy    <       9.75037577 Ry

     total magnetization       =    91.98 Bohr mag/cell
     absolute magnetization    =   100.24 Bohr mag/cell

     iteration # 10     ecut=    50.00 Ry     beta= 0.50
     Davidson diagonalization with overlap
     ethr =  8.80E-04,  avg # of iterations =  6.0

     negative rho (up, down):  2.056E-05 4.782E-03
 
     Adding external electric field

     Computed dipole along edir(3) : 
        Dipole               -4.2849 Ry au,        -10.8912 Debye
        Dipole field         -0.0026 Ry au, 
 
        Potential amp.        0.2810 Ry
        Total length         54.7057 bohr
 
 
     Adding external electric field

     Computed dipole along edir(3) : 
        Dipole               -4.2849 Ry au,        -10.8912 Debye
        Dipole field         -0.0026 Ry au, 
 
        Potential amp.        0.2810 Ry
        Total length         54.7057 bohr
 

     total cpu time spent up to now is      207.7 secs

     total energy              =   -8078.53232023 Ry
     estimated scf accuracy    <      15.90560478 Ry

     total magnetization       =    95.57 Bohr mag/cell
     absolute magnetization    =   102.01 Bohr mag/cell

     iteration # 11     ecut=    50.00 Ry     beta= 0.50
     Davidson diagonalization with overlap
     ethr =  8.80E-04,  avg # of iterations =  1.0

     negative rho (up, down):  0.000E+00 2.507E-04
 
     Adding external electric field

     Computed dipole along edir(3) : 
        Dipole               -4.1538 Ry au,        -10.5579 Debye
        Dipole field         -0.0025 Ry au, 
 
        Potential amp.        0.2724 Ry
        Total length         54.7057 bohr
 
 
     Adding external electric field

     Computed dipole along edir(3) : 
        Dipole               -4.1538 Ry au,        -10.5579 Debye
        Dipole field         -0.0025 Ry au, 
 
        Potential amp.        0.2724 Ry
        Total length         54.7057 bohr
 

     total cpu time spent up to now is      221.2 secs

     total energy              =   -8078.56979349 Ry
     estimated scf accuracy    <      15.49513100 Ry

     total magnetization       =    95.91 Bohr mag/cell
     absolute magnetization    =   100.28 Bohr mag/cell

     iteration # 12     ecut=    50.00 Ry     beta= 0.50
     Davidson diagonalization with overlap
     ethr =  8.80E-04,  avg # of iterations =  1.5

     negative rho (up, down):  0.000E+00 2.854E-04
 
     Adding external electric field

     Computed dipole along edir(3) : 
        Dipole               -4.0727 Ry au,        -10.3517 Debye
        Dipole field         -0.0024 Ry au, 
 
        Potential amp.        0.2671 Ry
        Total length         54.7057 bohr
 
 
     Adding external electric field

     Computed dipole along edir(3) : 
        Dipole               -4.0727 Ry au,        -10.3517 Debye
        Dipole field         -0.0024 Ry au, 
 
        Potential amp.        0.2671 Ry
        Total length         54.7057 bohr
 

     total cpu time spent up to now is      235.9 secs

     total energy              =   -8078.56902403 Ry
     estimated scf accuracy    <      34.33796868 Ry

     total magnetization       =    92.37 Bohr mag/cell
     absolute magnetization    =    96.71 Bohr mag/cell

     iteration # 13     ecut=    50.00 Ry     beta= 0.50
     Davidson diagonalization with overlap
     ethr =  8.80E-04,  avg # of iterations =  1.0

     negative rho (up, down):  4.266E-07 0.000E+00
 
     Adding external electric field

     Computed dipole along edir(3) : 
        Dipole               -3.8809 Ry au,         -9.8644 Debye
        Dipole field         -0.0023 Ry au, 
 
        Potential amp.        0.2545 Ry
        Total length         54.7057 bohr
 
 
     Adding external electric field

     Computed dipole along edir(3) : 
        Dipole               -3.8809 Ry au,         -9.8644 Debye
        Dipole field         -0.0023 Ry au, 
 
        Potential amp.        0.2545 Ry
        Total length         54.7057 bohr
 

     total cpu time spent up to now is      249.6 secs

     total energy              =   -8078.30790907 Ry
     estimated scf accuracy    <      13.78338433 Ry

     total magnetization       =    90.65 Bohr mag/cell
     absolute magnetization    =    94.36 Bohr mag/cell

     iteration # 14     ecut=    50.00 Ry     beta= 0.50
     Davidson diagonalization with overlap
     ethr =  8.80E-04,  avg # of iterations =  1.5
 
     Adding external electric field

     Computed dipole along edir(3) : 
        Dipole               -3.7050 Ry au,         -9.4172 Debye
        Dipole field         -0.0022 Ry au, 
 
        Potential amp.        0.2430 Ry
        Total length         54.7057 bohr
 
 
     Adding external electric field

     Computed dipole along edir(3) : 
        Dipole               -3.7050 Ry au,         -9.4172 Debye
        Dipole field         -0.0022 Ry au, 
 
        Potential amp.        0.2430 Ry
        Total length         54.7057 bohr
 

     total cpu time spent up to now is      264.7 secs

     total energy              =   -8078.38114009 Ry
     estimated scf accuracy    <      23.97243711 Ry

     total magnetization       =    96.82 Bohr mag/cell
     absolute magnetization    =   101.55 Bohr mag/cell

     iteration # 15     ecut=    50.00 Ry     beta= 0.50
     Davidson diagonalization with overlap
     ethr =  8.80E-04,  avg # of iterations =  1.5

     negative rho (up, down):  2.682E-08 1.841E-08
 
     Adding external electric field

     Computed dipole along edir(3) : 
        Dipole               -3.4936 Ry au,         -8.8799 Debye
        Dipole field         -0.0021 Ry au, 
 
        Potential amp.        0.2291 Ry
        Total length         54.7057 bohr
 
 
     Adding external electric field

     Computed dipole along edir(3) : 
        Dipole               -3.4936 Ry au,         -8.8799 Debye
        Dipole field         -0.0021 Ry au, 
 
        Potential amp.        0.2291 Ry
        Total length         54.7057 bohr
 

     total cpu time spent up to now is      279.7 secs

     total energy              =   -8078.60970834 Ry
     estimated scf accuracy    <       8.36699586 Ry

     total magnetization       =    94.60 Bohr mag/cell
     absolute magnetization    =    97.49 Bohr mag/cell

     iteration # 16     ecut=    50.00 Ry     beta= 0.50
     Davidson diagonalization with overlap
     ethr =  7.55E-04,  avg # of iterations =  1.5

     negative rho (up, down):  2.060E-08 0.000E+00
 
     Adding external electric field

     Computed dipole along edir(3) : 
        Dipole               -3.3660 Ry au,         -8.5554 Debye
        Dipole field         -0.0020 Ry au, 
 
        Potential amp.        0.2208 Ry
        Total length         54.7057 bohr
 
 
     Adding external electric field

     Computed dipole along edir(3) : 
        Dipole               -3.3660 Ry au,         -8.5554 Debye
        Dipole field         -0.0020 Ry au, 
 
        Potential amp.        0.2208 Ry
        Total length         54.7057 bohr
 

     total cpu time spent up to now is      295.1 secs

     total energy              =   -8078.61831449 Ry
     estimated scf accuracy    <       5.88043984 Ry

     total magnetization       =    95.44 Bohr mag/cell
     absolute magnetization    =    97.30 Bohr mag/cell

     iteration # 17     ecut=    50.00 Ry     beta= 0.50
     Davidson diagonalization with overlap
     ethr =  5.31E-04,  avg # of iterations =  1.0

     negative rho (up, down):  2.234E-06 0.000E+00
 
     Adding external electric field

     Computed dipole along edir(3) : 
        Dipole               -2.9186 Ry au,         -7.4184 Debye
        Dipole field         -0.0017 Ry au, 
 
        Potential amp.        0.1914 Ry
        Total length         54.7057 bohr
 
 
     Adding external electric field

     Computed dipole along edir(3) : 
        Dipole               -2.9186 Ry au,         -7.4184 Debye
        Dipole field         -0.0017 Ry au, 
 
        Potential amp.        0.1914 Ry
        Total length         54.7057 bohr
 

     total cpu time spent up to now is      309.4 secs

     total energy              =   -8078.59502641 Ry
     estimated scf accuracy    <       2.20128367 Ry

     total magnetization       =    97.42 Bohr mag/cell
     absolute magnetization    =    99.28 Bohr mag/cell

     iteration # 18     ecut=    50.00 Ry     beta= 0.50
     Davidson diagonalization with overlap
     ethr =  1.99E-04,  avg # of iterations = 11.0

     negative rho (up, down):  1.140E-04 2.827E-04
 
     Adding external electric field

     Computed dipole along edir(3) : 
        Dipole               -2.5168 Ry au,         -6.3972 Debye
        Dipole field         -0.0015 Ry au, 
 
        Potential amp.        0.1651 Ry
        Total length         54.7057 bohr
 
 
     Adding external electric field

     Computed dipole along edir(3) : 
        Dipole               -2.5168 Ry au,         -6.3972 Debye
        Dipole field         -0.0015 Ry au, 
 
        Potential amp.        0.1651 Ry
        Total length         54.7057 bohr
 

     total cpu time spent up to now is      334.4 secs

     total energy              =   -8078.56181975 Ry
     estimated scf accuracy    <       1.32045910 Ry

     total magnetization       =    97.33 Bohr mag/cell
     absolute magnetization    =    98.72 Bohr mag/cell

     iteration # 19     ecut=    50.00 Ry     beta= 0.50
     Davidson diagonalization with overlap
     ethr =  1.19E-04,  avg # of iterations =  2.0

     negative rho (up, down):  2.725E-07 1.991E-06
 
     Adding external electric field

     Computed dipole along edir(3) : 
        Dipole               -2.3781 Ry au,         -6.0444 Debye
        Dipole field         -0.0014 Ry au, 
 
        Potential amp.        0.1560 Ry
        Total length         54.7057 bohr
 
 
     Adding external electric field

     Computed dipole along edir(3) : 
        Dipole               -2.3781 Ry au,         -6.0444 Debye
        Dipole field         -0.0014 Ry au, 
 
        Potential amp.        0.1560 Ry
        Total length         54.7057 bohr
 

     total cpu time spent up to now is      350.6 secs

     total energy              =   -8078.57330117 Ry
     estimated scf accuracy    <       0.78432775 Ry

     total magnetization       =    96.35 Bohr mag/cell
     absolute magnetization    =    97.41 Bohr mag/cell

     iteration # 20     ecut=    50.00 Ry     beta= 0.50
     Davidson diagonalization with overlap
     ethr =  7.08E-05,  avg # of iterations =  2.0

     negative rho (up, down):  1.366E-08 1.102E-09
 
     Adding external electric field

     Computed dipole along edir(3) : 
        Dipole               -2.3300 Ry au,         -5.9222 Debye
        Dipole field         -0.0014 Ry au, 
 
        Potential amp.        0.1528 Ry
        Total length         54.7057 bohr
 
 
     Adding external electric field

     Computed dipole along edir(3) : 
        Dipole               -2.3300 Ry au,         -5.9222 Debye
        Dipole field         -0.0014 Ry au, 
 
        Potential amp.        0.1528 Ry
        Total length         54.7057 bohr
 

     total cpu time spent up to now is      366.4 secs

     total energy              =   -8078.59148546 Ry
     estimated scf accuracy    <       0.33692674 Ry

     total magnetization       =    97.36 Bohr mag/cell
     absolute magnetization    =    98.48 Bohr mag/cell

     iteration # 21     ecut=    50.00 Ry     beta= 0.50
     Davidson diagonalization with overlap
     ethr =  3.04E-05,  avg # of iterations = 22.0
 
     Adding external electric field

     Computed dipole along edir(3) : 
        Dipole               -2.2385 Ry au,         -5.6898 Debye
        Dipole field         -0.0013 Ry au, 
 
        Potential amp.        0.1468 Ry
        Total length         54.7057 bohr
 
 
     Adding external electric field

     Computed dipole along edir(3) : 
        Dipole               -2.2385 Ry au,         -5.6898 Debye
        Dipole field         -0.0013 Ry au, 
 
        Potential amp.        0.1468 Ry
        Total length         54.7057 bohr
 

     total cpu time spent up to now is      409.8 secs

     total energy              =   -8078.59438738 Ry
     estimated scf accuracy    <       0.33797192 Ry

     total magnetization       =    97.85 Bohr mag/cell
     absolute magnetization    =    98.97 Bohr mag/cell

     iteration # 22     ecut=    50.00 Ry     beta= 0.50
     Davidson diagonalization with overlap
     ethr =  3.04E-05,  avg # of iterations =  1.5
 
     Adding external electric field

     Computed dipole along edir(3) : 
        Dipole               -2.0005 Ry au,         -5.0849 Debye
        Dipole field         -0.0012 Ry au, 
 
        Potential amp.        0.1312 Ry
        Total length         54.7057 bohr
 
 
     Adding external electric field

     Computed dipole along edir(3) : 
        Dipole               -2.0005 Ry au,         -5.0849 Debye
        Dipole field         -0.0012 Ry au, 
 
        Potential amp.        0.1312 Ry
        Total length         54.7057 bohr
 

     total cpu time spent up to now is      425.2 secs

     total energy              =   -8078.58737979 Ry
     estimated scf accuracy    <       0.21096390 Ry

     total magnetization       =    97.88 Bohr mag/cell
     absolute magnetization    =    99.01 Bohr mag/cell

     iteration # 23     ecut=    50.00 Ry     beta= 0.50
     Davidson diagonalization with overlap
     ethr =  1.90E-05,  avg # of iterations =  3.0
 
     Adding external electric field

     Computed dipole along edir(3) : 
        Dipole               -1.9775 Ry au,         -5.0262 Debye
        Dipole field         -0.0012 Ry au, 
 
        Potential amp.        0.1297 Ry
        Total length         54.7057 bohr
 
 
     Adding external electric field

     Computed dipole along edir(3) : 
        Dipole               -1.9775 Ry au,         -5.0262 Debye
        Dipole field         -0.0012 Ry au, 
 
        Potential amp.        0.1297 Ry
        Total length         54.7057 bohr
 

     total cpu time spent up to now is      442.7 secs

     total energy              =   -8078.58636641 Ry
     estimated scf accuracy    <       0.50125861 Ry

     total magnetization       =    96.70 Bohr mag/cell
     absolute magnetization    =    97.88 Bohr mag/cell

     iteration # 24     ecut=    50.00 Ry     beta= 0.50
     Davidson diagonalization with overlap
     ethr =  1.90E-05,  avg # of iterations =  2.5
 
     Adding external electric field

     Computed dipole along edir(3) : 
        Dipole               -2.1019 Ry au,         -5.3425 Debye
        Dipole field         -0.0013 Ry au, 
 
        Potential amp.        0.1379 Ry
        Total length         54.7057 bohr
 
 
     Adding external electric field

     Computed dipole along edir(3) : 
        Dipole               -2.1019 Ry au,         -5.3425 Debye
        Dipole field         -0.0013 Ry au, 
 
        Potential amp.        0.1379 Ry
        Total length         54.7057 bohr
 

     total cpu time spent up to now is      458.3 secs

     total energy              =   -8078.58873007 Ry
     estimated scf accuracy    <       0.43524028 Ry

     total magnetization       =    97.04 Bohr mag/cell
     absolute magnetization    =    98.26 Bohr mag/cell

     iteration # 25     ecut=    50.00 Ry     beta= 0.50
     Davidson diagonalization with overlap
     ethr =  1.90E-05,  avg # of iterations =  1.5
 
     Adding external electric field

     Computed dipole along edir(3) : 
        Dipole               -2.0150 Ry au,         -5.1215 Debye
        Dipole field         -0.0012 Ry au, 
 
        Potential amp.        0.1322 Ry
        Total length         54.7057 bohr
 
 
     Adding external electric field

     Computed dipole along edir(3) : 
        Dipole               -2.0150 Ry au,         -5.1215 Debye
        Dipole field         -0.0012 Ry au, 
 
        Potential amp.        0.1322 Ry
        Total length         54.7057 bohr
 

     total cpu time spent up to now is      473.8 secs

     total energy              =   -8078.59074721 Ry
     estimated scf accuracy    <       0.15896434 Ry

     total magnetization       =    97.69 Bohr mag/cell
     absolute magnetization    =    98.90 Bohr mag/cell

     iteration # 26     ecut=    50.00 Ry     beta= 0.50
     Davidson diagonalization with overlap
     ethr =  1.43E-05,  avg # of iterations =  1.5
 
     Adding external electric field

     Computed dipole along edir(3) : 
        Dipole               -1.9162 Ry au,         -4.8704 Debye
        Dipole field         -0.0011 Ry au, 
 
        Potential amp.        0.1257 Ry
        Total length         54.7057 bohr
 
 
     Adding external electric field

     Computed dipole along edir(3) : 
        Dipole               -1.9162 Ry au,         -4.8704 Debye
        Dipole field         -0.0011 Ry au, 
 
        Potential amp.        0.1257 Ry
        Total length         54.7057 bohr
 

     total cpu time spent up to now is      489.5 secs

     total energy              =   -8078.58900428 Ry
     estimated scf accuracy    <       0.15730014 Ry

     total magnetization       =    97.54 Bohr mag/cell
     absolute magnetization    =    98.77 Bohr mag/cell

     iteration # 27     ecut=    50.00 Ry     beta= 0.50
     Davidson diagonalization with overlap
     ethr =  1.42E-05,  avg # of iterations =  1.5
 
     Adding external electric field

     Computed dipole along edir(3) : 
        Dipole               -1.6909 Ry au,         -4.2977 Debye
        Dipole field         -0.0010 Ry au, 
 
        Potential amp.        0.1109 Ry
        Total length         54.7057 bohr
 
 
     Adding external electric field

     Computed dipole along edir(3) : 
        Dipole               -1.6909 Ry au,         -4.2977 Debye
        Dipole field         -0.0010 Ry au, 
 
        Potential amp.        0.1109 Ry
        Total length         54.7057 bohr
 

     total cpu time spent up to now is      504.2 secs

     total energy              =   -8078.58342635 Ry
     estimated scf accuracy    <       0.20067426 Ry

     total magnetization       =    97.46 Bohr mag/cell
     absolute magnetization    =    98.73 Bohr mag/cell

     iteration # 28     ecut=    50.00 Ry     beta= 0.50
     Davidson diagonalization with overlap
     ethr =  1.42E-05,  avg # of iterations = 12.5
 
     Adding external electric field

     Computed dipole along edir(3) : 
        Dipole               -1.8095 Ry au,         -4.5993 Debye
        Dipole field         -0.0011 Ry au, 
 
        Potential amp.        0.1187 Ry
        Total length         54.7057 bohr
 
 
     Adding external electric field

     Computed dipole along edir(3) : 
        Dipole               -1.8095 Ry au,         -4.5993 Debye
        Dipole field         -0.0011 Ry au, 
 
        Potential amp.        0.1187 Ry
        Total length         54.7057 bohr
 

     total cpu time spent up to now is      533.4 secs

     total energy              =   -8078.57698468 Ry
     estimated scf accuracy    <       0.36995092 Ry

     total magnetization       =    96.02 Bohr mag/cell
     absolute magnetization    =    97.36 Bohr mag/cell

     iteration # 29     ecut=    50.00 Ry     beta= 0.50
     Davidson diagonalization with overlap
     ethr =  1.42E-05,  avg # of iterations =  3.0
 
     Adding external electric field

     Computed dipole along edir(3) : 
        Dipole               -1.8394 Ry au,         -4.6752 Debye
        Dipole field         -0.0011 Ry au, 
 
        Potential amp.        0.1206 Ry
        Total length         54.7057 bohr
 
 
     Adding external electric field

     Computed dipole along edir(3) : 
        Dipole               -1.8394 Ry au,         -4.6752 Debye
        Dipole field         -0.0011 Ry au, 
 
        Potential amp.        0.1206 Ry
        Total length         54.7057 bohr
 

     total cpu time spent up to now is      550.4 secs

     total energy              =   -8078.59168196 Ry
     estimated scf accuracy    <       0.42265588 Ry

     total magnetization       =    97.03 Bohr mag/cell
     absolute magnetization    =    98.29 Bohr mag/cell

     iteration # 30     ecut=    50.00 Ry     beta= 0.50
     Davidson diagonalization with overlap
     ethr =  1.42E-05,  avg # of iterations =  1.5
 
     Adding external electric field

     Computed dipole along edir(3) : 
        Dipole               -1.8614 Ry au,         -4.7313 Debye
        Dipole field         -0.0011 Ry au, 
 
        Potential amp.        0.1221 Ry
        Total length         54.7057 bohr
 
 
     Adding external electric field

     Computed dipole along edir(3) : 
        Dipole               -1.8614 Ry au,         -4.7313 Debye
        Dipole field         -0.0011 Ry au, 
 
        Potential amp.        0.1221 Ry
        Total length         54.7057 bohr
 

     total cpu time spent up to now is      565.5 secs

     total energy              =   -8078.59192127 Ry
     estimated scf accuracy    <       0.39304213 Ry

     total magnetization       =    97.15 Bohr mag/cell
     absolute magnetization    =    98.40 Bohr mag/cell

     iteration # 31     ecut=    50.00 Ry     beta= 0.50
     Davidson diagonalization with overlap
     ethr =  1.42E-05,  avg # of iterations =  1.5
 
     Adding external electric field

     Computed dipole along edir(3) : 
        Dipole               -1.9242 Ry au,         -4.8909 Debye
        Dipole field         -0.0012 Ry au, 
 
        Potential amp.        0.1262 Ry
        Total length         54.7057 bohr
 
 
     Adding external electric field

     Computed dipole along edir(3) : 
        Dipole               -1.9242 Ry au,         -4.8909 Debye
        Dipole field         -0.0012 Ry au, 
 
        Potential amp.        0.1262 Ry
        Total length         54.7057 bohr
 

     total cpu time spent up to now is      580.8 secs

     total energy              =   -8078.59328161 Ry
     estimated scf accuracy    <       0.34771294 Ry

     total magnetization       =    97.25 Bohr mag/cell
     absolute magnetization    =    98.49 Bohr mag/cell

     iteration # 32     ecut=    50.00 Ry     beta= 0.50
     Davidson diagonalization with overlap
     ethr =  1.42E-05,  avg # of iterations =  1.5
 
     Adding external electric field

     Computed dipole along edir(3) : 
        Dipole               -1.8697 Ry au,         -4.7523 Debye
        Dipole field         -0.0011 Ry au, 
 
        Potential amp.        0.1226 Ry
        Total length         54.7057 bohr
 
 
     Adding external electric field

     Computed dipole along edir(3) : 
        Dipole               -1.8697 Ry au,         -4.7523 Debye
        Dipole field         -0.0011 Ry au, 
 
        Potential amp.        0.1226 Ry
        Total length         54.7057 bohr
 

     total cpu time spent up to now is      597.0 secs

     total energy              =   -8078.59077114 Ry
     estimated scf accuracy    <       0.38158735 Ry

     total magnetization       =    97.18 Bohr mag/cell
     absolute magnetization    =    98.39 Bohr mag/cell

     iteration # 33     ecut=    50.00 Ry     beta= 0.50
     Davidson diagonalization with overlap
     ethr =  1.42E-05,  avg # of iterations =  1.5
 
     Adding external electric field

     Computed dipole along edir(3) : 
        Dipole               -1.7332 Ry au,         -4.4052 Debye
        Dipole field         -0.0010 Ry au, 
 
        Potential amp.        0.1137 Ry
        Total length         54.7057 bohr
 
 
     Adding external electric field

     Computed dipole along edir(3) : 
        Dipole               -1.7332 Ry au,         -4.4052 Debye
        Dipole field         -0.0010 Ry au, 
 
        Potential amp.        0.1137 Ry
        Total length         54.7057 bohr
 

     total cpu time spent up to now is      612.5 secs

     total energy              =   -8078.58604279 Ry
     estimated scf accuracy    <       0.30802825 Ry

     total magnetization       =    97.25 Bohr mag/cell
     absolute magnetization    =    98.48 Bohr mag/cell

     iteration # 34     ecut=    50.00 Ry     beta= 0.50
     Davidson diagonalization with overlap
     ethr =  1.42E-05,  avg # of iterations =  1.5
 
     Adding external electric field

     Computed dipole along edir(3) : 
        Dipole               -1.5669 Ry au,         -3.9827 Debye
        Dipole field         -0.0009 Ry au, 
 
        Potential amp.        0.1028 Ry
        Total length         54.7057 bohr
 
 
     Adding external electric field

     Computed dipole along edir(3) : 
        Dipole               -1.5669 Ry au,         -3.9827 Debye
        Dipole field         -0.0009 Ry au, 
 
        Potential amp.        0.1028 Ry
        Total length         54.7057 bohr
 

     total cpu time spent up to now is      627.6 secs

     total energy              =   -8078.58006447 Ry
     estimated scf accuracy    <       0.24303609 Ry

     total magnetization       =    97.39 Bohr mag/cell
     absolute magnetization    =    98.63 Bohr mag/cell

     iteration # 35     ecut=    50.00 Ry     beta= 0.50
     Davidson diagonalization with overlap
     ethr =  1.42E-05,  avg # of iterations =  1.5
 
     Adding external electric field

     Computed dipole along edir(3) : 
        Dipole               -1.7136 Ry au,         -4.3555 Debye
        Dipole field         -0.0010 Ry au, 
 
        Potential amp.        0.1124 Ry
        Total length         54.7057 bohr
 
 
     Adding external electric field

     Computed dipole along edir(3) : 
        Dipole               -1.7136 Ry au,         -4.3555 Debye
        Dipole field         -0.0010 Ry au, 
 
        Potential amp.        0.1124 Ry
        Total length         54.7057 bohr
 

     total cpu time spent up to now is      642.8 secs

     total energy              =   -8078.58062942 Ry
     estimated scf accuracy    <       0.15963223 Ry

     total magnetization       =    96.77 Bohr mag/cell
     absolute magnetization    =    98.01 Bohr mag/cell

     iteration # 36     ecut=    50.00 Ry     beta= 0.50
     Davidson diagonalization with overlap
     ethr =  1.42E-05,  avg # of iterations =  1.5
 
     Adding external electric field

     Computed dipole along edir(3) : 
        Dipole               -1.5329 Ry au,         -3.8962 Debye
        Dipole field         -0.0009 Ry au, 
 
        Potential amp.        0.1005 Ry
        Total length         54.7057 bohr
 
 
     Adding external electric field

     Computed dipole along edir(3) : 
        Dipole               -1.5329 Ry au,         -3.8962 Debye
        Dipole field         -0.0009 Ry au, 
 
        Potential amp.        0.1005 Ry
        Total length         54.7057 bohr
 

     total cpu time spent up to now is      658.2 secs

     total energy              =   -8078.57664471 Ry
     estimated scf accuracy    <       0.08789038 Ry

     total magnetization       =    96.94 Bohr mag/cell
     absolute magnetization    =    98.14 Bohr mag/cell

     iteration # 37     ecut=    50.00 Ry     beta= 0.50
     Davidson diagonalization with overlap
     ethr =  7.93E-06,  avg # of iterations =  2.0
 
     Adding external electric field

     Computed dipole along edir(3) : 
        Dipole               -1.5710 Ry au,         -3.9930 Debye
        Dipole field         -0.0009 Ry au, 
 
        Potential amp.        0.1030 Ry
        Total length         54.7057 bohr
 
 
     Adding external electric field

     Computed dipole along edir(3) : 
        Dipole               -1.5710 Ry au,         -3.9930 Debye
        Dipole field         -0.0009 Ry au, 
 
        Potential amp.        0.1030 Ry
        Total length         54.7057 bohr
 

     total cpu time spent up to now is      675.0 secs

     total energy              =   -8078.57944420 Ry
     estimated scf accuracy    <       0.10977563 Ry

     total magnetization       =    96.78 Bohr mag/cell
     absolute magnetization    =    97.97 Bohr mag/cell

     iteration # 38     ecut=    50.00 Ry     beta= 0.50
     Davidson diagonalization with overlap
     ethr =  7.93E-06,  avg # of iterations =  1.0
 
     Adding external electric field

     Computed dipole along edir(3) : 
        Dipole               -1.4939 Ry au,         -3.7970 Debye
        Dipole field         -0.0009 Ry au, 
 
        Potential amp.        0.0980 Ry
        Total length         54.7057 bohr
 
 
     Adding external electric field

     Computed dipole along edir(3) : 
        Dipole               -1.4939 Ry au,         -3.7970 Debye
        Dipole field         -0.0009 Ry au, 
 
        Potential amp.        0.0980 Ry
        Total length         54.7057 bohr
 

     total cpu time spent up to now is      688.9 secs

     total energy              =   -8078.57621707 Ry
     estimated scf accuracy    <       0.10651335 Ry

     total magnetization       =    96.85 Bohr mag/cell
     absolute magnetization    =    98.05 Bohr mag/cell

     iteration # 39     ecut=    50.00 Ry     beta= 0.50
     Davidson diagonalization with overlap
     ethr =  7.93E-06,  avg # of iterations =  3.0
 
     Adding external electric field

     Computed dipole along edir(3) : 
        Dipole               -1.3897 Ry au,         -3.5324 Debye
        Dipole field         -0.0008 Ry au, 
 
        Potential amp.        0.0912 Ry
        Total length         54.7057 bohr
 
 
     Adding external electric field

     Computed dipole along edir(3) : 
        Dipole               -1.3897 Ry au,         -3.5324 Debye
        Dipole field         -0.0008 Ry au, 
 
        Potential amp.        0.0912 Ry
        Total length         54.7057 bohr
 

     total cpu time spent up to now is      705.8 secs

     total energy              =   -8078.57384765 Ry
     estimated scf accuracy    <       0.12062419 Ry

     total magnetization       =    96.71 Bohr mag/cell
     absolute magnetization    =    97.90 Bohr mag/cell

     iteration # 40     ecut=    50.00 Ry     beta= 0.50
     Davidson diagonalization with overlap
     ethr =  7.93E-06,  avg # of iterations =  1.5
 
     Adding external electric field

     Computed dipole along edir(3) : 
        Dipole               -1.1795 Ry au,         -2.9981 Debye
        Dipole field         -0.0007 Ry au, 
 
        Potential amp.        0.0774 Ry
        Total length         54.7057 bohr
 
 
     Adding external electric field

     Computed dipole along edir(3) : 
        Dipole               -1.1795 Ry au,         -2.9981 Debye
        Dipole field         -0.0007 Ry au, 
 
        Potential amp.        0.0774 Ry
        Total length         54.7057 bohr
 

     total cpu time spent up to now is      721.7 secs

     total energy              =   -8078.56909577 Ry
     estimated scf accuracy    <       0.10908098 Ry

     total magnetization       =    96.56 Bohr mag/cell
     absolute magnetization    =    97.75 Bohr mag/cell

     iteration # 41     ecut=    50.00 Ry     beta= 0.50
     Davidson diagonalization with overlap
     c_bands:  2 eigenvalues not converged
     c_bands:  1 eigenvalues not converged
     ethr =  7.93E-06,  avg # of iterations = 20.0

     negative rho (up, down):  4.012E-07 3.350E-08
 
     Adding external electric field

     Computed dipole along edir(3) : 
        Dipole               -0.8781 Ry au,         -2.2320 Debye
        Dipole field         -0.0005 Ry au, 
 
        Potential amp.        0.0576 Ry
        Total length         54.7057 bohr
 
 
     Adding external electric field

     Computed dipole along edir(3) : 
        Dipole               -0.8781 Ry au,         -2.2320 Debye
        Dipole field         -0.0005 Ry au, 
 
        Potential amp.        0.0576 Ry
        Total length         54.7057 bohr
 

     total cpu time spent up to now is      754.8 secs

     total energy              =   -8078.56068224 Ry
     estimated scf accuracy    <       0.15810565 Ry

     total magnetization       =    96.73 Bohr mag/cell
     absolute magnetization    =    97.94 Bohr mag/cell

     iteration # 42     ecut=    50.00 Ry     beta= 0.50
     Davidson diagonalization with overlap
     ethr =  7.93E-06,  avg # of iterations =  2.0

     negative rho (up, down):  1.440E-06 1.507E-08
 
     Adding external electric field

     Computed dipole along edir(3) : 
        Dipole               -0.5961 Ry au,         -1.5153 Debye
        Dipole field         -0.0004 Ry au, 
 
        Potential amp.        0.0391 Ry
        Total length         54.7057 bohr
 
 
     Adding external electric field

     Computed dipole along edir(3) : 
        Dipole               -0.5961 Ry au,         -1.5153 Debye
        Dipole field         -0.0004 Ry au, 
 
        Potential amp.        0.0391 Ry
        Total length         54.7057 bohr
 

     total cpu time spent up to now is      771.7 secs

     total energy              =   -8078.56177327 Ry
     estimated scf accuracy    <       0.05695813 Ry

     total magnetization       =    97.24 Bohr mag/cell
     absolute magnetization    =    98.48 Bohr mag/cell

     iteration # 43     ecut=    50.00 Ry     beta= 0.50
     Davidson diagonalization with overlap
     ethr =  5.14E-06,  avg # of iterations = 13.5

     negative rho (up, down):  2.310E-05 2.894E-09
 
     Adding external electric field

     Computed dipole along edir(3) : 
        Dipole               -0.2848 Ry au,         -0.7238 Debye
        Dipole field         -0.0002 Ry au, 
 
        Potential amp.        0.0187 Ry
        Total length         54.7057 bohr
 
 
     Adding external electric field

     Computed dipole along edir(3) : 
        Dipole               -0.2848 Ry au,         -0.7238 Debye
        Dipole field         -0.0002 Ry au, 
 
        Potential amp.        0.0187 Ry
        Total length         54.7057 bohr
 

     total cpu time spent up to now is      803.1 secs

     total energy              =   -8078.56108142 Ry
     estimated scf accuracy    <       0.04658550 Ry

     total magnetization       =    97.13 Bohr mag/cell
     absolute magnetization    =    98.39 Bohr mag/cell

     iteration # 44     ecut=    50.00 Ry     beta= 0.50
     Davidson diagonalization with overlap
     ethr =  4.20E-06,  avg # of iterations =  3.0

     negative rho (up, down):  6.022E-04 9.398E-05
 
     Adding external electric field

     Computed dipole along edir(3) : 
        Dipole               -0.1451 Ry au,         -0.3688 Debye
        Dipole field         -0.0001 Ry au, 
 
        Potential amp.        0.0095 Ry
        Total length         54.7057 bohr
 
 
     Adding external electric field

     Computed dipole along edir(3) : 
        Dipole               -0.1451 Ry au,         -0.3688 Debye
        Dipole field         -0.0001 Ry au, 
 
        Potential amp.        0.0095 Ry
        Total length         54.7057 bohr
 

     total cpu time spent up to now is      820.9 secs

     total energy              =   -8078.56122980 Ry
     estimated scf accuracy    <       0.02436833 Ry

     total magnetization       =    97.03 Bohr mag/cell
     absolute magnetization    =    98.31 Bohr mag/cell

     iteration # 45     ecut=    50.00 Ry     beta= 0.50
     Davidson diagonalization with overlap
     ethr =  2.20E-06,  avg # of iterations = 12.0

     negative rho (up, down):  9.448E-05 4.408E-06
 
     Adding external electric field

     Computed dipole along edir(3) : 
        Dipole               -0.1948 Ry au,         -0.4953 Debye
        Dipole field         -0.0001 Ry au, 
 
        Potential amp.        0.0128 Ry
        Total length         54.7057 bohr
 
 
     Adding external electric field

     Computed dipole along edir(3) : 
        Dipole               -0.1948 Ry au,         -0.4953 Debye
        Dipole field         -0.0001 Ry au, 
 
        Potential amp.        0.0128 Ry
        Total length         54.7057 bohr
 

     total cpu time spent up to now is      850.4 secs

     total energy              =   -8078.56125983 Ry
     estimated scf accuracy    <       0.00531759 Ry

     total magnetization       =    97.08 Bohr mag/cell
     absolute magnetization    =    98.34 Bohr mag/cell

     iteration # 46     ecut=    50.00 Ry     beta= 0.50
     Davidson diagonalization with overlap
     ethr =  4.80E-07,  avg # of iterations =  2.0

     negative rho (up, down):  1.965E-04 2.655E-05
 
     Adding external electric field

     Computed dipole along edir(3) : 
        Dipole               -0.1709 Ry au,         -0.4344 Debye
        Dipole field         -0.0001 Ry au, 
 
        Potential amp.        0.0112 Ry
        Total length         54.7057 bohr
 
 
     Adding external electric field

     Computed dipole along edir(3) : 
        Dipole               -0.1709 Ry au,         -0.4344 Debye
        Dipole field         -0.0001 Ry au, 
 
        Potential amp.        0.0112 Ry
        Total length         54.7057 bohr
 

     total cpu time spent up to now is      864.8 secs

     total energy              =   -8078.56129094 Ry
     estimated scf accuracy    <       0.00733258 Ry

     total magnetization       =    97.18 Bohr mag/cell
     absolute magnetization    =    98.42 Bohr mag/cell

     iteration # 47     ecut=    50.00 Ry     beta= 0.50
     Davidson diagonalization with overlap
     ethr =  4.80E-07,  avg # of iterations =  1.5

     negative rho (up, down):  5.154E-04 3.747E-04
 
     Adding external electric field

     Computed dipole along edir(3) : 
        Dipole               -0.1447 Ry au,         -0.3679 Debye
        Dipole field         -0.0001 Ry au, 
 
        Potential amp.        0.0095 Ry
        Total length         54.7057 bohr
 
 
     Adding external electric field

     Computed dipole along edir(3) : 
        Dipole               -0.1447 Ry au,         -0.3679 Debye
        Dipole field         -0.0001 Ry au, 
 
        Potential amp.        0.0095 Ry
        Total length         54.7057 bohr
 

     total cpu time spent up to now is      878.9 secs

     total energy              =   -8078.56141650 Ry
     estimated scf accuracy    <       0.00480723 Ry

     total magnetization       =    97.03 Bohr mag/cell
     absolute magnetization    =    98.27 Bohr mag/cell

     iteration # 48     ecut=    50.00 Ry     beta= 0.50
     Davidson diagonalization with overlap
     ethr =  4.34E-07,  avg # of iterations =  2.0

     negative rho (up, down):  1.785E-05 2.105E-06
 
     Adding external electric field

     Computed dipole along edir(3) : 
        Dipole               -0.2042 Ry au,         -0.5191 Debye
        Dipole field         -0.0001 Ry au, 
 
        Potential amp.        0.0134 Ry
        Total length         54.7057 bohr
 
 
     Adding external electric field

     Computed dipole along edir(3) : 
        Dipole               -0.2042 Ry au,         -0.5191 Debye
        Dipole field         -0.0001 Ry au, 
 
        Potential amp.        0.0134 Ry
        Total length         54.7057 bohr
 

     total cpu time spent up to now is      894.5 secs

     total energy              =   -8078.56137847 Ry
     estimated scf accuracy    <       0.01447190 Ry

     total magnetization       =    97.17 Bohr mag/cell
     absolute magnetization    =    98.39 Bohr mag/cell

     iteration # 49     ecut=    50.00 Ry     beta= 0.50
     Davidson diagonalization with overlap
     ethr =  4.34E-07,  avg # of iterations =  1.5

     negative rho (up, down):  1.878E-03 1.906E-03
 
     Adding external electric field

     Computed dipole along edir(3) : 
        Dipole               -0.1121 Ry au,         -0.2850 Debye
        Dipole field         -0.0001 Ry au, 
 
        Potential amp.        0.0074 Ry
        Total length         54.7057 bohr
 
 
     Adding external electric field

     Computed dipole along edir(3) : 
        Dipole               -0.1121 Ry au,         -0.2850 Debye
        Dipole field         -0.0001 Ry au, 
 
        Potential amp.        0.0074 Ry
        Total length         54.7057 bohr
 

     total cpu time spent up to now is      908.7 secs

     total energy              =   -8078.56143713 Ry
     estimated scf accuracy    <       0.00357200 Ry

     total magnetization       =    97.19 Bohr mag/cell
     absolute magnetization    =    98.40 Bohr mag/cell

     iteration # 50     ecut=    50.00 Ry     beta= 0.50
     Davidson diagonalization with overlap
     ethr =  3.22E-07,  avg # of iterations =  2.0

     negative rho (up, down):  8.164E-05 1.993E-05
 
     Adding external electric field

     Computed dipole along edir(3) : 
        Dipole               -0.1787 Ry au,         -0.4542 Debye
        Dipole field         -0.0001 Ry au, 
 
        Potential amp.        0.0117 Ry
        Total length         54.7057 bohr
 
 
     Adding external electric field

     Computed dipole along edir(3) : 
        Dipole               -0.1787 Ry au,         -0.4542 Debye
        Dipole field         -0.0001 Ry au, 
 
        Potential amp.        0.0117 Ry
        Total length         54.7057 bohr
 

     total cpu time spent up to now is      923.9 secs

     total energy              =   -8078.56124508 Ry
     estimated scf accuracy    <       0.01873384 Ry

     total magnetization       =    97.00 Bohr mag/cell
     absolute magnetization    =    98.22 Bohr mag/cell

     iteration # 51     ecut=    50.00 Ry     beta= 0.50
     Davidson diagonalization with overlap
     ethr =  3.22E-07,  avg # of iterations =  2.0

     negative rho (up, down):  1.496E-05 9.516E-07
 
     Adding external electric field

     Computed dipole along edir(3) : 
        Dipole               -0.2155 Ry au,         -0.5478 Debye
        Dipole field         -0.0001 Ry au, 
 
        Potential amp.        0.0141 Ry
        Total length         54.7057 bohr
 
 
     Adding external electric field

     Computed dipole along edir(3) : 
        Dipole               -0.2155 Ry au,         -0.5478 Debye
        Dipole field         -0.0001 Ry au, 
 
        Potential amp.        0.0141 Ry
        Total length         54.7057 bohr
 

     total cpu time spent up to now is      939.0 secs

     total energy              =   -8078.56143495 Ry
     estimated scf accuracy    <       0.00345386 Ry

     total magnetization       =    97.23 Bohr mag/cell
     absolute magnetization    =    98.44 Bohr mag/cell

     iteration # 52     ecut=    50.00 Ry     beta= 0.50
     Davidson diagonalization with overlap
     ethr =  3.12E-07,  avg # of iterations =  2.0

     negative rho (up, down):  7.083E-05 1.556E-05
 
     Adding external electric field

     Computed dipole along edir(3) : 
        Dipole               -0.1796 Ry au,         -0.4564 Debye
        Dipole field         -0.0001 Ry au, 
 
        Potential amp.        0.0118 Ry
        Total length         54.7057 bohr
 
 
     Adding external electric field

     Computed dipole along edir(3) : 
        Dipole               -0.1796 Ry au,         -0.4564 Debye
        Dipole field         -0.0001 Ry au, 
 
        Potential amp.        0.0118 Ry
        Total length         54.7057 bohr
 

     total cpu time spent up to now is      954.0 secs

     total energy              =   -8078.56147932 Ry
     estimated scf accuracy    <       0.00282535 Ry

     total magnetization       =    97.17 Bohr mag/cell
     absolute magnetization    =    98.37 Bohr mag/cell

     iteration # 53     ecut=    50.00 Ry     beta= 0.50
     Davidson diagonalization with overlap
     ethr =  2.55E-07,  avg # of iterations =  1.5

     negative rho (up, down):  3.961E-05 4.385E-06
 
     Adding external electric field

     Computed dipole along edir(3) : 
        Dipole               -0.1917 Ry au,         -0.4873 Debye
        Dipole field         -0.0001 Ry au, 
 
        Potential amp.        0.0126 Ry
        Total length         54.7057 bohr
 
 
     Adding external electric field

     Computed dipole along edir(3) : 
        Dipole               -0.1917 Ry au,         -0.4873 Debye
        Dipole field         -0.0001 Ry au, 
 
        Potential amp.        0.0126 Ry
        Total length         54.7057 bohr
 

     total cpu time spent up to now is      968.5 secs

     total energy              =   -8078.56149956 Ry
     estimated scf accuracy    <       0.00113378 Ry

     total magnetization       =    97.15 Bohr mag/cell
     absolute magnetization    =    98.36 Bohr mag/cell

     iteration # 54     ecut=    50.00 Ry     beta= 0.50
     Davidson diagonalization with overlap
     ethr =  1.02E-07,  avg # of iterations =  1.0

     negative rho (up, down):  1.414E-04 1.902E-05
 
     Adding external electric field

     Computed dipole along edir(3) : 
        Dipole               -0.1713 Ry au,         -0.4355 Debye
        Dipole field         -0.0001 Ry au, 
 
        Potential amp.        0.0112 Ry
        Total length         54.7057 bohr
 
 
     Adding external electric field

     Computed dipole along edir(3) : 
        Dipole               -0.1713 Ry au,         -0.4355 Debye
        Dipole field         -0.0001 Ry au, 
 
        Potential amp.        0.0112 Ry
        Total length         54.7057 bohr
 

     total cpu time spent up to now is      981.9 secs

     total energy              =   -8078.56150104 Ry
     estimated scf accuracy    <       0.00125321 Ry

     total magnetization       =    97.19 Bohr mag/cell
     absolute magnetization    =    98.40 Bohr mag/cell

     iteration # 55     ecut=    50.00 Ry     beta= 0.50
     Davidson diagonalization with overlap
     ethr =  1.02E-07,  avg # of iterations =  1.5

     negative rho (up, down):  6.060E-04 2.220E-04
 
     Adding external electric field

     Computed dipole along edir(3) : 
        Dipole               -0.1588 Ry au,         -0.4037 Debye
        Dipole field         -0.0001 Ry au, 
 
        Potential amp.        0.0104 Ry
        Total length         54.7057 bohr
 
 
     Adding external electric field

     Computed dipole along edir(3) : 
        Dipole               -0.1588 Ry au,         -0.4037 Debye
        Dipole field         -0.0001 Ry au, 
 
        Potential amp.        0.0104 Ry
        Total length         54.7057 bohr
 

     total cpu time spent up to now is      996.7 secs

     total energy              =   -8078.56150442 Ry
     estimated scf accuracy    <       0.00054550 Ry

     total magnetization       =    97.16 Bohr mag/cell
     absolute magnetization    =    98.37 Bohr mag/cell

     iteration # 56     ecut=    50.00 Ry     beta= 0.50
     Davidson diagonalization with overlap
     ethr =  4.92E-08,  avg # of iterations =  1.0

     negative rho (up, down):  2.285E-03 1.973E-03
 
     Adding external electric field

     Computed dipole along edir(3) : 
        Dipole               -0.1462 Ry au,         -0.3717 Debye
        Dipole field         -0.0001 Ry au, 
 
        Potential amp.        0.0096 Ry
        Total length         54.7057 bohr
 
 
     Adding external electric field

     Computed dipole along edir(3) : 
        Dipole               -0.1462 Ry au,         -0.3717 Debye
        Dipole field         -0.0001 Ry au, 
 
        Potential amp.        0.0096 Ry
        Total length         54.7057 bohr
 

     total cpu time spent up to now is     1011.2 secs

     total energy              =   -8078.56150832 Ry
     estimated scf accuracy    <       0.00057614 Ry

     total magnetization       =    97.14 Bohr mag/cell
     absolute magnetization    =    98.35 Bohr mag/cell

     iteration # 57     ecut=    50.00 Ry     beta= 0.50
     Davidson diagonalization with overlap
     ethr =  4.92E-08,  avg # of iterations =  1.0

     negative rho (up, down):  1.228E-03 7.299E-04
 
     Adding external electric field

     Computed dipole along edir(3) : 
        Dipole               -0.1556 Ry au,         -0.3956 Debye
        Dipole field         -0.0001 Ry au, 
 
        Potential amp.        0.0102 Ry
        Total length         54.7057 bohr
 
 
     Adding external electric field

     Computed dipole along edir(3) : 
        Dipole               -0.1556 Ry au,         -0.3956 Debye
        Dipole field         -0.0001 Ry au, 
 
        Potential amp.        0.0102 Ry
        Total length         54.7057 bohr
 

     total cpu time spent up to now is     1025.2 secs

     total energy              =   -8078.56151244 Ry
     estimated scf accuracy    <       0.00014729 Ry

     total magnetization       =    97.10 Bohr mag/cell
     absolute magnetization    =    98.31 Bohr mag/cell

     iteration # 58     ecut=    50.00 Ry     beta= 0.50
     Davidson diagonalization with overlap
     ethr =  1.33E-08,  avg # of iterations =  1.5

     negative rho (up, down):  1.680E-03 1.199E-03
 
     Adding external electric field

     Computed dipole along edir(3) : 
        Dipole               -0.1539 Ry au,         -0.3913 Debye
        Dipole field         -0.0001 Ry au, 
 
        Potential amp.        0.0101 Ry
        Total length         54.7057 bohr
 
 
     Adding external electric field

     Computed dipole along edir(3) : 
        Dipole               -0.1539 Ry au,         -0.3913 Debye
        Dipole field         -0.0001 Ry au, 
 
        Potential amp.        0.0101 Ry
        Total length         54.7057 bohr
 

     total cpu time spent up to now is     1040.3 secs

     total energy              =   -8078.56151826 Ry
     estimated scf accuracy    <       0.00034320 Ry

     total magnetization       =    97.13 Bohr mag/cell
     absolute magnetization    =    98.35 Bohr mag/cell

     iteration # 59     ecut=    50.00 Ry     beta= 0.50
     Davidson diagonalization with overlap
     ethr =  1.33E-08,  avg # of iterations =  1.0

     negative rho (up, down):  1.448E-03 9.369E-04
 
     Adding external electric field

     Computed dipole along edir(3) : 
        Dipole               -0.1568 Ry au,         -0.3985 Debye
        Dipole field         -0.0001 Ry au, 
 
        Potential amp.        0.0103 Ry
        Total length         54.7057 bohr
 
 
[...]
    -6.0037  -5.9933  -5.9809  -5.9589  -5.9139  -5.9051  -5.8664  -5.8620
    -5.8565  -5.8355  -5.8155  -5.7819  -5.7694  -5.7608  -5.6989  -5.6842
    -5.6771  -5.6539  -5.6268  -5.6229  -5.5928  -5.5877  -5.5717  -5.5573
    -5.5493  -5.5185  -5.5078  -5.4948  -5.4893  -5.4842  -5.4659  -5.3811
    -5.3517  -5.3173  -5.2808  -5.2597  -5.2546  -5.2495  -5.2352  -5.1744
    -5.1617  -5.1226  -5.0812  -5.0523  -5.0420  -5.0003  -4.9294  -4.9204
    -4.8754  -4.8569  -4.8395  -4.8031  -4.7936  -4.7613  -4.7471  -4.7223
    -4.6657  -4.6409  -4.6099  -4.5823  -4.5517  -4.4735  -4.4531  -4.4107
    -4.3923  -4.3907  -4.3286  -4.2997  -4.2862  -4.2417  -4.2231  -4.1996
    -4.1946  -4.1582  -4.1154  -4.0793  -4.0557  -4.0037  -4.0020  -3.9748
    -3.9008  -3.8609  -3.8533  -3.8357  -3.8214  -3.7757  -3.7552  -3.7407
    -3.7350  -3.7189  -3.6871  -3.6830  -3.6269  -3.6217  -3.6030  -3.6002
    -3.5547  -3.5324  -3.5285  -3.5255  -3.5064  -3.4957  -3.4672  -3.4334
    -3.4240  -3.4167  -3.3950  -3.3823  -3.3749  -3.3484  -3.3344  -3.3216
    -3.2972  -3.2931  -3.2742  -3.2436  -3.2349  -3.2212  -3.1828  -3.1608
    -3.1436  -3.1067  -3.0806  -3.0744  -3.0577  -3.0418  -3.0296  -3.0055
    -2.9874  -2.9550  -2.9421  -2.9158  -2.8988  -2.8675  -2.8603  -2.8321
    -2.8180  -2.7856  -2.7525  -2.7216  -2.7114  -2.7022  -2.6883  -2.6840
    -2.6788  -2.6662  -2.6545  -2.6380  -2.6289  -2.6190  -2.6006  -2.5841
    -2.5644  -2.5467  -2.5335  -2.5254  -2.5132  -2.5019  -2.4836  -2.4613
    -2.4467  -2.4358  -2.4000  -2.3935  -2.3727  -2.3547  -2.3502  -2.3222
    -2.3036  -2.2917  -2.2840  -2.2674  -2.2449  -2.2134  -2.2050  -2.1852
    -2.1659  -2.1548  -2.1416  -2.1034  -2.0918  -2.0653  -2.0489  -2.0286
    -2.0176  -2.0120  -1.9888  -1.9690  -1.9652  -1.9318  -1.9108  -1.8862
    -1.8813  -1.8693  -1.8631  -1.8445  -1.8342  -1.8226  -1.8122  -1.8006
    -1.7324  -1.7182  -1.6866  -1.6678  -1.6391  -1.6337  -1.6280  -1.6108
    -1.6047  -1.5891  -1.5827  -1.5414  -1.5334  -1.5207  -1.4863  -1.4640
    -1.4458  -1.4298  -1.4108  -1.3889  -1.3754  -1.3546  -1.3423  -1.3314
    -1.3133  -1.3089  -1.2697  -1.2239  -1.1805  -1.1665  -1.1531  -1.1172
    -1.0745  -1.0430  -1.0095  -1.0051  -0.9972  -0.8940  -0.8461  -0.8031
    -0.7578  -0.6626  -0.6182  -0.5994  -0.4601  -0.4171  -0.2787  -0.1926
     0.1748   0.1917   0.2305   0.2517   0.2628   0.2809   0.2902   0.3025
     0.3100   0.3211   0.3382   0.3663   0.3784   0.3804   0.3849   0.3973
     0.4021   0.4066   0.4151   0.4301   0.4370   0.4540   0.4613   0.4636
     0.4761   0.4804   0.4866   0.4924   0.4991   0.5042   0.5127   0.5212
     0.5296   0.5346   0.5487   0.5544   0.5600   0.5718   0.5813   0.5948
     0.6009   0.6079   0.6224   0.6297   0.6335   0.6416   0.6559   0.6603
     0.6687   0.6733   0.6805   0.7155   0.7179   0.7274   0.7301   0.7384
     0.7452   0.7609   0.7720   0.7824   0.8047   0.8068   0.8108   0.8192
     0.8323   0.8387   0.8460   0.8675   0.8723   0.8781   0.8816   0.9025
     0.9047   0.9781   0.9884   1.0247   1.0409   1.0691   1.1277   1.1470
     1.6862   1.7586   1.7700   1.7795   1.7941   1.8241   1.8332   1.8745
     1.8855   1.8924   1.9256   1.9647   1.9772   1.9831   1.9973   2.0268
     2.0483   2.0769   2.0879   2.0972   2.1064   2.1103   2.1486   2.1545
     2.1761   2.1971   2.2025   2.2107   2.2210   2.2379   2.2576   2.2754
     2.2861   2.3022   2.3060   2.3380   2.3613   2.3759   2.4114   2.4425
     2.4519   2.4640   2.4796   2.5004   2.5136   2.5181   2.5658   2.6014
     2.6157   2.6572   2.7387   2.8005   2.8373   2.8581   2.8606   3.4160
     3.4834   3.6777   3.6916   3.7037   3.7551   3.7846   3.8478   3.8777
     3.8840   3.9160   3.9404   3.9502   3.9713   4.0028   4.0195   4.0285
     4.0656   4.0809   4.0864   4.0959   4.1065   4.1373   4.1479   4.1624
     4.2034   4.2218   4.2479   4.2659   4.3031   4.5976   4.6084   4.7796
     4.7924   4.8470   4.8836   4.8955   4.9616   4.9809   4.9885   5.0315
     5.0666   5.0889   5.1432   5.1680   5.2093   5.2184   5.3822   6.1743
     6.3549   6.4402   6.5765   6.6889   6.7176   6.7640   6.8054   6.9012
     6.9247   6.9558   7.0153   7.0448   7.2232   7.2840   7.3230   7.3519
     7.3810   7.4236   7.4762   7.5174   7.5438   7.5881   7.7033   7.7202
     7.8220   7.8323   7.9001   7.9249   7.9582   7.9997   8.0129   8.0452
     8.0628   8.0804   8.1173   8.1639   8.1769   8.2083   8.2332   8.3003
     8.3172   8.3383   8.3597   8.3690   8.3951   8.4009   8.4161   8.4269
     8.4609   8.4781   8.5112   8.5344   8.5664   8.5783   8.5995   8.6393
     8.6467

     the Fermi energy is     1.6872 ev

!    total energy              =   -8078.56151623 Ry
     estimated scf accuracy    <       0.00000057 Ry
     smearing contrib. (-TS)   =      -0.02496664 Ry
     internal energy E=F+TS    =   -8078.53654959 Ry

     The total energy is F=E-TS. E is the sum of the following terms:
     one-electron contribution =  -94749.98175253 Ry
     hartree contribution      =   47959.39041154 Ry
     xc contribution           =   -2177.36803964 Ry
     ewald contribution        =   40891.19319877 Ry
     Dispersion Correction     =      -1.77038304 Ry
     electric field correction =       0.00001532 Ry

     total magnetization       =    97.11 Bohr mag/cell
     absolute magnetization    =    98.32 Bohr mag/cell

     convergence has been achieved in  65 iterations

     negative rho (up, down):  1.167E-03 6.275E-04

     Forces acting on atoms (cartesian axes, Ry/au):

     atom    1 type  1   force =     0.02414486   -0.01768096    0.02020005
     atom    2 type  1   force =    -0.00199480    0.00033312   -0.00532521
     atom    3 type  2   force =    -0.03024071   -0.01561210   -0.00838190
     atom    4 type  1   force =     0.00190719   -0.00351350   -0.00432592
     atom    5 type  1   force =    -0.00371131    0.00214131   -0.00158153
     atom    6 type  1   force =     0.00248263    0.00754222   -0.00411660
     atom    7 type  1   force =     0.03194056   -0.01955098    0.01794923
     atom    8 type  2   force =    -0.00183257    0.00035390   -0.00885097
     atom    9 type  2   force =    -0.02887020   -0.01524370   -0.00840759
     atom   10 type  1   force =     0.00191303   -0.00315654   -0.00407937
     atom   11 type  1   force =    -0.00343599    0.00253968   -0.00071634
     atom   12 type  1   force =     0.00365861    0.00689974   -0.00360529
     atom   13 type  3   force =     0.00212285    0.00071425   -0.00759701
     atom   14 type  3   force =    -0.02976996    0.04993253   -0.06594808
     atom   15 type  3   force =     0.03466213    0.03760152   -0.05982054
     atom   16 type  3   force =    -0.00431791    0.00309818   -0.00095534
     atom   17 type  4   force =    -0.00197285    0.00141308    0.00287493
     atom   18 type  4   force =    -0.00158051   -0.00518873    0.02735293
     atom   19 type  4   force =     0.00396178    0.00280442    0.02948963
     atom   20 type  4   force =     0.00004234   -0.00270881   -0.00476459
     atom   21 type  4   force =    -0.00295912   -0.00220319    0.00326514
     atom   22 type  4   force =     0.00473404   -0.00329003    0.03423835
     atom   23 type  4   force =    -0.00597913   -0.00106320    0.03243501
     atom   24 type  4   force =     0.00060492   -0.00092620   -0.00001261
     atom   25 type  4   force =    -0.00137243    0.00071741    0.00220667
     atom   26 type  4   force =    -0.01452993   -0.02269501   -0.00177945
     atom   27 type  4   force =     0.00189927   -0.00070874    0.00121901
     atom   28 type  4   force =    -0.01763656    0.00340648    0.00123074
     atom   29 type  4   force =     0.02064538   -0.00459043    0.00832438
     atom   30 type  4   force =     0.01242912   -0.03409462    0.00116682
     atom   31 type  4   force =     0.00056667    0.00084750    0.00233324
     atom   32 type  4   force =    -0.00223715    0.00006067    0.00268470
     atom   33 type  3   force =    -0.00051865   -0.00170731   -0.00508125
     atom   34 type  3   force =    -0.03022782    0.05984129   -0.08313525
     atom   35 type  3   force =     0.03457876    0.03336128   -0.05931357
     atom   36 type  3   force =    -0.00393079    0.00478094   -0.00069622
     atom   37 type  4   force =    -0.00105185    0.00139933    0.00316012
     atom   38 type  4   force =    -0.00305122   -0.00559717    0.03295416
     atom   39 type  4   force =     0.00440353    0.00394510    0.02930425
     atom   40 type  4   force =     0.00030547   -0.00331348   -0.00480472
     atom   41 type  4   force =     0.00001865    0.00014289    0.00347494
     atom   42 type  4   force =     0.00543434    0.00028303    0.01996280
     atom   43 type  4   force =    -0.00178360    0.00039604    0.03454325
     atom   44 type  4   force =     0.00091491   -0.00083944   -0.00006007
     atom   45 type  4   force =    -0.00023020   -0.00280996    0.00129937
     atom   46 type  4   force =    -0.01511069   -0.02033057   -0.00044041
     atom   47 type  4   force =     0.00190524   -0.00063866    0.00131055
     atom   48 type  4   force =    -0.01798238    0.00404394    0.00167016
     atom   49 type  4   force =     0.01645472   -0.00278003    0.00503880
     atom   50 type  4   force =     0.01179857   -0.03678408    0.00440223
     atom   51 type  4   force =     0.00109578    0.00093511    0.00173594
     atom   52 type  4   force =     0.00086465   -0.00220215    0.00365530
     atom   53 type  1   force =     0.00156441    0.00055258   -0.00092089
     atom   54 type  1   force =     0.00139663    0.00068528   -0.00060081
     atom   55 type  2   force =    -0.00018030   -0.00057445   -0.00037964
     atom   56 type  1   force =    -0.00083462    0.00131542    0.00010494
     atom   57 type  1   force =    -0.00016203    0.00028700    0.00002649
     atom   58 type  1   force =     0.00033568   -0.00027745    0.00011189
     atom   59 type  1   force =     0.00043148    0.00084543   -0.00085868
     atom   60 type  2   force =    -0.00169994   -0.00145261    0.00590433
     atom   61 type  2   force =    -0.00018310   -0.00021287   -0.00007604
     atom   62 type  1   force =     0.00045046   -0.00002339    0.00129650
     atom   63 type  1   force =     0.00001518    0.00039280    0.00023057
     atom   64 type  1   force =     0.00004808   -0.00058948   -0.00010580
     atom   65 type  3   force =     0.00030331    0.00046830    0.00037564
     atom   66 type  3   force =     0.00010089   -0.00030370   -0.00174749
     atom   67 type  3   force =     0.00040935    0.00052832   -0.00133070
     atom   68 type  3   force =    -0.00144298   -0.00157842    0.00325836
     atom   69 type  4   force =    -0.00058110    0.00035338   -0.00013434
     atom   70 type  4   force =    -0.00009114    0.00005884    0.00032756
     atom   71 type  4   force =    -0.00002428   -0.00032241    0.00025120
     atom   72 type  4   force =     0.00050886   -0.00028567   -0.00134149
     atom   73 type  4   force =    -0.00000351    0.00076314   -0.00050289
     atom   74 type  4   force =    -0.00014934   -0.00067867    0.00201052
     atom   75 type  4   force =    -0.00013900   -0.00010827    0.00064884
     atom   76 type  4   force =    -0.00143364   -0.00105657    0.00233188
     atom   77 type  4   force =    -0.00104485    0.00117332    0.00005882
     atom   78 type  4   force =    -0.00049635    0.00020566    0.00039842
     atom   79 type  4   force =     0.00035295    0.00128713   -0.00196397
     atom   80 type  4   force =     0.00026128    0.00056704    0.00033513
     atom   81 type  4   force =    -0.00050096   -0.00024338    0.00044036
     atom   82 type  4   force =     0.00017966    0.00012102    0.00002181
     atom   83 type  4   force =     0.00093305    0.00008993    0.00070275
     atom   84 type  4   force =    -0.00106487    0.00000577   -0.00055126
     atom   85 type  3   force =     0.00040299    0.00220819    0.00146720
     atom   86 type  3   force =     0.00049093   -0.00064341   -0.00054233
     atom   87 type  3   force =    -0.00023007    0.00022061   -0.00041264
     atom   88 type  3   force =    -0.00061112   -0.00219846    0.00027907
     atom   89 type  4   force =    -0.00022127   -0.00033999   -0.00013306
     atom   90 type  4   force =     0.00012322   -0.00051078    0.00150273
     atom   91 type  4   force =     0.00030919   -0.00020125   -0.00019544
     atom   92 type  4   force =    -0.00054298    0.00063985   -0.00150681
     atom   93 type  4   force =     0.00089093   -0.00015656    0.00053580
     atom   94 type  4   force =    -0.00020190   -0.00001159    0.00154676
     atom   95 type  4   force =     0.00018307    0.00016842    0.00035548
     atom   96 type  4   force =    -0.00120845    0.00017626   -0.00027012
     atom   97 type  4   force =     0.00034164    0.00017940   -0.00073328
     atom   98 type  4   force =    -0.00058926   -0.00010541    0.00034823
     atom   99 type  4   force =     0.00104554    0.00166562   -0.00155546
     atom  100 type  4   force =     0.00065419    0.00037175    0.00036640
     atom  101 type  4   force =    -0.00050583   -0.00008000    0.00050820
     atom  102 type  4   force =     0.00096992   -0.00017677    0.00043805
     atom  103 type  4   force =     0.00085529   -0.00137011   -0.00031127
     atom  104 type  4   force =    -0.00047584   -0.00119369    0.00027376
     atom  105 type  1   force =     0.00005616    0.00005920   -0.00011242
     atom  106 type  1   force =    -0.00010559   -0.00061966   -0.00020931
     atom  107 type  2   force =     0.00027399   -0.00001643    0.00036999
     atom  108 type  1   force =    -0.00014427    0.00000082    0.00035742
     atom  109 type  1   force =     0.00057599   -0.00027740   -0.00043135
     atom  110 type  1   force =     0.00052784    0.00002350    0.00057197
     atom  111 type  1   force =    -0.00038367    0.00006086    0.00045600
     atom  112 type  2   force =     0.00000562   -0.00061199    0.00035210
     atom  113 type  2   force =    -0.00010942    0.00026548   -0.00013334
     atom  114 type  1   force =    -0.00035975   -0.00053161    0.00070204
     atom  115 type  1   force =    -0.00047730    0.00055063   -0.00027664
     atom  116 type  1   force =    -0.00052424   -0.00056266    0.00039757
     atom  117 type  3   force =    -0.00011992   -0.00048838    0.00013469
     atom  118 type  3   force =    -0.00051109   -0.00000743    0.00003372
     atom  119 type  3   force =     0.00013386    0.00026021   -0.00005744
     atom  120 type  3   force =     0.00030143    0.00033226   -0.00024806
     atom  121 type  4   force =    -0.00003157   -0.00003298   -0.00018043
     atom  122 type  4   force =    -0.00032158   -0.00017621    0.00013368
     atom  123 type  4   force =     0.00036724   -0.00004765    0.00017366
     atom  124 type  4   force =     0.00017406   -0.00038893   -0.00003745
     atom  125 type  4   force =     0.00054801    0.00004977   -0.00003137
     atom  126 type  4   force =     0.00017117   -0.00022588    0.00042543
     atom  127 type  4   force =     0.00000049   -0.00010819   -0.00013357
     atom  128 type  4   force =    -0.00034394   -0.00005657   -0.00005017
     atom  129 type  4   force =    -0.00004516    0.00038258   -0.00010120
     atom  130 type  4   force =     0.00048901    0.00008797    0.00028973
     atom  131 type  4   force =     0.00019300    0.00021748   -0.00025873
     atom  132 type  4   force =     0.00037592   -0.00026136   -0.00009564
     atom  133 type  4   force =    -0.00018459   -0.00035465    0.00027421
     atom  134 type  4   force =    -0.00001885   -0.00009132    0.00025475
     atom  135 type  4   force =    -0.00029373   -0.00029987   -0.00026124
     atom  136 type  4   force =     0.00051817   -0.00006564    0.00019258
     atom  137 type  3   force =    -0.00006701   -0.00032970   -0.00007693
     atom  138 type  3   force =     0.00011381   -0.00007751    0.00000469
     atom  139 type  3   force =     0.00015088    0.00003438    0.00000520
     atom  140 type  3   force =     0.00012457   -0.00013823    0.00003152
     atom  141 type  4   force =     0.00057445    0.00049022   -0.00066289
     atom  142 type  4   force =     0.00005934    0.00007102   -0.00001439
     atom  143 type  4   force =     0.00029989   -0.00008679    0.00003253
     atom  144 type  4   force =    -0.00020608    0.00068376   -0.00050483
     atom  145 type  4   force =     0.00018463    0.00035618    0.00085775
     atom  146 type  4   force =     0.00005682   -0.00008271    0.00003608
     atom  147 type  4   force =    -0.00039064    0.00020939   -0.00013986
     atom  148 type  4   force =     0.00018413    0.00010956   -0.00007430
     atom  149 type  4   force =    -0.00016014    0.00000076   -0.00019428
     atom  150 type  4   force =    -0.00017385    0.00004895   -0.00011016
     atom  151 type  4   force =     0.00057923   -0.00022326    0.00018699
     atom  152 type  4   force =     0.00009314   -0.00025104    0.00025434
     atom  153 type  4   force =     0.00009379    0.00041115    0.00008000
     atom  154 type  4   force =    -0.00014612   -0.00027792    0.00022104
     atom  155 type  4   force =     0.00009744   -0.00032112    0.00035260
     atom  156 type  4   force =     0.00002241    0.00050991   -0.00005671
     atom  157 type  4   force =    -0.00372011   -0.00184943   -0.00094054
     atom  158 type  5   force =     0.00339102    0.00270607    0.00224485

     Total force =     0.225346     Total SCF correction =     0.002626
 
     init_run     :      8.35s CPU      9.03s WALL (       1 calls)
     electrons    :   1073.19s CPU   1122.59s WALL (       1 calls)
     forces       :      4.12s CPU      4.50s WALL (       1 calls)
     force_london :      0.12s CPU      0.12s WALL (       1 calls)

     Called by init_run:
     wfcinit      :      5.12s CPU      5.31s WALL (       1 calls)
     potinit      :      0.52s CPU      0.73s WALL (       1 calls)
     hinit0       :      1.51s CPU      1.59s WALL (       1 calls)

     Called by electrons:
     c_bands      :    860.01s CPU    886.19s WALL (      65 calls)
     sum_band     :    136.76s CPU    148.98s WALL (      65 calls)
     v_of_rho     :     18.79s CPU     19.86s WALL (      66 calls)
     newd         :     37.95s CPU     47.82s WALL (      66 calls)
     mix_rho      :     18.83s CPU     18.96s WALL (      65 calls)
     energy_londo :      0.11s CPU      0.11s WALL (       1 calls)

     Called by c_bands:
     init_us_2    :      2.50s CPU      2.57s WALL (     264 calls)
     init_us_2:cp :      2.50s CPU      2.57s WALL (     264 calls)
     regterg      :    842.64s CPU    868.19s WALL (     134 calls)

     Called by *egterg:
     rdiaghg      :    268.23s CPU    280.73s WALL (     554 calls)
     h_psi        :    332.40s CPU    338.24s WALL (     556 calls)
     s_psi        :     59.31s CPU     59.35s WALL (     556 calls)
     g_psi        :      0.44s CPU      0.45s WALL (     420 calls)

     Called by h_psi:
     h_psi:calbec :     76.63s CPU     81.07s WALL (     556 calls)
     vloc_psi     :    195.64s CPU    196.45s WALL (     556 calls)
     add_vuspsi   :     59.28s CPU     59.87s WALL (     556 calls)

     General routines
     calbec       :    112.44s CPU    119.23s WALL (     694 calls)
     fft          :     15.18s CPU     16.92s WALL (    1201 calls)
     ffts         :     10.97s CPU     11.01s WALL (    6949 calls)
     fftw         :    215.64s CPU    216.47s WALL (  230548 calls)
     interpolate  :      1.37s CPU      1.61s WALL (     132 calls)
 
     Parallel routines
 
     PWSCF        :  18m 7.88s CPU  18m59.96s WALL

 
   This run was terminated on:  23:42:48  19Nov2025            

=------------------------------------------------------------------------------=
   JOB DONE.
=------------------------------------------------------------------------------=
