
     Program PWSCF v.7.2 starts on 17Nov2025 at 22:47: 8 

     This program is part of the open-source Quantum ESPRESSO suite
     for quantum simulation of materials; please cite
         "P. Giannozzi et al., J. Phys.:Condens. Matter 21 395502 (2009);
         "P. Giannozzi et al., J. Phys.:Condens. Matter 29 465901 (2017);
         "P. Giannozzi et al., J. Chem. Phys. 152 154105 (2020);
          URL http://www.quantum-espresso.org", 
     in publications or presentations arising from this work. More details at
     http://www.quantum-espresso.org/quote

     Parallel version (MPI), running on    64 processors

     MPI processes distributed on     4 nodes
     379828 MiB available memory on the printing compute node when the environment starts
 
     Reading input from PWINPUT_atm158_xp

     Current dimensions of program PWSCF are:
     Max number of different atomic species (ntypx) = 10
     Max number of k-points (npk) =  40000
     Max angular momentum in pseudopotentials (lmaxx) =  4
     Presently no symmetry can be used with electric field

     file Ni.pbe-n-rrkjus_psl.1.0.0.UPF: wavefunction(s)  3D renormalized
     file Mn.pbe-spn-rrkjus_psl.0.3.1.UPF: wavefunction(s)  3D renormalized
     file O.pbe-rrkjus.UPF: wavefunction(s)  2S renormalized
     file H.pbe-rrkjus.UPF: wavefunction(s)  1S renormalized

     gamma-point specific algorithms are used
 
     R & G space division:  proc/nbgrp/npool/nimage =      64
     Subspace diagonalization in iterative solution of the eigenvalue problem:
     one sub-group per band group will be used
     custom distributed-memory algorithm (size of sub-group:  7*  7 procs)

 
     Parallelization info
     --------------------
     sticks:   dense  smooth     PW     G-vecs:    dense   smooth      PW
     Min         214      85     20                61830    15614    1928
     Max         216      86     22                61864    15658    1982
     Sum       13727    5503   1375              3958051  1001255  125211
 
     Using Slab Decomposition
 


     bravais-lattice index     =            0
     lattice parameter (alat)  =      17.8532  a.u.
     unit-cell volume          =   20962.6682 (a.u.)^3
     number of atoms/cell      =          158
     number of atomic types    =            5
     number of electrons       =      1108.00
     number of Kohn-Sham states=          665
     kinetic-energy cutoff     =      50.0000  Ry
     charge density cutoff     =     500.0000  Ry
     scf convergence threshold =      1.0E-06
     mixing beta               =       0.1000
     number of iterations used =            8  local-TF  mixing
     Exchange-correlation=  SLA  PW   PBE  PBE
                           (   1   4   3   4   0   0   0)

     celldm(1)=  17.853155  celldm(2)=   0.000000  celldm(3)=   0.000000
     celldm(4)=   0.000000  celldm(5)=   0.000000  celldm(6)=   0.000000

     crystal axes: (cart. coord. in units of alat)
               a(1) = (   1.000000   0.000000   0.000000 )  
               a(2) = (   0.003237   1.081997   0.000000 )  
               a(3) = (   0.000000   0.000000   3.404673 )  

     reciprocal axes: (cart. coord. in units 2 pi/alat)
               b(1) = (  1.000000 -0.002992  0.000000 )  
               b(2) = (  0.000000  0.924217  0.000000 )  
               b(3) = (  0.000000  0.000000  0.293714 )  


     PseudoPot. # 1 for Ni read from file:
     ~/PSEUDO/Ni.pbe-n-rrkjus_psl.1.0.0.UPF
     MD5 check sum: Not computed, couldn't open file
     Pseudo is Ultrasoft + core correction, Zval = 10.0
     Generated using "atomic" code by A. Dal Corso  v.5.1.2
     Using radial grid of 1195 points,  6 beta functions with: 
                l(1) =   0
                l(2) =   0
                l(3) =   1
                l(4) =   1
                l(5) =   2
                l(6) =   2
     Q(r) pseudized with 0 coefficients 


     PseudoPot. # 2 for Mn read from file:
     ~/PSEUDO/Mn.pbe-spn-rrkjus_psl.0.3.1.UPF
     MD5 check sum: Not computed, couldn't open file
     Pseudo is Ultrasoft + core correction, Zval = 15.0
     Generated using &quot;atomic&quot; code by A. Dal Corso  v.6.2.2
     Using radial grid of 1187 points,  6 beta functions with: 
                l(1) =   0
                l(2) =   0
                l(3) =   1
                l(4) =   1
                l(5) =   2
                l(6) =   2
     Q(r) pseudized with 0 coefficients 


     PseudoPot. # 3 for P  read from file:
     ~/PSEUDO/P.pbe-n-rrkjus_psl.1.0.0.UPF
     MD5 check sum: Not computed, couldn't open file
     Pseudo is Ultrasoft + core correction, Zval =  5.0
     Generated using "atomic" code by A. Dal Corso  v.5.1
     Using radial grid of 1147 points,  6 beta functions with: 
                l(1) =   0
                l(2) =   0
                l(3) =   1
                l(4) =   1
                l(5) =   2
                l(6) =   2
     Q(r) pseudized with 0 coefficients 


     PseudoPot. # 4 for O  read from file:
     ~/PSEUDO/O.pbe-rrkjus.UPF
     MD5 check sum: Not computed, couldn't open file
     Pseudo is Ultrasoft, Zval =  6.0
     Generated by new atomic code, or converted to UPF format
     Using radial grid of 1269 points,  4 beta functions with: 
                l(1) =   0
                l(2) =   0
                l(3) =   1
                l(4) =   1
     Q(r) pseudized with 0 coefficients 


     PseudoPot. # 5 for H  read from file:
     ~/PSEUDO/H.pbe-rrkjus.UPF
     MD5 check sum: Not computed, couldn't open file
     Pseudo is Ultrasoft, Zval =  1.0
     Generated by new atomic code, or converted to UPF format
     Using radial grid of 1061 points,  2 beta functions with: 
                l(1) =   0
                l(2) =   0
     Q(r) pseudized with 0 coefficients 


     atomic species   valence    mass     pseudopotential
     Ni               10.00    58.69300     Ni( 1.00)
     Mn               15.00    54.93800     Mn( 1.00)
     P                 5.00    30.97300     P ( 1.00)
     O                 6.00    15.99900     O ( 1.00)
     H                 1.00     1.00790     H ( 1.00)

     Starting magnetic structure 
     atomic species   magnetization
     Ni              1.000
     Mn              1.000
     P               1.000
     O               1.000
     H               0.000

     No symmetry found



   Cartesian axes

     site n.     atom                  positions (alat units)
         1        Ni     tau(   1) = (   0.2448189   0.8359134   0.1216996  )
         2        Ni     tau(   2) = (   0.4920952   0.7731948   0.4438949  )
         3        Mn     tau(   3) = (   0.0113021   0.2918949   0.1160512  )
         4        Ni     tau(   4) = (   0.2586115   0.2268566   0.4417628  )
         5        Ni     tau(   5) = (   1.0019827   1.0705803   0.2835623  )
         6        Ni     tau(   6) = (   0.2518099   0.5339061   0.2823483  )
         7        Ni     tau(   7) = (   0.7400999   0.8349186   0.1225624  )
         8        Mn     tau(   8) = (   0.9886961   0.7700845   0.4492175  )
         9        Mn     tau(   9) = (   0.5113421   0.2944667   0.1158892  )
        10        Ni     tau(  10) = (   0.7560857   0.2263843   0.4422798  )
        11        Ni     tau(  11) = (   0.5009386   1.0712238   0.2822610  )
        12        Ni     tau(  12) = (   0.7496978   0.5336600   0.2834396  )
        13        P      tau(  13) = (   0.2147792   0.9686896   0.4382665  )
        14        P      tau(  14) = (   0.4607377   0.6441916   0.1265334  )
        15        P      tau(  15) = (   0.2883218   0.0913464   0.1265752  )
        16        P      tau(  16) = (   0.0408981   0.4221836   0.4354960  )
        17        O      tau(  17) = (   0.1380864   0.9007819   0.3023220  )
        18        O      tau(  18) = (   0.3817439   0.7113683   0.2624610  )
        19        O      tau(  19) = (   0.3638364   0.1608547   0.2624417  )
        20        O      tau(  20) = (   0.1207568   0.3545755   0.3021219  )
        21        O      tau(  21) = (   0.1552194   0.8797563   0.5625160  )
        22        O      tau(  22) = (   0.4022820   0.7317969   0.0010585  )
        23        O      tau(  23) = (   0.3454844   0.1823965   0.0026336  )
        24        O      tau(  24) = (   0.1017019   0.3344979   0.5594858  )
        25        O      tau(  25) = (   0.0970074   0.5770714   0.4346455  )
        26        O      tau(  26) = (   0.3534166   1.0203677   0.1270707  )
        27        O      tau(  27) = (   0.3778024   0.4172402   0.4261028  )
        28        O      tau(  28) = (   0.1256171   0.0954063   0.1372153  )
        29        O      tau(  29) = (   0.1232168   0.6482422   0.1385172  )
        30        O      tau(  30) = (   0.4028533   0.4897833   0.1289718  )
        31        O      tau(  31) = (   0.1511050   0.0405554   0.4369979  )
        32        O      tau(  32) = (   0.3776556   0.9624293   0.4288159  )
        33        P      tau(  33) = (   0.7084770   0.9682119   0.4394551  )
        34        P      tau(  34) = (   0.9603154   0.6409658   0.1292469  )
        35        P      tau(  35) = (   0.7875734   0.0899770   0.1274098  )
        36        P      tau(  36) = (   0.5405152   0.4272620   0.4364455  )
        37        O      tau(  37) = (   0.6323583   0.8977630   0.3036670  )
        38        O      tau(  38) = (   0.8809646   0.7091921   0.2627111  )
        39        O      tau(  39) = (   0.8631054   0.1587239   0.2636487  )
        40        O      tau(  40) = (   0.6202581   0.3578380   0.3034239  )
        41        O      tau(  41) = (   0.6499160   0.8772596   0.5630912  )
        42        O      tau(  42) = (   0.8990171   0.7283464   0.0054426  )
        43        O      tau(  43) = (   0.8448361   0.1806154   0.0030658  )
        44        O      tau(  44) = (   0.6023096   0.3392612   0.5600469  )
        45        O      tau(  45) = (   0.5960222   0.5826131   0.4346340  )
        46        O      tau(  46) = (   0.8515023   1.0184215   0.1281632  )
        47        O      tau(  47) = (   0.8779640   0.4148900   0.4260983  )
        48        O      tau(  48) = (   0.6251159   0.0957170   0.1376895  )
        49        O      tau(  49) = (   0.6237654   0.6481585   0.1378370  )
        50        O      tau(  50) = (   0.9038046   0.4863338   0.1307354  )
        51        O      tau(  51) = (   0.6458737   0.0402574   0.4377979  )
        52        O      tau(  52) = (   0.8712434   0.9635255   0.4285638  )
        53        Ni     tau(  53) = (   0.2420320   0.8169913   0.7491577  )
        54        Ni     tau(  54) = (   0.4893084   0.7542727   1.0713530  )
        55        Mn     tau(  55) = (   0.0085152   0.2729728   0.7435093  )
        56        Ni     tau(  56) = (   0.2558246   0.2079345   1.0692209  )
        57        Ni     tau(  57) = (   0.9991959   1.0516583   0.9110204  )
        58        Ni     tau(  58) = (   0.2490231   0.5149840   0.9098064  )
        59        Ni     tau(  59) = (   0.7373131   0.8159965   0.7500205  )
        60        Mn     tau(  60) = (   0.9859093   0.7511625   1.0766756  )
        61        Mn     tau(  61) = (   0.5085552   0.2755447   0.7433473  )
        62        Ni     tau(  62) = (   0.7532989   0.2074622   1.0697379  )
        63        Ni     tau(  63) = (   0.4981517   1.0523018   0.9097191  )
        64        Ni     tau(  64) = (   0.7469109   0.5147379   0.9108977  )
        65        P      tau(  65) = (   0.2119924   0.9497675   1.0657246  )
        66        P      tau(  66) = (   0.4579509   0.6252695   0.7539915  )
        67        P      tau(  67) = (   0.2855349   0.0724244   0.7540333  )
        68        P      tau(  68) = (   0.0381112   0.4032615   1.0629541  )
        69        O      tau(  69) = (   0.1352995   0.8818598   0.9297801  )
        70        O      tau(  70) = (   0.3789570   0.6924463   0.8899191  )
        71        O      tau(  71) = (   0.3610496   0.1419327   0.8898998  )
        72        O      tau(  72) = (   0.1179700   0.3356534   0.9295800  )
        73        O      tau(  73) = (   0.1524325   0.8608343   1.1899741  )
        74        O      tau(  74) = (   0.3994952   0.7128748   0.6285166  )
        75        O      tau(  75) = (   0.3426976   0.1634744   0.6300917  )
        76        O      tau(  76) = (   0.0989151   0.3155758   1.1869439  )
        77        O      tau(  77) = (   0.0942206   0.5581494   1.0621036  )
        78        O      tau(  78) = (   0.3506297   1.0014456   0.7545288  )
        79        O      tau(  79) = (   0.3750155   0.3983181   1.0535609  )
        80        O      tau(  80) = (   0.1228303   0.0764842   0.7646734  )
        81        O      tau(  81) = (   0.1204299   0.6293201   0.7659753  )
        82        O      tau(  82) = (   0.4000664   0.4708612   0.7564299  )
        83        O      tau(  83) = (   0.1483182   0.0216333   1.0644560  )
        84        O      tau(  84) = (   0.3748687   0.9435072   1.0562740  )
        85        P      tau(  85) = (   0.7056901   0.9492898   1.0669132  )
        86        P      tau(  86) = (   0.9575286   0.6220438   0.7567050  )
        87        P      tau(  87) = (   0.7847866   0.0710549   0.7548679  )
        88        P      tau(  88) = (   0.5377283   0.4083400   1.0639036  )
        89        O      tau(  89) = (   0.6295714   0.8788409   0.9311251  )
        90        O      tau(  90) = (   0.8781778   0.6902700   0.8901692  )
        91        O      tau(  91) = (   0.8603186   0.1398018   0.8911068  )
        92        O      tau(  92) = (   0.6174712   0.3389159   0.9308820  )
        93        O      tau(  93) = (   0.6471291   0.8583376   1.1905493  )
        94        O      tau(  94) = (   0.8962302   0.7094244   0.6329007  )
        95        O      tau(  95) = (   0.8420493   0.1616933   0.6305239  )
        96        O      tau(  96) = (   0.5995227   0.3203391   1.1875050  )
        97        O      tau(  97) = (   0.5932354   0.5636910   1.0620921  )
        98        O      tau(  98) = (   0.8487155   0.9994995   0.7556213  )
        99        O      tau(  99) = (   0.8751772   0.3959680   1.0535564  )
       100        O      tau( 100) = (   0.6223291   0.0767949   0.7651476  )
       101        O      tau( 101) = (   0.6209785   0.6292365   0.7652951  )
       102        O      tau( 102) = (   0.9010178   0.4674118   0.7581935  )
       103        O      tau( 103) = (   0.6430869   0.0213354   1.0652560  )
       104        O      tau( 104) = (   0.8684566   0.9446034   1.0560219  )
       105        Ni     tau( 105) = (   0.2412023   0.8004481   1.3761697  )
       106        Ni     tau( 106) = (   0.4986735   0.7355768   1.6794178  )
       107        Mn     tau( 107) = (   0.0058178   0.2579714   1.3748439  )
       108        Ni     tau( 108) = (   0.2445030   0.1966672   1.6827613  )
       109        Ni     tau( 109) = (   0.9973019   1.0372672   1.5419400  )
       110        Ni     tau( 110) = (   0.2442193   0.4988167   1.5412053  )
       111        Ni     tau( 111) = (   0.7355958   0.7989306   1.3771896  )
       112        Mn     tau( 112) = (   0.9955940   0.7374460   1.6981170  )
       113        Mn     tau( 113) = (   0.5084073   0.2597986   1.3740649  )
       114        Ni     tau( 114) = (   0.7506413   0.1876866   1.7157338  )
       115        Ni     tau( 115) = (   0.4999815   1.0354405   1.5368422  )
       116        Ni     tau( 116) = (   0.7421734   0.4941468   1.5447217  )
       117        P      tau( 117) = (   0.2134520   0.9305608   1.6928748  )
       118        P      tau( 118) = (   0.4552265   0.6038409   1.3792233  )
       119        P      tau( 119) = (   0.2846976   0.0570133   1.3802773  )
       120        P      tau( 120) = (   0.0325224   0.3864354   1.7029347  )
       121        O      tau( 121) = (   0.1349751   0.8706564   1.5506288  )
       122        O      tau( 122) = (   0.3764107   0.6721600   1.5149202  )
       123        O      tau( 123) = (   0.3606206   0.1260236   1.5156957  )
       124        O      tau( 124) = (   0.1092748   0.3280951   1.5591652  )
       125        O      tau( 125) = (   0.1511793   0.8339695   1.8079082  )
       126        O      tau( 126) = (   0.3964659   0.6926639   1.2544695  )
       127        O      tau( 127) = (   0.3425042   0.1476694   1.2561401  )
       128        O      tau( 128) = (   0.0960478   0.2915149   1.8172940  )
       129        O      tau( 129) = (   0.0879065   0.5436709   1.7030381  )
       130        O      tau( 130) = (   0.3488342   0.9858816   1.3801817  )
       131        O      tau( 131) = (   0.3671736   0.3798408   1.6812659  )
       132        O      tau( 132) = (   0.1219276   0.0647475   1.3934455  )
       133        O      tau( 133) = (   0.1179523   0.6112524   1.3972003  )
       134        O      tau( 134) = (   0.3951101   0.4502108   1.3814183  )
       135        O      tau( 135) = (   0.1554058   0.0046046   1.6969583  )
       136        O      tau( 136) = (   0.3765182   0.9212570   1.6810882  )
       137        P      tau( 137) = (   0.7067285   0.9241104   1.6956373  )
       138        P      tau( 138) = (   0.9550835   0.6030567   1.3877912  )
       139        P      tau( 139) = (   0.7840039   0.0566892   1.3823828  )
       140        P      tau( 140) = (   0.5313930   0.3840217   1.6968505  )
       141        O      tau( 141) = (   0.6301565   0.8631087   1.5500589  )
       142        O      tau( 142) = (   0.8781540   0.6680547   1.5246654  )
       143        O      tau( 143) = (   0.8584090   0.1266911   1.5169273  )
       144        O      tau( 144) = (   0.6101434   0.3244037   1.5563583  )
       145        O      tau( 145) = (   0.6497044   0.8229155   1.8076390  )
       146        O      tau( 146) = (   0.8952346   0.6931503   1.2649845  )
       147        O      tau( 147) = (   0.8417833   0.1457064   1.2563858  )
       148        O      tau( 148) = (   0.5882982   0.2884097   1.8138105  )
       149        O      tau( 149) = (   0.5857986   0.5416269   1.6967524  )
       150        O      tau( 150) = (   0.8463249   0.9844929   1.3834097  )
       151        O      tau( 151) = (   0.8691606   0.3830520   1.6896730  )
       152        O      tau( 152) = (   0.6208256   0.0636157   1.3908489  )
       153        O      tau( 153) = (   0.6179180   0.6081228   1.3928659  )
       154        O      tau( 154) = (   0.8974059   0.4489532   1.3860662  )
       155        O      tau( 155) = (   0.6446735  -0.0036875   1.6925588  )
       156        O      tau( 156) = (   0.8709253   0.9175257   1.6809245  )
       157        O      tau( 157) = (   0.8700644   0.1000713   1.8382274  )
       158        H      tau( 158) = (   0.9542006   0.1587224   1.8633884  )

     -------------------------------------------------
     Parameters for Dispersion (Grimme-D2) Correction:
     -------------------------------------------------
       atom      VdW radius       C_6     

        Ni         2.952        374.666
        Mn         2.952        374.666
        P          3.222        271.980
        O          2.536         24.284
        H          1.892          4.857

     number of k points=     1  Gaussian smearing, width (Ry)=  0.0100
                       cart. coord. in units 2pi/alat
        k(    1) = (   0.0000000   0.0000000   0.0000000), wk =   1.0000000

     Dense  grid:  1979026 G-vectors     FFT dimensions: ( 128, 144, 450)

     Smooth grid:   500628 G-vectors     FFT dimensions: (  81,  90, 288)

     Estimated max dynamical RAM per process >     333.40 MB

     Estimated total dynamical RAM >      20.84 GB

     Check: negative core charge=   -0.000002
     Generating pointlists ...
     new r_m :   0.0793 (alat units)  1.4155 (a.u.) for type    1
     new r_m :   0.0881 (alat units)  1.5722 (a.u.) for type    2
     new r_m :   0.0666 (alat units)  1.1883 (a.u.) for type    3
     new r_m :   0.0436 (alat units)  0.7777 (a.u.) for type    4
     new r_m :   0.0436 (alat units)  0.7777 (a.u.) for type    5

     Initial potential from superposition of free atoms

     starting charge    1107.8886, renormalised to    1108.0000

     negative rho (up, down):  1.535E-03 4.696E-04
 
     Adding external electric field

     Computed dipole along edir(3) : 
        Dipole                1.6284 Ry au,          4.1391 Debye
        Dipole field          0.0010 Ry au, 
 
        Potential amp.       -0.1068 Ry
        Total length         54.7057 bohr
 
 
     Adding external electric field

     Computed dipole along edir(3) : 
        Dipole                1.6284 Ry au,          4.1391 Debye
        Dipole field          0.0010 Ry au, 
 
        Potential amp.       -0.1068 Ry
        Total length         54.7057 bohr
 
     Starting wfcs are  818 randomized atomic wfcs

     total cpu time spent up to now is       12.5 secs

     Self-consistent Calculation

     iteration #  1     ecut=    50.00 Ry     beta= 0.10
     Davidson diagonalization with overlap
     ethr =  1.00E-02,  avg # of iterations =  5.5

     negative rho (up, down):  4.301E-01 3.031E-07
 
     Adding external electric field

     Computed dipole along edir(3) : 
        Dipole               -3.7435 Ry au,         -9.5151 Debye
        Dipole field         -0.0022 Ry au, 
 
        Potential amp.        0.2455 Ry
        Total length         54.7057 bohr
 
 
     Adding external electric field

     Computed dipole along edir(3) : 
        Dipole               -3.7435 Ry au,         -9.5151 Debye
        Dipole field         -0.0022 Ry au, 
 
        Potential amp.        0.2455 Ry
        Total length         54.7057 bohr
 

     total cpu time spent up to now is       48.1 secs

     total energy              =   -7857.15460451 Ry
     estimated scf accuracy    <     733.12932925 Ry

     total magnetization       =   222.00 Bohr mag/cell
     absolute magnetization    =   319.83 Bohr mag/cell

     iteration #  2     ecut=    50.00 Ry     beta= 0.10
     Davidson diagonalization with overlap
     ethr =  1.00E-02,  avg # of iterations =  2.0

     negative rho (up, down):  4.053E-01 8.551E-08
 
     Adding external electric field

     Computed dipole along edir(3) : 
        Dipole               -2.5400 Ry au,         -6.4560 Debye
        Dipole field         -0.0015 Ry au, 
 
        Potential amp.        0.1666 Ry
        Total length         54.7057 bohr
 
 
     Adding external electric field

     Computed dipole along edir(3) : 
        Dipole               -2.5400 Ry au,         -6.4560 Debye
        Dipole field         -0.0015 Ry au, 
 
        Potential amp.        0.1666 Ry
        Total length         54.7057 bohr
 

     total cpu time spent up to now is       69.8 secs

     total energy              =   -7939.42049240 Ry
     estimated scf accuracy    <     205.26463833 Ry

     total magnetization       =   167.03 Bohr mag/cell
     absolute magnetization    =   213.77 Bohr mag/cell

     iteration #  3     ecut=    50.00 Ry     beta= 0.10
     Davidson diagonalization with overlap
     ethr =  1.00E-02,  avg # of iterations =  1.5

     negative rho (up, down):  3.620E-01 6.227E-08
 
     Adding external electric field

     Computed dipole along edir(3) : 
        Dipole               -2.2160 Ry au,         -5.6324 Debye
        Dipole field         -0.0013 Ry au, 
 
        Potential amp.        0.1453 Ry
        Total length         54.7057 bohr
 
 
     Adding external electric field

     Computed dipole along edir(3) : 
        Dipole               -2.2160 Ry au,         -5.6324 Debye
        Dipole field         -0.0013 Ry au, 
 
        Potential amp.        0.1453 Ry
        Total length         54.7057 bohr
 

     total cpu time spent up to now is       87.2 secs

     total energy              =   -7968.64884841 Ry
     estimated scf accuracy    <     104.27063441 Ry

     total magnetization       =   143.41 Bohr mag/cell
     absolute magnetization    =   192.58 Bohr mag/cell

     iteration #  4     ecut=    50.00 Ry     beta= 0.10
     Davidson diagonalization with overlap
     ethr =  9.41E-03,  avg # of iterations =  1.0

     negative rho (up, down):  2.861E-01 1.550E-09
 
     Adding external electric field

     Computed dipole along edir(3) : 
        Dipole               -2.0076 Ry au,         -5.1028 Debye
        Dipole field         -0.0012 Ry au, 
 
        Potential amp.        0.1317 Ry
        Total length         54.7057 bohr
 
 
     Adding external electric field

     Computed dipole along edir(3) : 
        Dipole               -2.0076 Ry au,         -5.1028 Debye
        Dipole field         -0.0012 Ry au, 
 
        Potential amp.        0.1317 Ry
        Total length         54.7057 bohr
 

     total cpu time spent up to now is      103.8 secs

     total energy              =   -8001.62437180 Ry
     estimated scf accuracy    <      85.12661544 Ry

     total magnetization       =   128.07 Bohr mag/cell
     absolute magnetization    =   178.72 Bohr mag/cell

     iteration #  5     ecut=    50.00 Ry     beta= 0.10
     Davidson diagonalization with overlap
     ethr =  7.68E-03,  avg # of iterations =  1.0

     negative rho (up, down):  5.181E-02 1.086E-08
 
     Adding external electric field

     Computed dipole along edir(3) : 
        Dipole               -1.5739 Ry au,         -4.0005 Debye
        Dipole field         -0.0009 Ry au, 
 
        Potential amp.        0.1032 Ry
        Total length         54.7057 bohr
 
 
     Adding external electric field

     Computed dipole along edir(3) : 
        Dipole               -1.5739 Ry au,         -4.0005 Debye
        Dipole field         -0.0009 Ry au, 
 
        Potential amp.        0.1032 Ry
        Total length         54.7057 bohr
 

     total cpu time spent up to now is      119.9 secs

     total energy              =   -8060.89207287 Ry
     estimated scf accuracy    <      68.26046039 Ry

     total magnetization       =   106.27 Bohr mag/cell
     absolute magnetization    =   160.02 Bohr mag/cell

     iteration #  6     ecut=    50.00 Ry     beta= 0.10
     Davidson diagonalization with overlap
     ethr =  6.16E-03,  avg # of iterations =  1.0

     negative rho (up, down):  8.603E-04 1.600E-03
 
     Adding external electric field

     Computed dipole along edir(3) : 
        Dipole               -1.1852 Ry au,         -3.0124 Debye
        Dipole field         -0.0007 Ry au, 
 
        Potential amp.        0.0777 Ry
        Total length         54.7057 bohr
 
 
     Adding external electric field

     Computed dipole along edir(3) : 
        Dipole               -1.1852 Ry au,         -3.0124 Debye
        Dipole field         -0.0007 Ry au, 
 
        Potential amp.        0.0777 Ry
        Total length         54.7057 bohr
 

     total cpu time spent up to now is      135.8 secs

     total energy              =   -8076.10417620 Ry
     estimated scf accuracy    <      16.91932611 Ry

     total magnetization       =   100.00 Bohr mag/cell
     absolute magnetization    =   133.87 Bohr mag/cell

     iteration #  7     ecut=    50.00 Ry     beta= 0.10
     Davidson diagonalization with overlap
     ethr =  1.53E-03,  avg # of iterations =  6.0

     negative rho (up, down):  8.631E-04 1.602E-03
 
     Adding external electric field

     Computed dipole along edir(3) : 
        Dipole               -1.1737 Ry au,         -2.9833 Debye
        Dipole field         -0.0007 Ry au, 
 
        Potential amp.        0.0770 Ry
        Total length         54.7057 bohr
 
 
     Adding external electric field

     Computed dipole along edir(3) : 
        Dipole               -1.1737 Ry au,         -2.9833 Debye
        Dipole field         -0.0007 Ry au, 
 
        Potential amp.        0.0770 Ry
        Total length         54.7057 bohr
 

     total cpu time spent up to now is      161.8 secs

     total energy              =   -8078.86937577 Ry
     estimated scf accuracy    <      28.94112408 Ry

     total magnetization       =    69.64 Bohr mag/cell
     absolute magnetization    =    87.29 Bohr mag/cell

     iteration #  8     ecut=    50.00 Ry     beta= 0.10
     Davidson diagonalization with overlap
     ethr =  1.53E-03,  avg # of iterations =  1.0

     negative rho (up, down):  7.984E-04 1.654E-03
 
     Adding external electric field

     Computed dipole along edir(3) : 
        Dipole               -1.2391 Ry au,         -3.1494 Debye
        Dipole field         -0.0007 Ry au, 
 
        Potential amp.        0.0813 Ry
        Total length         54.7057 bohr
 
 
     Adding external electric field

     Computed dipole along edir(3) : 
        Dipole               -1.2391 Ry au,         -3.1494 Debye
        Dipole field         -0.0007 Ry au, 
 
        Potential amp.        0.0813 Ry
        Total length         54.7057 bohr
 

     total cpu time spent up to now is      177.0 secs

     total energy              =   -8079.07478432 Ry
     estimated scf accuracy    <      28.90747123 Ry

     total magnetization       =    69.70 Bohr mag/cell
     absolute magnetization    =    86.92 Bohr mag/cell

     iteration #  9     ecut=    50.00 Ry     beta= 0.10
     Davidson diagonalization with overlap
     ethr =  1.53E-03,  avg # of iterations =  1.0

     negative rho (up, down):  7.972E-04 1.656E-03
 
     Adding external electric field

     Computed dipole along edir(3) : 
        Dipole               -1.1976 Ry au,         -3.0440 Debye
        Dipole field         -0.0007 Ry au, 
 
        Potential amp.        0.0785 Ry
        Total length         54.7057 bohr
 
 
     Adding external electric field

     Computed dipole along edir(3) : 
        Dipole               -1.1976 Ry au,         -3.0440 Debye
        Dipole field         -0.0007 Ry au, 
 
        Potential amp.        0.0785 Ry
        Total length         54.7057 bohr
 

     total cpu time spent up to now is      192.8 secs

     total energy              =   -8079.05008340 Ry
     estimated scf accuracy    <      32.13972109 Ry

     total magnetization       =    68.15 Bohr mag/cell
     absolute magnetization    =    85.18 Bohr mag/cell

     iteration # 10     ecut=    50.00 Ry     beta= 0.10
     Davidson diagonalization with overlap
     ethr =  1.53E-03,  avg # of iterations =  1.0

     negative rho (up, down):  1.053E-03 2.382E-03
 
     Adding external electric field

     Computed dipole along edir(3) : 
        Dipole               -0.9985 Ry au,         -2.5378 Debye
        Dipole field         -0.0006 Ry au, 
 
        Potential amp.        0.0655 Ry
        Total length         54.7057 bohr
 
 
     Adding external electric field

     Computed dipole along edir(3) : 
        Dipole               -0.9985 Ry au,         -2.5378 Debye
        Dipole field         -0.0006 Ry au, 
 
        Potential amp.        0.0655 Ry
        Total length         54.7057 bohr
 

     total cpu time spent up to now is      207.6 secs

     total energy              =   -8078.81696082 Ry
     estimated scf accuracy    <      30.50003695 Ry

     total magnetization       =    68.84 Bohr mag/cell
     absolute magnetization    =    85.48 Bohr mag/cell

     iteration # 11     ecut=    50.00 Ry     beta= 0.10
     Davidson diagonalization with overlap
     ethr =  1.53E-03,  avg # of iterations =  1.0

     negative rho (up, down):  9.110E-03 1.274E-02
 
     Adding external electric field

     Computed dipole along edir(3) : 
        Dipole               -0.6792 Ry au,         -1.7263 Debye
        Dipole field         -0.0004 Ry au, 
 
        Potential amp.        0.0445 Ry
        Total length         54.7057 bohr
 
 
     Adding external electric field

     Computed dipole along edir(3) : 
        Dipole               -0.6792 Ry au,         -1.7263 Debye
        Dipole field         -0.0004 Ry au, 
 
        Potential amp.        0.0445 Ry
        Total length         54.7057 bohr
 

     total cpu time spent up to now is      223.3 secs

     total energy              =   -8078.37310428 Ry
     estimated scf accuracy    <      25.00348630 Ry

     total magnetization       =    70.31 Bohr mag/cell
     absolute magnetization    =    85.58 Bohr mag/cell

     iteration # 12     ecut=    50.00 Ry     beta= 0.10
     Davidson diagonalization with overlap
     ethr =  1.53E-03,  avg # of iterations =  1.0

     negative rho (up, down):  4.595E-03 8.139E-03
 
     Adding external electric field

     Computed dipole along edir(3) : 
        Dipole               -0.7552 Ry au,         -1.9196 Debye
        Dipole field         -0.0005 Ry au, 
 
        Potential amp.        0.0495 Ry
        Total length         54.7057 bohr
 
 
     Adding external electric field

     Computed dipole along edir(3) : 
        Dipole               -0.7552 Ry au,         -1.9196 Debye
        Dipole field         -0.0005 Ry au, 
 
        Potential amp.        0.0495 Ry
        Total length         54.7057 bohr
 

     total cpu time spent up to now is      238.8 secs

     total energy              =   -8078.53928853 Ry
     estimated scf accuracy    <      15.68597980 Ry

     total magnetization       =    81.74 Bohr mag/cell
     absolute magnetization    =    93.48 Bohr mag/cell

     iteration # 13     ecut=    50.00 Ry     beta= 0.10
     Davidson diagonalization with overlap
     ethr =  1.42E-03,  avg # of iterations =  1.0

     negative rho (up, down):  1.132E-02 1.819E-02
 
     Adding external electric field

     Computed dipole along edir(3) : 
        Dipole               -0.5254 Ry au,         -1.3354 Debye
        Dipole field         -0.0003 Ry au, 
 
        Potential amp.        0.0345 Ry
        Total length         54.7057 bohr
 
 
     Adding external electric field

     Computed dipole along edir(3) : 
        Dipole               -0.5254 Ry au,         -1.3354 Debye
        Dipole field         -0.0003 Ry au, 
 
        Potential amp.        0.0345 Ry
        Total length         54.7057 bohr
 

     total cpu time spent up to now is      253.2 secs

     total energy              =   -8078.60091589 Ry
     estimated scf accuracy    <      17.98154768 Ry

     total magnetization       =    75.84 Bohr mag/cell
     absolute magnetization    =    88.76 Bohr mag/cell

     iteration # 14     ecut=    50.00 Ry     beta= 0.10
     Davidson diagonalization with overlap
     ethr =  1.42E-03,  avg # of iterations =  1.0

     negative rho (up, down):  6.134E-02 5.855E-02
 
     Adding external electric field

     Computed dipole along edir(3) : 
        Dipole                0.0688 Ry au,          0.1750 Debye
        Dipole field          0.0000 Ry au, 
 
        Potential amp.       -0.0045 Ry
        Total length         54.7057 bohr
 
 
     Adding external electric field

     Computed dipole along edir(3) : 
        Dipole                0.0688 Ry au,          0.1750 Debye
        Dipole field          0.0000 Ry au, 
 
        Potential amp.       -0.0045 Ry
        Total length         54.7057 bohr
 

     total cpu time spent up to now is      268.1 secs

     total energy              =   -8078.37813014 Ry
     estimated scf accuracy    <      16.37494764 Ry

     total magnetization       =    80.02 Bohr mag/cell
     absolute magnetization    =    91.35 Bohr mag/cell

     iteration # 15     ecut=    50.00 Ry     beta= 0.10
     Davidson diagonalization with overlap
     ethr =  1.42E-03,  avg # of iterations =  1.0

     negative rho (up, down):  6.335E-02 6.005E-02
 
     Adding external electric field

     Computed dipole along edir(3) : 
        Dipole                0.0938 Ry au,          0.2385 Debye
        Dipole field          0.0001 Ry au, 
 
        Potential amp.       -0.0062 Ry
        Total length         54.7057 bohr
 
 
     Adding external electric field

     Computed dipole along edir(3) : 
        Dipole                0.0938 Ry au,          0.2385 Debye
        Dipole field          0.0001 Ry au, 
 
        Potential amp.       -0.0062 Ry
        Total length         54.7057 bohr
 

     total cpu time spent up to now is      283.0 secs

     total energy              =   -8078.69894954 Ry
     estimated scf accuracy    <      13.47166139 Ry

     total magnetization       =    85.88 Bohr mag/cell
     absolute magnetization    =    94.11 Bohr mag/cell

     iteration # 16     ecut=    50.00 Ry     beta= 0.10
     Davidson diagonalization with overlap
     ethr =  1.22E-03,  avg # of iterations =  1.0

     negative rho (up, down):  6.595E-02 6.142E-02
 
     Adding external electric field

     Computed dipole along edir(3) : 
        Dipole                0.1442 Ry au,          0.3664 Debye
        Dipole field          0.0001 Ry au, 
 
        Potential amp.       -0.0095 Ry
        Total length         54.7057 bohr
 
 
     Adding external electric field

     Computed dipole along edir(3) : 
        Dipole                0.1442 Ry au,          0.3664 Debye
        Dipole field          0.0001 Ry au, 
 
        Potential amp.       -0.0095 Ry
        Total length         54.7057 bohr
 

     total cpu time spent up to now is      297.9 secs

     total energy              =   -8078.70559267 Ry
     estimated scf accuracy    <      12.39443521 Ry

     total magnetization       =    86.77 Bohr mag/cell
     absolute magnetization    =    94.89 Bohr mag/cell

     iteration # 17     ecut=    50.00 Ry     beta= 0.10
     Davidson diagonalization with overlap
     ethr =  1.12E-03,  avg # of iterations =  1.0

     negative rho (up, down):  6.260E-02 5.799E-02
 
     Adding external electric field

     Computed dipole along edir(3) : 
        Dipole                0.1446 Ry au,          0.3676 Debye
        Dipole field          0.0001 Ry au, 
 
        Potential amp.       -0.0095 Ry
        Total length         54.7057 bohr
 
 
     Adding external electric field

     Computed dipole along edir(3) : 
        Dipole                0.1446 Ry au,          0.3676 Debye
        Dipole field          0.0001 Ry au, 
 
        Potential amp.       -0.0095 Ry
        Total length         54.7057 bohr
 

     total cpu time spent up to now is      312.6 secs

     total energy              =   -8078.71322581 Ry
     estimated scf accuracy    <      12.93017689 Ry

     total magnetization       =    87.28 Bohr mag/cell
     absolute magnetization    =    95.15 Bohr mag/cell

     iteration # 18     ecut=    50.00 Ry     beta= 0.10
     Davidson diagonalization with overlap
     ethr =  1.12E-03,  avg # of iterations =  1.0

     negative rho (up, down):  5.413E-02 4.734E-02
 
     Adding external electric field

     Computed dipole along edir(3) : 
        Dipole                0.0071 Ry au,          0.0181 Debye
        Dipole field          0.0000 Ry au, 
 
        Potential amp.       -0.0005 Ry
        Total length         54.7057 bohr
 
 
     Adding external electric field

     Computed dipole along edir(3) : 
        Dipole                0.0071 Ry au,          0.0181 Debye
        Dipole field          0.0000 Ry au, 
 
        Potential amp.       -0.0005 Ry
        Total length         54.7057 bohr
 

     total cpu time spent up to now is      327.3 secs

     total energy              =   -8078.66572724 Ry
     estimated scf accuracy    <      16.23609544 Ry

     total magnetization       =    86.19 Bohr mag/cell
     absolute magnetization    =    94.12 Bohr mag/cell

     iteration # 19     ecut=    50.00 Ry     beta= 0.10
     Davidson diagonalization with overlap
     ethr =  1.12E-03,  avg # of iterations =  1.0

     negative rho (up, down):  3.304E-02 2.822E-02
 
     Adding external electric field

     Computed dipole along edir(3) : 
        Dipole               -0.3748 Ry au,         -0.9527 Debye
        Dipole field         -0.0002 Ry au, 
 
        Potential amp.        0.0246 Ry
        Total length         54.7057 bohr
 
 
     Adding external electric field

     Computed dipole along edir(3) : 
        Dipole               -0.3748 Ry au,         -0.9527 Debye
        Dipole field         -0.0002 Ry au, 
 
        Potential amp.        0.0246 Ry
        Total length         54.7057 bohr
 

     total cpu time spent up to now is      341.8 secs

     total energy              =   -8078.26591059 Ry
     estimated scf accuracy    <      14.01247899 Ry

     total magnetization       =    89.60 Bohr mag/cell
     absolute magnetization    =    96.95 Bohr mag/cell

     iteration # 20     ecut=    50.00 Ry     beta= 0.10
     Davidson diagonalization with overlap
     ethr =  1.12E-03,  avg # of iterations =  1.0

     negative rho (up, down):  3.080E-02 2.796E-02
 
     Adding external electric field

     Computed dipole along edir(3) : 
        Dipole               -0.3978 Ry au,         -1.0112 Debye
        Dipole field         -0.0002 Ry au, 
 
        Potential amp.        0.0261 Ry
        Total length         54.7057 bohr
 
 
     Adding external electric field

     Computed dipole along edir(3) : 
        Dipole               -0.3978 Ry au,         -1.0112 Debye
        Dipole field         -0.0002 Ry au, 
 
        Potential amp.        0.0261 Ry
        Total length         54.7057 bohr
 

     total cpu time spent up to now is      356.7 secs

     total energy              =   -8078.48046738 Ry
     estimated scf accuracy    <       4.57887409 Ry

     total magnetization       =    93.72 Bohr mag/cell
     absolute magnetization    =   101.17 Bohr mag/cell

     iteration # 21     ecut=    50.00 Ry     beta= 0.10
     Davidson diagonalization with overlap
     ethr =  4.13E-04,  avg # of iterations =  1.5

     negative rho (up, down):  8.788E-03 1.033E-02
 
     Adding external electric field

     Computed dipole along edir(3) : 
        Dipole               -0.8123 Ry au,         -2.0646 Debye
        Dipole field         -0.0005 Ry au, 
 
        Potential amp.        0.0533 Ry
        Total length         54.7057 bohr
 
 
     Adding external electric field

     Computed dipole along edir(3) : 
        Dipole               -0.8123 Ry au,         -2.0646 Debye
        Dipole field         -0.0005 Ry au, 
 
        Potential amp.        0.0533 Ry
        Total length         54.7057 bohr
 

     total cpu time spent up to now is      372.7 secs

     total energy              =   -8078.44429799 Ry
     estimated scf accuracy    <       3.33624502 Ry

     total magnetization       =    94.50 Bohr mag/cell
     absolute magnetization    =   101.16 Bohr mag/cell

     iteration # 22     ecut=    50.00 Ry     beta= 0.10
     Davidson diagonalization with overlap
     ethr =  3.01E-04,  avg # of iterations =  1.0

     negative rho (up, down):  4.979E-03 6.192E-03
 
     Adding external electric field

     Computed dipole along edir(3) : 
        Dipole               -1.0163 Ry au,         -2.5833 Debye
        Dipole field         -0.0006 Ry au, 
 
        Potential amp.        0.0667 Ry
        Total length         54.7057 bohr
 
 
     Adding external electric field

     Computed dipole along edir(3) : 
        Dipole               -1.0163 Ry au,         -2.5833 Debye
        Dipole field         -0.0006 Ry au, 
 
        Potential amp.        0.0667 Ry
        Total length         54.7057 bohr
 

     total cpu time spent up to now is      387.4 secs

     total energy              =   -8078.50464527 Ry
     estimated scf accuracy    <       1.26695243 Ry

     total magnetization       =    94.58 Bohr mag/cell
     absolute magnetization    =    99.56 Bohr mag/cell

     iteration # 23     ecut=    50.00 Ry     beta= 0.10
     Davidson diagonalization with overlap
     ethr =  1.14E-04,  avg # of iterations =  1.5

     negative rho (up, down):  5.156E-03 6.083E-03
 
     Adding external electric field

     Computed dipole along edir(3) : 
        Dipole               -1.0119 Ry au,         -2.5721 Debye
        Dipole field         -0.0006 Ry au, 
 
        Potential amp.        0.0664 Ry
        Total length         54.7057 bohr
 
 
     Adding external electric field

     Computed dipole along edir(3) : 
        Dipole               -1.0119 Ry au,         -2.5721 Debye
        Dipole field         -0.0006 Ry au, 
 
        Potential amp.        0.0664 Ry
        Total length         54.7057 bohr
 

     total cpu time spent up to now is      403.6 secs

     total energy              =   -8078.52409969 Ry
     estimated scf accuracy    <       0.78222490 Ry

     total magnetization       =    95.76 Bohr mag/cell
     absolute magnetization    =    99.52 Bohr mag/cell

     iteration # 24     ecut=    50.00 Ry     beta= 0.10
     Davidson diagonalization with overlap
     ethr =  7.06E-05,  avg # of iterations =  2.0

     negative rho (up, down):  2.246E-03 2.676E-03
 
     Adding external electric field

     Computed dipole along edir(3) : 
        Dipole               -1.2557 Ry au,         -3.1917 Debye
        Dipole field         -0.0008 Ry au, 
 
        Potential amp.        0.0824 Ry
        Total length         54.7057 bohr
 
 
     Adding external electric field

     Computed dipole along edir(3) : 
        Dipole               -1.2557 Ry au,         -3.1917 Debye
        Dipole field         -0.0008 Ry au, 
 
        Potential amp.        0.0824 Ry
        Total length         54.7057 bohr
 

     total cpu time spent up to now is      420.3 secs

     total energy              =   -8078.54141150 Ry
     estimated scf accuracy    <       0.66689605 Ry

     total magnetization       =    96.27 Bohr mag/cell
     absolute magnetization    =    99.88 Bohr mag/cell

     iteration # 25     ecut=    50.00 Ry     beta= 0.10
     Davidson diagonalization with overlap
     ethr =  6.02E-05,  avg # of iterations = 11.0

     negative rho (up, down):  1.114E-03 1.046E-03
 
     Adding external electric field

     Computed dipole along edir(3) : 
        Dipole               -1.4967 Ry au,         -3.8043 Debye
        Dipole field         -0.0009 Ry au, 
 
        Potential amp.        0.0982 Ry
        Total length         54.7057 bohr
 
 
     Adding external electric field

     Computed dipole along edir(3) : 
        Dipole               -1.4967 Ry au,         -3.8043 Debye
        Dipole field         -0.0009 Ry au, 
 
        Potential amp.        0.0982 Ry
        Total length         54.7057 bohr
 

     total cpu time spent up to now is      447.1 secs

     total energy              =   -8078.56136339 Ry
     estimated scf accuracy    <       0.46823750 Ry

     total magnetization       =    96.71 Bohr mag/cell
     absolute magnetization    =    99.40 Bohr mag/cell

     iteration # 26     ecut=    50.00 Ry     beta= 0.10
     Davidson diagonalization with overlap
     ethr =  4.23E-05,  avg # of iterations =  9.0

     negative rho (up, down):  8.205E-04 7.651E-04
 
     Adding external electric field

     Computed dipole along edir(3) : 
        Dipole               -1.5841 Ry au,         -4.0263 Debye
        Dipole field         -0.0009 Ry au, 
 
        Potential amp.        0.1039 Ry
        Total length         54.7057 bohr
 
 
     Adding external electric field

     Computed dipole along edir(3) : 
        Dipole               -1.5841 Ry au,         -4.0263 Debye
        Dipole field         -0.0009 Ry au, 
 
        Potential amp.        0.1039 Ry
        Total length         54.7057 bohr
 

     total cpu time spent up to now is      468.5 secs

     total energy              =   -8078.57047735 Ry
     estimated scf accuracy    <       0.34304039 Ry

     total magnetization       =    98.07 Bohr mag/cell
     absolute magnetization    =    99.63 Bohr mag/cell

     iteration # 27     ecut=    50.00 Ry     beta= 0.10
     Davidson diagonalization with overlap
     ethr =  3.10E-05,  avg # of iterations =  1.5

     negative rho (up, down):  4.208E-04 3.937E-04
 
     Adding external electric field

     Computed dipole along edir(3) : 
        Dipole               -1.4250 Ry au,         -3.6220 Debye
        Dipole field         -0.0009 Ry au, 
 
        Potential amp.        0.0935 Ry
        Total length         54.7057 bohr
 
 
     Adding external electric field

     Computed dipole along edir(3) : 
        Dipole               -1.4250 Ry au,         -3.6220 Debye
        Dipole field         -0.0009 Ry au, 
 
        Potential amp.        0.0935 Ry
        Total length         54.7057 bohr
 

     total cpu time spent up to now is      485.0 secs

     total energy              =   -8078.56975332 Ry
     estimated scf accuracy    <       0.19409662 Ry

     total magnetization       =    97.66 Bohr mag/cell
     absolute magnetization    =    98.95 Bohr mag/cell

     iteration # 28     ecut=    50.00 Ry     beta= 0.10
     Davidson diagonalization with overlap
     ethr =  1.75E-05,  avg # of iterations = 12.0

     negative rho (up, down):  2.274E-04 1.848E-04
 
     Adding external electric field

     Computed dipole along edir(3) : 
        Dipole               -1.4074 Ry au,         -3.5772 Debye
        Dipole field         -0.0008 Ry au, 
 
        Potential amp.        0.0923 Ry
        Total length         54.7057 bohr
 
 
     Adding external electric field

     Computed dipole along edir(3) : 
        Dipole               -1.4074 Ry au,         -3.5772 Debye
        Dipole field         -0.0008 Ry au, 
 
        Potential amp.        0.0923 Ry
        Total length         54.7057 bohr
 

     total cpu time spent up to now is      515.4 secs

     total energy              =   -8078.57293713 Ry
     estimated scf accuracy    <       0.11730172 Ry

     total magnetization       =    97.54 Bohr mag/cell
     absolute magnetization    =    98.80 Bohr mag/cell

     iteration # 29     ecut=    50.00 Ry     beta= 0.10
     Davidson diagonalization with overlap
     ethr =  1.06E-05,  avg # of iterations = 10.0

     negative rho (up, down):  2.138E-04 1.525E-04
 
     Adding external electric field

     Computed dipole along edir(3) : 
        Dipole               -1.3255 Ry au,         -3.3691 Debye
        Dipole field         -0.0008 Ry au, 
 
        Potential amp.        0.0869 Ry
        Total length         54.7057 bohr
 
 
     Adding external electric field

     Computed dipole along edir(3) : 
        Dipole               -1.3255 Ry au,         -3.3691 Debye
        Dipole field         -0.0008 Ry au, 
 
        Potential amp.        0.0869 Ry
        Total length         54.7057 bohr
 

     total cpu time spent up to now is      537.3 secs

     total energy              =   -8078.57137356 Ry
     estimated scf accuracy    <       0.09333653 Ry

     total magnetization       =    97.37 Bohr mag/cell
     absolute magnetization    =    98.54 Bohr mag/cell

     iteration # 30     ecut=    50.00 Ry     beta= 0.10
     Davidson diagonalization with overlap
     ethr =  8.42E-06,  avg # of iterations =  1.5

     negative rho (up, down):  2.348E-04 1.936E-04
 
     Adding external electric field

     Computed dipole along edir(3) : 
        Dipole               -1.2172 Ry au,         -3.0939 Debye
        Dipole field         -0.0007 Ry au, 
 
        Potential amp.        0.0798 Ry
        Total length         54.7057 bohr
 
 
     Adding external electric field

     Computed dipole along edir(3) : 
        Dipole               -1.2172 Ry au,         -3.0939 Debye
        Dipole field         -0.0007 Ry au, 
 
        Potential amp.        0.0798 Ry
        Total length         54.7057 bohr
 

     total cpu time spent up to now is      553.2 secs

     total energy              =   -8078.56911463 Ry
     estimated scf accuracy    <       0.06011290 Ry

     total magnetization       =    97.66 Bohr mag/cell
     absolute magnetization    =    98.78 Bohr mag/cell

     iteration # 31     ecut=    50.00 Ry     beta= 0.10
     Davidson diagonalization with overlap
     ethr =  5.43E-06,  avg # of iterations =  2.0

     negative rho (up, down):  8.385E-05 7.273E-05
 
     Adding external electric field

     Computed dipole along edir(3) : 
        Dipole               -1.0704 Ry au,         -2.7207 Debye
        Dipole field         -0.0006 Ry au, 
 
        Potential amp.        0.0702 Ry
        Total length         54.7057 bohr
 
 
     Adding external electric field

     Computed dipole along edir(3) : 
        Dipole               -1.0704 Ry au,         -2.7207 Debye
        Dipole field         -0.0006 Ry au, 
 
        Potential amp.        0.0702 Ry
        Total length         54.7057 bohr
 

     total cpu time spent up to now is      570.0 secs

     total energy              =   -8078.56509214 Ry
     estimated scf accuracy    <       0.04157908 Ry

     total magnetization       =    97.34 Bohr mag/cell
     absolute magnetization    =    98.46 Bohr mag/cell

     iteration # 32     ecut=    50.00 Ry     beta= 0.10
     Davidson diagonalization with overlap
     c_bands:  1 eigenvalues not converged
     c_bands:  1 eigenvalues not converged
     ethr =  3.75E-06,  avg # of iterations = 20.0

     negative rho (up, down):  1.869E-06 6.407E-07
 
     Adding external electric field

     Computed dipole along edir(3) : 
        Dipole               -1.1043 Ry au,         -2.8070 Debye
        Dipole field         -0.0007 Ry au, 
 
        Potential amp.        0.0724 Ry
        Total length         54.7057 bohr
 
 
     Adding external electric field

     Computed dipole along edir(3) : 
        Dipole               -1.1043 Ry au,         -2.8070 Debye
        Dipole field         -0.0007 Ry au, 
 
        Potential amp.        0.0724 Ry
        Total length         54.7057 bohr
 

     total cpu time spent up to now is      599.9 secs

     total energy              =   -8078.56607795 Ry
     estimated scf accuracy    <       0.02474267 Ry

     total magnetization       =    97.10 Bohr mag/cell
     absolute magnetization    =    98.21 Bohr mag/cell

     iteration # 33     ecut=    50.00 Ry     beta= 0.10
     Davidson diagonalization with overlap
     ethr =  2.23E-06,  avg # of iterations = 18.0
 
     Adding external electric field

     Computed dipole along edir(3) : 
        Dipole               -1.0560 Ry au,         -2.6842 Debye
        Dipole field         -0.0006 Ry au, 
 
        Potential amp.        0.0693 Ry
        Total length         54.7057 bohr
 
 
     Adding external electric field

     Computed dipole along edir(3) : 
        Dipole               -1.0560 Ry au,         -2.6842 Debye
        Dipole field         -0.0006 Ry au, 
 
        Potential amp.        0.0693 Ry
        Total length         54.7057 bohr
 

     total cpu time spent up to now is      634.4 secs

     total energy              =   -8078.56634866 Ry
     estimated scf accuracy    <       0.02099599 Ry

     total magnetization       =    97.22 Bohr mag/cell
     absolute magnetization    =    98.28 Bohr mag/cell

     iteration # 34     ecut=    50.00 Ry     beta= 0.10
     Davidson diagonalization with overlap
     c_bands:  4 eigenvalues not converged
     ethr =  1.89E-06,  avg # of iterations = 11.0
 
     Adding external electric field

     Computed dipole along edir(3) : 
        Dipole               -1.0628 Ry au,         -2.7013 Debye
        Dipole field         -0.0006 Ry au, 
 
        Potential amp.        0.0697 Ry
        Total length         54.7057 bohr
 
 
     Adding external electric field

     Computed dipole along edir(3) : 
        Dipole               -1.0628 Ry au,         -2.7013 Debye
        Dipole field         -0.0006 Ry au, 
 
        Potential amp.        0.0697 Ry
        Total length         54.7057 bohr
 

     total cpu time spent up to now is      661.1 secs

     total energy              =   -8078.56641357 Ry
     estimated scf accuracy    <       0.02146497 Ry

     total magnetization       =    97.21 Bohr mag/cell
     absolute magnetization    =    98.30 Bohr mag/cell

     iteration # 35     ecut=    50.00 Ry     beta= 0.10
     Davidson diagonalization with overlap
     ethr =  1.89E-06,  avg # of iterations =  2.0
 
     Adding external electric field

     Computed dipole along edir(3) : 
        Dipole               -1.0089 Ry au,         -2.5643 Debye
        Dipole field         -0.0006 Ry au, 
 
        Potential amp.        0.0662 Ry
        Total length         54.7057 bohr
 
 
     Adding external electric field

     Computed dipole along edir(3) : 
        Dipole               -1.0089 Ry au,         -2.5643 Debye
        Dipole field         -0.0006 Ry au, 
 
        Potential amp.        0.0662 Ry
        Total length         54.7057 bohr
 

     total cpu time spent up to now is      676.8 secs

     total energy              =   -8078.56617652 Ry
     estimated scf accuracy    <       0.01750516 Ry

     total magnetization       =    97.14 Bohr mag/cell
     absolute magnetization    =    98.23 Bohr mag/cell

     iteration # 36     ecut=    50.00 Ry     beta= 0.10
     Davidson diagonalization with overlap
     ethr =  1.58E-06,  avg # of iterations =  3.0
 
     Adding external electric field

     Computed dipole along edir(3) : 
        Dipole               -0.9014 Ry au,         -2.2912 Debye
        Dipole field         -0.0005 Ry au, 
 
        Potential amp.        0.0591 Ry
        Total length         54.7057 bohr
 
 
     Adding external electric field

     Computed dipole along edir(3) : 
        Dipole               -0.9014 Ry au,         -2.2912 Debye
        Dipole field         -0.0005 Ry au, 
 
        Potential amp.        0.0591 Ry
        Total length         54.7057 bohr
 

     total cpu time spent up to now is      693.8 secs

     total energy              =   -8078.56525209 Ry
     estimated scf accuracy    <       0.01666147 Ry

     total magnetization       =    97.21 Bohr mag/cell
     absolute magnetization    =    98.34 Bohr mag/cell

     iteration # 37     ecut=    50.00 Ry     beta= 0.10
     Davidson diagonalization with overlap
     ethr =  1.50E-06,  avg # of iterations =  2.0
 
     Adding external electric field

     Computed dipole along edir(3) : 
        Dipole               -0.9106 Ry au,         -2.3144 Debye
        Dipole field         -0.0005 Ry au, 
 
        Potential amp.        0.0597 Ry
        Total length         54.7057 bohr
 
 
     Adding external electric field

     Computed dipole along edir(3) : 
        Dipole               -0.9106 Ry au,         -2.3144 Debye
        Dipole field         -0.0005 Ry au, 
 
        Potential amp.        0.0597 Ry
        Total length         54.7057 bohr
 

     total cpu time spent up to now is      710.4 secs

     total energy              =   -8078.56547440 Ry
     estimated scf accuracy    <       0.02526136 Ry

     total magnetization       =    97.11 Bohr mag/cell
     absolute magnetization    =    98.30 Bohr mag/cell

     iteration # 38     ecut=    50.00 Ry     beta= 0.10
     Davidson diagonalization with overlap
     ethr =  1.50E-06,  avg # of iterations =  1.5
 
     Adding external electric field

     Computed dipole along edir(3) : 
        Dipole               -0.9258 Ry au,         -2.3532 Debye
        Dipole field         -0.0006 Ry au, 
 
        Potential amp.        0.0607 Ry
        Total length         54.7057 bohr
 
 
     Adding external electric field

     Computed dipole along edir(3) : 
        Dipole               -0.9258 Ry au,         -2.3532 Debye
        Dipole field         -0.0006 Ry au, 
 
        Potential amp.        0.0607 Ry
        Total length         54.7057 bohr
 

     total cpu time spent up to now is      726.6 secs

     total energy              =   -8078.56550888 Ry
     estimated scf accuracy    <       0.02203533 Ry

     total magnetization       =    97.11 Bohr mag/cell
     absolute magnetization    =    98.29 Bohr mag/cell

     iteration # 39     ecut=    50.00 Ry     beta= 0.10
     Davidson diagonalization with overlap
     ethr =  1.50E-06,  avg # of iterations =  2.0
 
     Adding external electric field

     Computed dipole along edir(3) : 
        Dipole               -0.9162 Ry au,         -2.3288 Debye
        Dipole field         -0.0005 Ry au, 
 
        Potential amp.        0.0601 Ry
        Total length         54.7057 bohr
 
 
     Adding external electric field

     Computed dipole along edir(3) : 
        Dipole               -0.9162 Ry au,         -2.3288 Debye
        Dipole field         -0.0005 Ry au, 
 
        Potential amp.        0.0601 Ry
        Total length         54.7057 bohr
 

     total cpu time spent up to now is      743.1 secs

     total energy              =   -8078.56546986 Ry
     estimated scf accuracy    <       0.01976883 Ry

     total magnetization       =    97.12 Bohr mag/cell
     absolute magnetization    =    98.28 Bohr mag/cell

     iteration # 40     ecut=    50.00 Ry     beta= 0.10
     Davidson diagonalization with overlap
     ethr =  1.50E-06,  avg # of iterations =  1.5
 
     Adding external electric field

     Computed dipole along edir(3) : 
        Dipole               -0.9378 Ry au,         -2.3836 Debye
        Dipole field         -0.0006 Ry au, 
 
        Potential amp.        0.0615 Ry
        Total length         54.7057 bohr
 
 
     Adding external electric field

     Computed dipole along edir(3) : 
        Dipole               -0.9378 Ry au,         -2.3836 Debye
        Dipole field         -0.0006 Ry au, 
 
        Potential amp.        0.0615 Ry
        Total length         54.7057 bohr
 

     total cpu time spent up to now is      758.5 secs

     total energy              =   -8078.56566276 Ry
     estimated scf accuracy    <       0.01950950 Ry

     total magnetization       =    97.11 Bohr mag/cell
     absolute magnetization    =    98.29 Bohr mag/cell

     iteration # 41     ecut=    50.00 Ry     beta= 0.10
     Davidson diagonalization with overlap
     ethr =  1.50E-06,  avg # of iterations =  2.0

     negative rho (up, down):  5.371E-08 5.258E-08
 
     Adding external electric field

     Computed dipole along edir(3) : 
        Dipole               -0.9613 Ry au,         -2.4433 Debye
        Dipole field         -0.0006 Ry au, 
 
        Potential amp.        0.0630 Ry
        Total length         54.7057 bohr
 
 
     Adding external electric field

     Computed dipole along edir(3) : 
        Dipole               -0.9613 Ry au,         -2.4433 Debye
        Dipole field         -0.0006 Ry au, 
 
        Potential amp.        0.0630 Ry
        Total length         54.7057 bohr
 

     total cpu time spent up to now is      775.7 secs

     total energy              =   -8078.56555876 Ry
     estimated scf accuracy    <       0.01686897 Ry

     total magnetization       =    97.15 Bohr mag/cell
     absolute magnetization    =    98.35 Bohr mag/cell

     iteration # 42     ecut=    50.00 Ry     beta= 0.10
     Davidson diagonalization with overlap
     ethr =  1.50E-06,  avg # of iterations =  1.5
 
     Adding external electric field

     Computed dipole along edir(3) : 
        Dipole               -0.9493 Ry au,         -2.4130 Debye
        Dipole field         -0.0006 Ry au, 
 
        Potential amp.        0.0623 Ry
        Total length         54.7057 bohr
 
 
     Adding external electric field

     Computed dipole along edir(3) : 
        Dipole               -0.9493 Ry au,         -2.4130 Debye
        Dipole field         -0.0006 Ry au, 
 
        Potential amp.        0.0623 Ry
        Total length         54.7057 bohr
 

     total cpu time spent up to now is      791.8 secs

     total energy              =   -8078.56569226 Ry
     estimated scf accuracy    <       0.01642426 Ry

     total magnetization       =    97.17 Bohr mag/cell
     absolute magnetization    =    98.34 Bohr mag/cell

     iteration # 43     ecut=    50.00 Ry     beta= 0.10
     Davidson diagonalization with overlap
     ethr =  1.48E-06,  avg # of iterations =  1.5
 
     Adding external electric field

     Computed dipole along edir(3) : 
        Dipole               -0.9493 Ry au,         -2.4129 Debye
        Dipole field         -0.0006 Ry au, 
 
        Potential amp.        0.0623 Ry
        Total length         54.7057 bohr
 
 
     Adding external electric field

     Computed dipole along edir(3) : 
        Dipole               -0.9493 Ry au,         -2.4129 Debye
        Dipole field         -0.0006 Ry au, 
 
        Potential amp.        0.0623 Ry
        Total length         54.7057 bohr
 

     total cpu time spent up to now is      807.1 secs

     total energy              =   -8078.56565392 Ry
     estimated scf accuracy    <       0.01648612 Ry

     total magnetization       =    97.16 Bohr mag/cell
     absolute magnetization    =    98.34 Bohr mag/cell

     iteration # 44     ecut=    50.00 Ry     beta= 0.10
     Davidson diagonalization with overlap
     ethr =  1.48E-06,  avg # of iterations =  1.5
 
     Adding external electric field

     Computed dipole along edir(3) : 
        Dipole               -0.9425 Ry au,         -2.3955 Debye
        Dipole field         -0.0006 Ry au, 
 
        Potential amp.        0.0618 Ry
        Total length         54.7057 bohr
 
 
     Adding external electric field

     Computed dipole along edir(3) : 
        Dipole               -0.9425 Ry au,         -2.3955 Debye
        Dipole field         -0.0006 Ry au, 
 
        Potential amp.        0.0618 Ry
        Total length         54.7057 bohr
 

     total cpu time spent up to now is      822.8 secs

     total energy              =   -8078.56555600 Ry
     estimated scf accuracy    <       0.01668624 Ry

     total magnetization       =    97.18 Bohr mag/cell
     absolute magnetization    =    98.35 Bohr mag/cell

     iteration # 45     ecut=    50.00 Ry     beta= 0.10
     Davidson diagonalization with overlap
     ethr =  1.48E-06,  avg # of iterations =  2.0
 
     Adding external electric field

     Computed dipole along edir(3) : 
        Dipole               -0.9562 Ry au,         -2.4305 Debye
        Dipole field         -0.0006 Ry au, 
 
        Potential amp.        0.0627 Ry
        Total length         54.7057 bohr
 
 
     Adding external electric field

     Computed dipole along edir(3) : 
        Dipole               -0.9562 Ry au,         -2.4305 Debye
        Dipole field         -0.0006 Ry au, 
 
        Potential amp.        0.0627 Ry
        Total length         54.7057 bohr
 

     total cpu time spent up to now is      840.0 secs

     total energy              =   -8078.56597410 Ry
     estimated scf accuracy    <       0.01702236 Ry

     total magnetization       =    97.18 Bohr mag/cell
     absolute magnetization    =    98.36 Bohr mag/cell

     iteration # 46     ecut=    50.00 Ry     beta= 0.10
     Davidson diagonalization with overlap
     ethr =  1.48E-06,  avg # of iterations =  1.5
 
     Adding external electric field

     Computed dipole along edir(3) : 
        Dipole               -0.9270 Ry au,         -2.3562 Debye
        Dipole field         -0.0006 Ry au, 
 
        Potential amp.        0.0608 Ry
        Total length         54.7057 bohr
 
 
     Adding external electric field

     Computed dipole along edir(3) : 
        Dipole               -0.9270 Ry au,         -2.3562 Debye
        Dipole field         -0.0006 Ry au, 
 
        Potential amp.        0.0608 Ry
        Total length         54.7057 bohr
 

     total cpu time spent up to now is      856.1 secs

     total energy              =   -8078.56543860 Ry
     estimated scf accuracy    <       0.01657165 Ry

     total magnetization       =    97.16 Bohr mag/cell
     absolute magnetization    =    98.35 Bohr mag/cell

     iteration # 47     ecut=    50.00 Ry     beta= 0.10
     Davidson diagonalization with overlap
     ethr =  1.48E-06,  avg # of iterations =  2.0

     negative rho (up, down):  4.453E-07 5.179E-07
 
     Adding external electric field

     Computed dipole along edir(3) : 
        Dipole               -0.9495 Ry au,         -2.4135 Debye
        Dipole field         -0.0006 Ry au, 
 
        Potential amp.        0.0623 Ry
        Total length         54.7057 bohr
 
 
     Adding external electric field

     Computed dipole along edir(3) : 
        Dipole               -0.9495 Ry au,         -2.4135 Debye
        Dipole field         -0.0006 Ry au, 
 
        Potential amp.        0.0623 Ry
        Total length         54.7057 bohr
 

     total cpu time spent up to now is      872.5 secs

     total energy              =   -8078.56559073 Ry
     estimated scf accuracy    <       0.01671278 Ry

     total magnetization       =    97.16 Bohr mag/cell
     absolute magnetization    =    98.33 Bohr mag/cell

     iteration # 48     ecut=    50.00 Ry     beta= 0.10
     Davidson diagonalization with overlap
     ethr =  1.48E-06,  avg # of iterations =  1.5
 
     Adding external electric field

     Computed dipole along edir(3) : 
        Dipole               -0.9305 Ry au,         -2.3651 Debye
        Dipole field         -0.0006 Ry au, 
 
        Potential amp.        0.0610 Ry
        Total length         54.7057 bohr
 
 
     Adding external electric field

     Computed dipole along edir(3) : 
        Dipole               -0.9305 Ry au,         -2.3651 Debye
        Dipole field         -0.0006 Ry au, 
 
        Potential amp.        0.0610 Ry
        Total length         54.7057 bohr
 

     total cpu time spent up to now is      888.0 secs

     total energy              =   -8078.56552169 Ry
     estimated scf accuracy    <       0.01605991 Ry

     total magnetization       =    97.18 Bohr mag/cell
     absolute magnetization    =    98.34 Bohr mag/cell

     iteration # 49     ecut=    50.00 Ry     beta= 0.10
     Davidson diagonalization with overlap
     ethr =  1.45E-06,  avg # of iterations =  2.0

     negative rho (up, down):  6.672E-07 7.756E-07
 
     Adding external electric field

     Computed dipole along edir(3) : 
        Dipole               -0.9493 Ry au,         -2.4129 Debye
        Dipole field         -0.0006 Ry au, 
 
        Potential amp.        0.0623 Ry
        Total length         54.7057 bohr
 
 
     Adding external electric field

     Computed dipole along edir(3) : 
        Dipole               -0.9493 Ry au,         -2.4129 Debye
        Dipole field         -0.0006 Ry au, 
 
        Potential amp.        0.0623 Ry
        Total length         54.7057 bohr
 

     total cpu time spent up to now is      905.1 secs

     total energy              =   -8078.56553087 Ry
     estimated scf accuracy    <       0.01639094 Ry

     total magnetization       =    97.15 Bohr mag/cell
     absolute magnetization    =    98.34 Bohr mag/cell

     iteration # 50     ecut=    50.00 Ry     beta= 0.10
     Davidson diagonalization with overlap
     ethr =  1.45E-06,  avg # of iterations =  1.5

     negative rho (up, down):  1.290E-08 5.633E-09
 
     Adding external electric field

     Computed dipole along edir(3) : 
        Dipole               -0.9706 Ry au,         -2.4671 Debye
        Dipole field         -0.0006 Ry au, 
 
        Potential amp.        0.0637 Ry
        Total length         54.7057 bohr
 
 
     Adding external electric field

     Computed dipole along edir(3) : 
        Dipole               -0.9706 Ry au,         -2.4671 Debye
        Dipole field         -0.0006 Ry au, 
 
        Potential amp.        0.0637 Ry
        Total length         54.7057 bohr
 

     total cpu time spent up to now is      920.9 secs

     total energy              =   -8078.56575100 Ry
     estimated scf accuracy    <       0.01709595 Ry

     total magnetization       =    97.18 Bohr mag/cell
     absolute magnetization    =    98.34 Bohr mag/cell

     iteration # 51     ecut=    50.00 Ry     beta= 0.10
     Davidson diagonalization with overlap
     ethr =  1.45E-06,  avg # of iterations =  2.0
 
     Adding external electric field

     Computed dipole along edir(3) : 
        Dipole               -0.9490 Ry au,         -2.4121 Debye
        Dipole field         -0.0006 Ry au, 
 
        Potential amp.        0.0622 Ry
        Total length         54.7057 bohr
 
 
     Adding external electric field

     Computed dipole along edir(3) : 
        Dipole               -0.9490 Ry au,         -2.4121 Debye
        Dipole field         -0.0006 Ry au, 
 
        Potential amp.        0.0622 Ry
        Total length         54.7057 bohr
 

     total cpu time spent up to now is      938.2 secs

     total energy              =   -8078.56587395 Ry
     estimated scf accuracy    <       0.01607430 Ry

     total magnetization       =    97.14 Bohr mag/cell
     absolute magnetization    =    98.29 Bohr mag/cell

     iteration # 52     ecut=    50.00 Ry     beta= 0.10
     Davidson diagonalization with overlap
     ethr =  1.45E-06,  avg # of iterations =  1.5
 
     Adding external electric field

     Computed dipole along edir(3) : 
        Dipole               -0.9328 Ry au,         -2.3708 Debye
        Dipole field         -0.0006 Ry au, 
 
        Potential amp.        0.0612 Ry
        Total length         54.7057 bohr
 
 
     Adding external electric field

     Computed dipole along edir(3) : 
        Dipole               -0.9328 Ry au,         -2.3708 Debye
        Dipole field         -0.0006 Ry au, 
 
        Potential amp.        0.0612 Ry
        Total length         54.7057 bohr
 

     total cpu time spent up to now is      953.5 secs

     total energy              =   -8078.56540035 Ry
     estimated scf accuracy    <       0.01691219 Ry

     total magnetization       =    97.15 Bohr mag/cell
     absolute magnetization    =    98.35 Bohr mag/cell

     iteration # 53     ecut=    50.00 Ry     beta= 0.10
     Davidson diagonalization with overlap
     ethr =  1.45E-06,  avg # of iterations =  1.0
 
     Adding external electric field

     Computed dipole along edir(3) : 
        Dipole               -0.9443 Ry au,         -2.4002 Debye
        Dipole field         -0.0006 Ry au, 
 
        Potential amp.        0.0619 Ry
        Total length         54.7057 bohr
 
 
     Adding external electric field

     Computed dipole along edir(3) : 
        Dipole               -0.9443 Ry au,         -2.4002 Debye
        Dipole field         -0.0006 Ry au, 
 
        Potential amp.        0.0619 Ry
        Total length         54.7057 bohr
 

     total cpu time spent up to now is      968.1 secs

     total energy              =   -8078.56559201 Ry
     estimated scf accuracy    <       0.01621293 Ry

     total magnetization       =    97.20 Bohr mag/cell
     absolute magnetization    =    98.37 Bohr mag/cell

     iteration # 54     ecut=    50.00 Ry     beta= 0.10
     Davidson diagonalization with overlap
     ethr =  1.45E-06,  avg # of iterations =  1.5

     negative rho (up, down):  1.641E-08 1.616E-08
 
     Adding external electric field

     Computed dipole along edir(3) : 
        Dipole               -0.9204 Ry au,         -2.3395 Debye
        Dipole field         -0.0006 Ry au, 
 
        Potential amp.        0.0604 Ry
        Total length         54.7057 bohr
 
 
     Adding external electric field

     Computed dipole along edir(3) : 
        Dipole               -0.9204 Ry au,         -2.3395 Debye
        Dipole field         -0.0006 Ry au, 
 
        Potential amp.        0.0604 Ry
        Total length         54.7057 bohr
 

     total cpu time spent up to now is      984.7 secs

     total energy              =   -8078.56546180 Ry
     estimated scf accuracy    <       0.01600935 Ry

     total magnetization       =    97.17 Bohr mag/cell
     absolute magnetization    =    98.34 Bohr mag/cell

     iteration # 55     ecut=    50.00 Ry     beta= 0.10
     Davidson diagonalization with overlap
     ethr =  1.44E-06,  avg # of iterations =  1.0

     negative rho (up, down):  9.044E-06 8.370E-06
 
     Adding external electric field

     Computed dipole along edir(3) : 
        Dipole               -0.9309 Ry au,         -2.3661 Debye
        Dipole field         -0.0006 Ry au, 
 
        Potential amp.        0.0611 Ry
        Total length         54.7057 bohr
 
 
     Adding external electric field

     Computed dipole along edir(3) : 
        Dipole               -0.9309 Ry au,         -2.3661 Debye
        Dipole field         -0.0006 Ry au, 
 
        Potential amp.        0.0611 Ry
        Total length         54.7057 bohr
 

     total cpu time spent up to now is      999.2 secs

     total energy              =   -8078.56509757 Ry
     estimated scf accuracy    <       0.01687913 Ry

     total magnetization       =    97.17 Bohr mag/cell
     absolute magnetization    =    98.34 Bohr mag/cell

     iteration # 56     ecut=    50.00 Ry     beta= 0.10
     Davidson diagonalization with overlap
     ethr =  1.44E-06,  avg # of iterations =  2.0

     negative rho (up, down):  6.964E-07 6.799E-07
 
     Adding external electric field

     Computed dipole along edir(3) : 
        Dipole               -0.9332 Ry au,         -2.3720 Debye
        Dipole field         -0.0006 Ry au, 
 
        Potential amp.        0.0612 Ry
        Total length         54.7057 bohr
 
 
     Adding external electric field

     Computed dipole along edir(3) : 
        Dipole               -0.9332 Ry au,         -2.3720 Debye
        Dipole field         -0.0006 Ry au, 
 
        Potential amp.        0.0612 Ry
        Total length         54.7057 bohr
 

     total cpu time spent up to now is     1015.7 secs

     total energy              =   -8078.56541548 Ry
     estimated scf accuracy    <       0.01669442 Ry

     total magnetization       =    97.21 Bohr mag/cell
     absolute magnetization    =    98.37 Bohr mag/cell

     iteration # 57     ecut=    50.00 Ry     beta= 0.10
     Davidson diagonalization with overlap
     ethr =  1.44E-06,  avg # of iterations =  1.0

     negative rho (up, down):  7.644E-06 7.627E-06
 
     Adding external electric field

     Computed dipole along edir(3) : 
        Dipole               -0.9720 Ry au,         -2.4706 Debye
        Dipole field         -0.0006 Ry au, 
 
        Potential amp.        0.0638 Ry
        Total length         54.7057 bohr
 
 
     Adding external electric field

     Computed dipole along edir(3) : 
        Dipole               -0.9720 Ry au,         -2.4706 Debye
        Dipole field         -0.0006 Ry au, 
 
        Potential amp.        0.0638 Ry
        Total length         54.7057 bohr
 

     total cpu time spent up to now is     1029.8 secs

     total energy              =   -8078.56583155 Ry
     estimated scf accuracy    <       0.01593833 Ry

     total magnetization       =    97.19 Bohr mag/cell
     absolute magnetization    =    98.36 Bohr mag/cell

     iteration # 58     ecut=    50.00 Ry     beta= 0.10
     Davidson diagonalization with overlap
     ethr =  1.44E-06,  avg # of iterations =  1.5

     negative rho (up, down):  3.332E-06 3.259E-06
 
     Adding external electric field

     Computed dipole along edir(3) : 
        Dipole               -0.9657 Ry au,         -2.4546 Debye
        Dipole field         -0.0006 Ry au, 
 
        Potential amp.        0.0633 Ry
        Total length         54.7057 bohr
 
 
     Adding external electric field

     Computed dipole along edir(3) : 
        Dipole               -0.9657 Ry au,         -2.4546 Debye
        Dipole field         -0.0006 Ry au, 
 
        Potential amp.        0.0633 Ry
        Total length         54.7057 bohr
 

     total cpu time spent up to now is     1044.7 secs

     total energy              =   -8078.56570324 Ry
     estimated scf accuracy    <       0.01572722 Ry

     total magnetization       =    97.18 Bohr mag/cell
     absolute magnetization    =    98.37 Bohr mag/cell

     iteration # 59     ecut=    50.00 Ry     beta= 0.10
     Davidson diagonalization with overlap
     ethr =  1.42E-06,  avg # of iterations =  1.0

     negative rho (up, down):  3.521E-06 3.425E-06
 
     Adding external electric field

[...]
    -6.0033  -5.9930  -5.9806  -5.9585  -5.9136  -5.9047  -5.8662  -5.8617
    -5.8563  -5.8352  -5.8152  -5.7817  -5.7693  -5.7605  -5.6986  -5.6840
    -5.6770  -5.6539  -5.6266  -5.6227  -5.5924  -5.5875  -5.5715  -5.5572
    -5.5491  -5.5182  -5.5077  -5.4945  -5.4891  -5.4840  -5.4655  -5.3810
    -5.3516  -5.3171  -5.2807  -5.2595  -5.2544  -5.2492  -5.2348  -5.1746
    -5.1618  -5.1225  -5.0807  -5.0520  -5.0422  -4.9999  -4.9310  -4.9205
    -4.8749  -4.8569  -4.8401  -4.8027  -4.7933  -4.7609  -4.7469  -4.7225
    -4.6653  -4.6410  -4.6091  -4.5817  -4.5515  -4.4718  -4.4532  -4.4104
    -4.3919  -4.3905  -4.3279  -4.2977  -4.2861  -4.2398  -4.2225  -4.1988
    -4.1943  -4.1568  -4.1151  -4.0790  -4.0556  -4.0033  -4.0010  -3.9743
    -3.9004  -3.8607  -3.8535  -3.8355  -3.8210  -3.7755  -3.7549  -3.7403
    -3.7348  -3.7188  -3.6865  -3.6828  -3.6266  -3.6214  -3.6028  -3.6000
    -3.5545  -3.5324  -3.5283  -3.5253  -3.5062  -3.4955  -3.4668  -3.4331
    -3.4237  -3.4163  -3.3947  -3.3819  -3.3746  -3.3480  -3.3342  -3.3214
    -3.2970  -3.2929  -3.2739  -3.2435  -3.2347  -3.2210  -3.1825  -3.1606
    -3.1436  -3.1064  -3.0802  -3.0742  -3.0575  -3.0415  -3.0297  -3.0052
    -2.9871  -2.9549  -2.9421  -2.9156  -2.8988  -2.8672  -2.8601  -2.8320
    -2.8177  -2.7852  -2.7524  -2.7214  -2.7111  -2.7018  -2.6880  -2.6837
    -2.6785  -2.6659  -2.6543  -2.6376  -2.6286  -2.6186  -2.6002  -2.5841
    -2.5641  -2.5465  -2.5333  -2.5252  -2.5129  -2.5016  -2.4835  -2.4612
    -2.4465  -2.4355  -2.3996  -2.3932  -2.3725  -2.3545  -2.3500  -2.3219
    -2.3035  -2.2916  -2.2839  -2.2671  -2.2446  -2.2132  -2.2048  -2.1850
    -2.1660  -2.1547  -2.1414  -2.1034  -2.0916  -2.0652  -2.0487  -2.0282
    -2.0175  -2.0117  -1.9885  -1.9689  -1.9650  -1.9318  -1.9106  -1.8862
    -1.8810  -1.8692  -1.8630  -1.8445  -1.8341  -1.8226  -1.8121  -1.8003
    -1.7324  -1.7183  -1.6862  -1.6676  -1.6392  -1.6336  -1.6278  -1.6107
    -1.6053  -1.5887  -1.5822  -1.5411  -1.5342  -1.5206  -1.4876  -1.4639
    -1.4458  -1.4298  -1.4112  -1.3889  -1.3751  -1.3547  -1.3421  -1.3313
    -1.3131  -1.3086  -1.2700  -1.2237  -1.1803  -1.1665  -1.1530  -1.1174
    -1.0745  -1.0440  -1.0091  -1.0051  -0.9967  -0.8919  -0.8455  -0.8026
    -0.7583  -0.6571  -0.6177  -0.5985  -0.4596  -0.4166  -0.2782  -0.1900
     0.1753   0.1920   0.2309   0.2520   0.2631   0.2811   0.2905   0.3030
     0.3104   0.3215   0.3385   0.3668   0.3790   0.3806   0.3853   0.3977
     0.4024   0.4070   0.4155   0.4304   0.4373   0.4544   0.4615   0.4640
     0.4764   0.4807   0.4869   0.4927   0.4995   0.5046   0.5131   0.5216
     0.5299   0.5349   0.5489   0.5548   0.5603   0.5721   0.5816   0.5951
     0.6013   0.6082   0.6226   0.6300   0.6338   0.6420   0.6563   0.6607
     0.6692   0.6736   0.6808   0.7157   0.7183   0.7278   0.7304   0.7386
     0.7454   0.7611   0.7722   0.7826   0.8050   0.8071   0.8113   0.8196
     0.8330   0.8389   0.8463   0.8677   0.8726   0.8784   0.8826   0.9027
     0.9051   0.9786   0.9887   1.0251   1.0417   1.0694   1.1281   1.1474
     1.6873   1.7591   1.7703   1.7801   1.7945   1.8245   1.8335   1.8749
     1.8859   1.8928   1.9260   1.9650   1.9775   1.9834   1.9977   2.0273
     2.0486   2.0773   2.0883   2.0976   2.1067   2.1106   2.1490   2.1548
     2.1765   2.1975   2.2030   2.2110   2.2211   2.2379   2.2580   2.2757
     2.2865   2.3027   2.3063   2.3382   2.3616   2.3761   2.4116   2.4426
     2.4522   2.4642   2.4799   2.5006   2.5139   2.5181   2.5657   2.6017
     2.6160   2.6574   2.7383   2.8009   2.8374   2.8574   2.8604   3.4164
     3.4839   3.6781   3.6923   3.7041   3.7559   3.7856   3.8489   3.8783
     3.8847   3.9166   3.9413   3.9507   3.9719   4.0033   4.0203   4.0291
     4.0663   4.0816   4.0870   4.0965   4.1071   4.1378   4.1485   4.1630
     4.2039   4.2224   4.2484   4.2664   4.3036   4.5978   4.6088   4.7802
     4.7929   4.8474   4.8841   4.8957   4.9622   4.9815   4.9891   5.0321
     5.0672   5.0895   5.1437   5.1686   5.2098   5.2188   5.3821   6.1742
     6.3554   6.4404   6.5769   6.6887   6.7175   6.7635   6.8053   6.9013
     6.9249   6.9558   7.0153   7.0444   7.2231   7.2840   7.3231   7.3520
     7.3811   7.4233   7.4758   7.5154   7.5436   7.5883   7.7034   7.7204
     7.8202   7.8320   7.9002   7.9249   7.9580   7.9997   8.0129   8.0450
     8.0628   8.0803   8.1167   8.1637   8.1754   8.2076   8.2333   8.3004
     8.3169   8.3377   8.3594   8.3689   8.3942   8.3992   8.4154   8.4263
     8.4607   8.4783   8.5104   8.5331   8.5651   8.5761   8.5977   8.6399
     8.6451

     the Fermi energy is     1.6876 ev

!    total energy              =   -8078.56143845 Ry
     estimated scf accuracy    <       0.00000053 Ry
     smearing contrib. (-TS)   =      -0.02497320 Ry
     internal energy E=F+TS    =   -8078.53646525 Ry

     The total energy is F=E-TS. E is the sum of the following terms:
     one-electron contribution =  -94749.49132932 Ry
     hartree contribution      =   47959.26731830 Ry
     xc contribution           =   -2177.36308541 Ry
     ewald contribution        =   40890.82102046 Ry
     Dispersion Correction     =      -1.77040367 Ry
     electric field correction =       0.00001439 Ry

     total magnetization       =    97.11 Bohr mag/cell
     absolute magnetization    =    98.33 Bohr mag/cell

     convergence has been achieved in 148 iterations

     negative rho (up, down):  1.166E-03 6.274E-04

     Forces acting on atoms (cartesian axes, Ry/au):

     atom    1 type  1   force =     0.02392002   -0.01769116    0.01994155
     atom    2 type  1   force =    -0.00201086    0.00013068   -0.00562987
     atom    3 type  2   force =    -0.03015274   -0.01538235   -0.00851898
     atom    4 type  1   force =     0.00192734   -0.00335506   -0.00467005
     atom    5 type  1   force =    -0.00369819    0.00224791   -0.00177206
     atom    6 type  1   force =     0.00249536    0.00738381   -0.00433483
     atom    7 type  1   force =     0.03169148   -0.01950254    0.01770089
     atom    8 type  2   force =    -0.00185072    0.00016390   -0.00912663
     atom    9 type  2   force =    -0.02879502   -0.01500249   -0.00854266
     atom   10 type  1   force =     0.00196740   -0.00297331   -0.00439148
     atom   11 type  1   force =    -0.00337348    0.00265177   -0.00094627
     atom   12 type  1   force =     0.00361818    0.00675505   -0.00381324
     atom   13 type  3   force =     0.00211839    0.00071616   -0.00758133
     atom   14 type  3   force =    -0.02976846    0.04992485   -0.06595599
     atom   15 type  3   force =     0.03466694    0.03760840   -0.05982270
     atom   16 type  3   force =    -0.00431780    0.00309413   -0.00094377
     atom   17 type  4   force =    -0.00199168    0.00137238    0.00279473
     atom   18 type  4   force =    -0.00159425   -0.00518080    0.02734195
     atom   19 type  4   force =     0.00396968    0.00281767    0.02949151
     atom   20 type  4   force =     0.00004574   -0.00270167   -0.00478696
     atom   21 type  4   force =    -0.00302116   -0.00227418    0.00335212
     atom   22 type  4   force =     0.00473240   -0.00328824    0.03422488
     atom   23 type  4   force =    -0.00598432   -0.00107431    0.03246991
     atom   24 type  4   force =     0.00065193   -0.00097020    0.00003520
     atom   25 type  4   force =    -0.00135114    0.00076994    0.00218365
     atom   26 type  4   force =    -0.01450666   -0.02274212   -0.00180748
     atom   27 type  4   force =     0.00185225   -0.00071212    0.00118561
     atom   28 type  4   force =    -0.01766221    0.00340568    0.00121535
     atom   29 type  4   force =     0.02064973   -0.00459467    0.00829826
     atom   30 type  4   force =     0.01245460   -0.03405204    0.00115870
     atom   31 type  4   force =     0.00052210    0.00094519    0.00232456
     atom   32 type  4   force =    -0.00211374    0.00006610    0.00267247
     atom   33 type  3   force =    -0.00052233   -0.00170545   -0.00506490
     atom   34 type  3   force =    -0.03022156    0.05983308   -0.08314625
     atom   35 type  3   force =     0.03458426    0.03336755   -0.05931755
     atom   36 type  3   force =    -0.00393368    0.00478003   -0.00068585
     atom   37 type  4   force =    -0.00105696    0.00136778    0.00308930
     atom   38 type  4   force =    -0.00306535   -0.00558482    0.03293128
     atom   39 type  4   force =     0.00441139    0.00395932    0.02930845
     atom   40 type  4   force =     0.00030237   -0.00330782   -0.00482562
     atom   41 type  4   force =    -0.00004728    0.00006851    0.00356325
     atom   42 type  4   force =     0.00543046    0.00028013    0.01996215
     atom   43 type  4   force =    -0.00179096    0.00038912    0.03455824
     atom   44 type  4   force =     0.00096231   -0.00088554   -0.00000395
     atom   45 type  4   force =    -0.00020317   -0.00275016    0.00127512
     atom   46 type  4   force =    -0.01510409   -0.02036854   -0.00046500
     atom   47 type  4   force =     0.00186354   -0.00064300    0.00127879
     atom   48 type  4   force =    -0.01798597    0.00404428    0.00165344
     atom   49 type  4   force =     0.01645136   -0.00277723    0.00501564
     atom   50 type  4   force =     0.01181346   -0.03674957    0.00438823
     atom   51 type  4   force =     0.00105341    0.00103801    0.00172706
     atom   52 type  4   force =     0.00097447   -0.00219769    0.00363958
     atom   53 type  1   force =     0.00143864    0.00042236   -0.00089907
     atom   54 type  1   force =     0.00136917    0.00052904   -0.00052220
     atom   55 type  2   force =    -0.00013985   -0.00041370   -0.00040193
     atom   56 type  1   force =    -0.00078928    0.00144817    0.00025500
     atom   57 type  1   force =    -0.00020370    0.00031899    0.00010554
     atom   58 type  1   force =     0.00027775   -0.00032591    0.00019794
     atom   59 type  1   force =     0.00041351    0.00079318   -0.00081594
     atom   60 type  2   force =    -0.00178035   -0.00163337    0.00595119
     atom   61 type  2   force =    -0.00011488   -0.00005226   -0.00011973
     atom   62 type  1   force =     0.00053005    0.00005398    0.00146282
     atom   63 type  1   force =     0.00008114    0.00046059    0.00033877
     atom   64 type  1   force =     0.00010824   -0.00065637   -0.00001131
     atom   65 type  3   force =     0.00029797    0.00046401    0.00037319
     atom   66 type  3   force =     0.00010207   -0.00030055   -0.00173672
     atom   67 type  3   force =     0.00041000    0.00052839   -0.00132253
     atom   68 type  3   force =    -0.00144358   -0.00157765    0.00325850
     atom   69 type  4   force =    -0.00063510    0.00027644   -0.00023587
     atom   70 type  4   force =    -0.00014852    0.00011440    0.00042894
     atom   71 type  4   force =     0.00002634   -0.00024502    0.00035861
     atom   72 type  4   force =     0.00055951   -0.00033228   -0.00140447
     atom   73 type  4   force =    -0.00005336    0.00070722   -0.00037274
     atom   74 type  4   force =    -0.00020853   -0.00061625    0.00187894
     atom   75 type  4   force =    -0.00009005   -0.00004167    0.00052430
     atom   76 type  4   force =    -0.00138703   -0.00109688    0.00241506
     atom   77 type  4   force =    -0.00099088    0.00126652    0.00008452
     atom   78 type  4   force =    -0.00040439    0.00003037    0.00035851
     atom   79 type  4   force =     0.00024506    0.00128133   -0.00194261
     atom   80 type  4   force =     0.00010271    0.00055244    0.00031819
     atom   81 type  4   force =    -0.00036329   -0.00024648    0.00042884
     atom   82 type  4   force =     0.00012644   -0.00000108   -0.00000528
     atom   83 type  4   force =     0.00086490    0.00022767    0.00074392
     atom   84 type  4   force =    -0.00089651    0.00002319   -0.00052022
     atom   85 type  3   force =     0.00040452    0.00220699    0.00146779
     atom   86 type  3   force =     0.00048414   -0.00063972   -0.00052889
     atom   87 type  3   force =    -0.00022310    0.00022052   -0.00040354
     atom   88 type  3   force =    -0.00060775   -0.00220066    0.00028016
     atom   89 type  4   force =    -0.00027806   -0.00041104   -0.00022819
     atom   90 type  4   force =     0.00007541   -0.00045466    0.00160509
     atom   91 type  4   force =     0.00035991   -0.00013449   -0.00009258
     atom   92 type  4   force =    -0.00049858    0.00058640   -0.00157670
     atom   93 type  4   force =     0.00085225   -0.00020879    0.00065619
     atom   94 type  4   force =    -0.00025008    0.00004706    0.00141656
     atom   95 type  4   force =     0.00023106    0.00022619    0.00023717
     atom   96 type  4   force =    -0.00116710    0.00013882   -0.00018194
     atom   97 type  4   force =     0.00039593    0.00028622   -0.00069989
     atom   98 type  4   force =    -0.00049567   -0.00025897    0.00031711
     atom   99 type  4   force =     0.00094328    0.00166149   -0.00153488
     atom  100 type  4   force =     0.00048991    0.00036784    0.00035281
     atom  101 type  4   force =    -0.00036248   -0.00009652    0.00049456
     atom  102 type  4   force =     0.00092028   -0.00029047    0.00041522
     atom  103 type  4   force =     0.00079017   -0.00123534   -0.00026904
     atom  104 type  4   force =    -0.00033593   -0.00116894    0.00030030
     atom  105 type  1   force =     0.00003266    0.00000966    0.00014352
     atom  106 type  1   force =    -0.00036857   -0.00078787   -0.00007619
     atom  107 type  2   force =     0.00031028   -0.00002851    0.00058140
     atom  108 type  1   force =     0.00035301   -0.00017108    0.00022992
     atom  109 type  1   force =     0.00053404   -0.00015881   -0.00044111
     atom  110 type  1   force =     0.00049260   -0.00003759    0.00073207
     atom  111 type  1   force =    -0.00035450    0.00005664    0.00065477
     atom  112 type  2   force =     0.00001302   -0.00078684    0.00047262
     atom  113 type  2   force =    -0.00018558    0.00023809    0.00009891
     atom  114 type  1   force =     0.00032762   -0.00037161    0.00094220
     atom  115 type  1   force =    -0.00056961    0.00075063   -0.00022016
     atom  116 type  1   force =    -0.00044566   -0.00050939    0.00038377
     atom  117 type  3   force =    -0.00009812   -0.00058045    0.00010287
     atom  118 type  3   force =    -0.00050788   -0.00000778    0.00002879
     atom  119 type  3   force =     0.00013483    0.00025688   -0.00008319
     atom  120 type  3   force =    -0.00003666    0.00048466   -0.00060463
     atom  121 type  4   force =    -0.00002870   -0.00002172   -0.00017768
     atom  122 type  4   force =    -0.00036025   -0.00016369    0.00019283
     atom  123 type  4   force =     0.00033733   -0.00003117    0.00023933
     atom  124 type  4   force =     0.00018593   -0.00039695    0.00016431
     atom  125 type  4   force =     0.00059794    0.00007029    0.00010238
     atom  126 type  4   force =     0.00012094   -0.00018380    0.00037433
     atom  127 type  4   force =     0.00002556   -0.00007166   -0.00015240
     atom  128 type  4   force =    -0.00019246   -0.00032491    0.00044101
     atom  129 type  4   force =     0.00000653    0.00020228    0.00000468
     atom  130 type  4   force =     0.00052707    0.00002494    0.00031330
     atom  131 type  4   force =     0.00017403    0.00018032   -0.00021481
     atom  132 type  4   force =     0.00034893   -0.00026531   -0.00004883
     atom  133 type  4   force =    -0.00011533   -0.00035922    0.00030735
     atom  134 type  4   force =    -0.00005325   -0.00014913    0.00028036
     atom  135 type  4   force =    -0.00027920   -0.00021628   -0.00019161
     atom  136 type  4   force =     0.00052189   -0.00002301    0.00023174
     atom  137 type  3   force =    -0.00007832   -0.00038283   -0.00011627
     atom  138 type  3   force =     0.00009435   -0.00006688    0.00000470
     atom  139 type  3   force =     0.00014274    0.00003256   -0.00002832
     atom  140 type  3   force =     0.00015569   -0.00011397   -0.00001002
     atom  141 type  4   force =     0.00058402    0.00050468   -0.00069292
     atom  142 type  4   force =     0.00002206    0.00007661    0.00000026
     atom  143 type  4   force =     0.00030688   -0.00005209    0.00011401
     atom  144 type  4   force =    -0.00023447    0.00066898   -0.00048873
     atom  145 type  4   force =     0.00019179    0.00033011    0.00098474
     atom  146 type  4   force =     0.00001813   -0.00004494   -0.00000818
     atom  147 type  4   force =    -0.00036318    0.00023492   -0.00016036
     atom  148 type  4   force =     0.00015195    0.00008926    0.00000593
     atom  149 type  4   force =    -0.00014554    0.00000684   -0.00013288
     atom  150 type  4   force =    -0.00013975   -0.00000191   -0.00008595
     atom  151 type  4   force =     0.00062611   -0.00021949    0.00023976
     atom  152 type  4   force =     0.00004229   -0.00025162    0.00028863
     atom  153 type  4   force =     0.00016970    0.00040380    0.00009904
     atom  154 type  4   force =    -0.00016871   -0.00031659    0.00024231
     atom  155 type  4   force =     0.00010515   -0.00022948    0.00041575
     atom  156 type  4   force =     0.00004130    0.00056828   -0.00002888
     atom  157 type  4   force =     0.00978192    0.00680336    0.00366085
     atom  158 type  5   force =    -0.01079165   -0.00598232   -0.00294323

     Total force =     0.225841     Total SCF correction =     0.002895
 
     init_run     :      9.50s CPU     10.25s WALL (       1 calls)
     electrons    :   2309.04s CPU   2416.45s WALL (       1 calls)
     forces       :      4.39s CPU      4.72s WALL (       1 calls)
     force_london :      0.11s CPU      0.11s WALL (       1 calls)

     Called by init_run:
     wfcinit      :      5.72s CPU      5.89s WALL (       1 calls)
     potinit      :      0.60s CPU      0.79s WALL (       1 calls)
     hinit0       :      1.54s CPU      1.65s WALL (       1 calls)

     Called by electrons:
     c_bands      :   1784.23s CPU   1838.30s WALL (     148 calls)
     sum_band     :    332.07s CPU    360.63s WALL (     148 calls)
     v_of_rho     :     46.09s CPU     47.75s WALL (     149 calls)
     newd         :     92.32s CPU    114.98s WALL (     149 calls)
     mix_rho      :     51.39s CPU     51.96s WALL (     148 calls)
     energy_londo :      0.10s CPU      0.10s WALL (       1 calls)

     Called by c_bands:
     init_us_2    :      5.46s CPU      5.57s WALL (     596 calls)
     init_us_2:cp :      5.46s CPU      5.57s WALL (     596 calls)
     regterg      :   1742.20s CPU   1794.25s WALL (     298 calls)

     Called by *egterg:
     rdiaghg      :    454.03s CPU    477.45s WALL (     941 calls)
     h_psi        :    759.93s CPU    773.48s WALL (     943 calls)
     s_psi        :    130.77s CPU    130.85s WALL (     943 calls)
     g_psi        :      0.98s CPU      1.00s WALL (     643 calls)

     Called by h_psi:
     h_psi:calbec :    174.20s CPU    184.30s WALL (     943 calls)
     vloc_psi     :    452.78s CPU    454.86s WALL (     943 calls)
     add_vuspsi   :    131.24s CPU    132.58s WALL (     943 calls)

     General routines
     calbec       :    259.62s CPU    274.82s WALL (    1247 calls)
     fft          :     39.17s CPU     41.59s WALL (    2695 calls)
     ffts         :     31.37s CPU     31.45s WALL (   18527 calls)
     fftw         :    514.39s CPU    516.60s WALL (  502804 calls)
     interpolate  :      3.12s CPU      3.26s WALL (     298 calls)
 
     Parallel routines
 
     PWSCF        :  38m44.88s CPU  40m33.86s WALL

 
   This run was terminated on:  23:27:41  17Nov2025            

=------------------------------------------------------------------------------=
   JOB DONE.
=------------------------------------------------------------------------------=
