
     Program PWSCF v.7.2 starts on 17Nov2025 at 23:27:46 

     This program is part of the open-source Quantum ESPRESSO suite
     for quantum simulation of materials; please cite
         "P. Giannozzi et al., J. Phys.:Condens. Matter 21 395502 (2009);
         "P. Giannozzi et al., J. Phys.:Condens. Matter 29 465901 (2017);
         "P. Giannozzi et al., J. Chem. Phys. 152 154105 (2020);
          URL http://www.quantum-espresso.org", 
     in publications or presentations arising from this work. More details at
     http://www.quantum-espresso.org/quote

     Parallel version (MPI), running on    64 processors

     MPI processes distributed on     4 nodes
     379850 MiB available memory on the printing compute node when the environment starts
 
     Reading input from PWINPUT_atm158_xm

     Current dimensions of program PWSCF are:
     Max number of different atomic species (ntypx) = 10
     Max number of k-points (npk) =  40000
     Max angular momentum in pseudopotentials (lmaxx) =  4
     Presently no symmetry can be used with electric field

     file Ni.pbe-n-rrkjus_psl.1.0.0.UPF: wavefunction(s)  3D renormalized
     file Mn.pbe-spn-rrkjus_psl.0.3.1.UPF: wavefunction(s)  3D renormalized
     file O.pbe-rrkjus.UPF: wavefunction(s)  2S renormalized
     file H.pbe-rrkjus.UPF: wavefunction(s)  1S renormalized

     gamma-point specific algorithms are used
 
     R & G space division:  proc/nbgrp/npool/nimage =      64
     Subspace diagonalization in iterative solution of the eigenvalue problem:
     one sub-group per band group will be used
     custom distributed-memory algorithm (size of sub-group:  7*  7 procs)

 
     Parallelization info
     --------------------
     sticks:   dense  smooth     PW     G-vecs:    dense   smooth      PW
     Min         214      85     20                61830    15614    1928
     Max         216      86     22                61864    15658    1982
     Sum       13727    5503   1375              3958051  1001255  125211
 
     Using Slab Decomposition
 


     bravais-lattice index     =            0
     lattice parameter (alat)  =      17.8532  a.u.
     unit-cell volume          =   20962.6682 (a.u.)^3
     number of atoms/cell      =          158
     number of atomic types    =            5
     number of electrons       =      1108.00
     number of Kohn-Sham states=          665
     kinetic-energy cutoff     =      50.0000  Ry
     charge density cutoff     =     500.0000  Ry
     scf convergence threshold =      1.0E-06
     mixing beta               =       0.1000
     number of iterations used =            8  local-TF  mixing
     Exchange-correlation=  SLA  PW   PBE  PBE
                           (   1   4   3   4   0   0   0)

     celldm(1)=  17.853155  celldm(2)=   0.000000  celldm(3)=   0.000000
     celldm(4)=   0.000000  celldm(5)=   0.000000  celldm(6)=   0.000000

     crystal axes: (cart. coord. in units of alat)
               a(1) = (   1.000000   0.000000   0.000000 )  
               a(2) = (   0.003237   1.081997   0.000000 )  
               a(3) = (   0.000000   0.000000   3.404673 )  

     reciprocal axes: (cart. coord. in units 2 pi/alat)
               b(1) = (  1.000000 -0.002992  0.000000 )  
               b(2) = (  0.000000  0.924217  0.000000 )  
               b(3) = (  0.000000  0.000000  0.293714 )  


     PseudoPot. # 1 for Ni read from file:
     ~/PSEUDO/Ni.pbe-n-rrkjus_psl.1.0.0.UPF
     MD5 check sum: Not computed, couldn't open file
     Pseudo is Ultrasoft + core correction, Zval = 10.0
     Generated using "atomic" code by A. Dal Corso  v.5.1.2
     Using radial grid of 1195 points,  6 beta functions with: 
                l(1) =   0
                l(2) =   0
                l(3) =   1
                l(4) =   1
                l(5) =   2
                l(6) =   2
     Q(r) pseudized with 0 coefficients 


     PseudoPot. # 2 for Mn read from file:
     ~/PSEUDO/Mn.pbe-spn-rrkjus_psl.0.3.1.UPF
     MD5 check sum: Not computed, couldn't open file
     Pseudo is Ultrasoft + core correction, Zval = 15.0
     Generated using &quot;atomic&quot; code by A. Dal Corso  v.6.2.2
     Using radial grid of 1187 points,  6 beta functions with: 
                l(1) =   0
                l(2) =   0
                l(3) =   1
                l(4) =   1
                l(5) =   2
                l(6) =   2
     Q(r) pseudized with 0 coefficients 


     PseudoPot. # 3 for P  read from file:
     ~/PSEUDO/P.pbe-n-rrkjus_psl.1.0.0.UPF
     MD5 check sum: Not computed, couldn't open file
     Pseudo is Ultrasoft + core correction, Zval =  5.0
     Generated using "atomic" code by A. Dal Corso  v.5.1
     Using radial grid of 1147 points,  6 beta functions with: 
                l(1) =   0
                l(2) =   0
                l(3) =   1
                l(4) =   1
                l(5) =   2
                l(6) =   2
     Q(r) pseudized with 0 coefficients 


     PseudoPot. # 4 for O  read from file:
     ~/PSEUDO/O.pbe-rrkjus.UPF
     MD5 check sum: Not computed, couldn't open file
     Pseudo is Ultrasoft, Zval =  6.0
     Generated by new atomic code, or converted to UPF format
     Using radial grid of 1269 points,  4 beta functions with: 
                l(1) =   0
                l(2) =   0
                l(3) =   1
                l(4) =   1
     Q(r) pseudized with 0 coefficients 


     PseudoPot. # 5 for H  read from file:
     ~/PSEUDO/H.pbe-rrkjus.UPF
     MD5 check sum: Not computed, couldn't open file
     Pseudo is Ultrasoft, Zval =  1.0
     Generated by new atomic code, or converted to UPF format
     Using radial grid of 1061 points,  2 beta functions with: 
                l(1) =   0
                l(2) =   0
     Q(r) pseudized with 0 coefficients 


     atomic species   valence    mass     pseudopotential
     Ni               10.00    58.69300     Ni( 1.00)
     Mn               15.00    54.93800     Mn( 1.00)
     P                 5.00    30.97300     P ( 1.00)
     O                 6.00    15.99900     O ( 1.00)
     H                 1.00     1.00790     H ( 1.00)

     Starting magnetic structure 
     atomic species   magnetization
     Ni              1.000
     Mn              1.000
     P               1.000
     O               1.000
     H               0.000

     No symmetry found



   Cartesian axes

     site n.     atom                  positions (alat units)
         1        Ni     tau(   1) = (   0.2448189   0.8359134   0.1216996  )
         2        Ni     tau(   2) = (   0.4920952   0.7731948   0.4438949  )
         3        Mn     tau(   3) = (   0.0113021   0.2918949   0.1160512  )
         4        Ni     tau(   4) = (   0.2586115   0.2268566   0.4417628  )
         5        Ni     tau(   5) = (   1.0019827   1.0705803   0.2835623  )
         6        Ni     tau(   6) = (   0.2518099   0.5339061   0.2823483  )
         7        Ni     tau(   7) = (   0.7400999   0.8349186   0.1225624  )
         8        Mn     tau(   8) = (   0.9886961   0.7700845   0.4492175  )
         9        Mn     tau(   9) = (   0.5113421   0.2944667   0.1158892  )
        10        Ni     tau(  10) = (   0.7560857   0.2263843   0.4422798  )
        11        Ni     tau(  11) = (   0.5009386   1.0712238   0.2822610  )
        12        Ni     tau(  12) = (   0.7496978   0.5336600   0.2834396  )
        13        P      tau(  13) = (   0.2147792   0.9686896   0.4382665  )
        14        P      tau(  14) = (   0.4607377   0.6441916   0.1265334  )
        15        P      tau(  15) = (   0.2883218   0.0913464   0.1265752  )
        16        P      tau(  16) = (   0.0408981   0.4221836   0.4354960  )
        17        O      tau(  17) = (   0.1380864   0.9007819   0.3023220  )
        18        O      tau(  18) = (   0.3817439   0.7113683   0.2624610  )
        19        O      tau(  19) = (   0.3638364   0.1608547   0.2624417  )
        20        O      tau(  20) = (   0.1207568   0.3545755   0.3021219  )
        21        O      tau(  21) = (   0.1552194   0.8797563   0.5625160  )
        22        O      tau(  22) = (   0.4022820   0.7317969   0.0010585  )
        23        O      tau(  23) = (   0.3454844   0.1823965   0.0026336  )
        24        O      tau(  24) = (   0.1017019   0.3344979   0.5594858  )
        25        O      tau(  25) = (   0.0970074   0.5770714   0.4346455  )
        26        O      tau(  26) = (   0.3534166   1.0203677   0.1270707  )
        27        O      tau(  27) = (   0.3778024   0.4172402   0.4261028  )
        28        O      tau(  28) = (   0.1256171   0.0954063   0.1372153  )
        29        O      tau(  29) = (   0.1232168   0.6482422   0.1385172  )
        30        O      tau(  30) = (   0.4028533   0.4897833   0.1289718  )
        31        O      tau(  31) = (   0.1511050   0.0405554   0.4369979  )
        32        O      tau(  32) = (   0.3776556   0.9624293   0.4288159  )
        33        P      tau(  33) = (   0.7084770   0.9682119   0.4394551  )
        34        P      tau(  34) = (   0.9603154   0.6409658   0.1292469  )
        35        P      tau(  35) = (   0.7875734   0.0899770   0.1274098  )
        36        P      tau(  36) = (   0.5405152   0.4272620   0.4364455  )
        37        O      tau(  37) = (   0.6323583   0.8977630   0.3036670  )
        38        O      tau(  38) = (   0.8809646   0.7091921   0.2627111  )
        39        O      tau(  39) = (   0.8631054   0.1587239   0.2636487  )
        40        O      tau(  40) = (   0.6202581   0.3578380   0.3034239  )
        41        O      tau(  41) = (   0.6499160   0.8772596   0.5630912  )
        42        O      tau(  42) = (   0.8990171   0.7283464   0.0054426  )
        43        O      tau(  43) = (   0.8448361   0.1806154   0.0030658  )
        44        O      tau(  44) = (   0.6023096   0.3392612   0.5600469  )
        45        O      tau(  45) = (   0.5960222   0.5826131   0.4346340  )
        46        O      tau(  46) = (   0.8515023   1.0184215   0.1281632  )
        47        O      tau(  47) = (   0.8779640   0.4148900   0.4260983  )
        48        O      tau(  48) = (   0.6251159   0.0957170   0.1376895  )
        49        O      tau(  49) = (   0.6237654   0.6481585   0.1378370  )
        50        O      tau(  50) = (   0.9038046   0.4863338   0.1307354  )
        51        O      tau(  51) = (   0.6458737   0.0402574   0.4377979  )
        52        O      tau(  52) = (   0.8712434   0.9635255   0.4285638  )
        53        Ni     tau(  53) = (   0.2420320   0.8169913   0.7491577  )
        54        Ni     tau(  54) = (   0.4893084   0.7542727   1.0713530  )
        55        Mn     tau(  55) = (   0.0085152   0.2729728   0.7435093  )
        56        Ni     tau(  56) = (   0.2558246   0.2079345   1.0692209  )
        57        Ni     tau(  57) = (   0.9991959   1.0516583   0.9110204  )
        58        Ni     tau(  58) = (   0.2490231   0.5149840   0.9098064  )
        59        Ni     tau(  59) = (   0.7373131   0.8159965   0.7500205  )
        60        Mn     tau(  60) = (   0.9859093   0.7511625   1.0766756  )
        61        Mn     tau(  61) = (   0.5085552   0.2755447   0.7433473  )
        62        Ni     tau(  62) = (   0.7532989   0.2074622   1.0697379  )
        63        Ni     tau(  63) = (   0.4981517   1.0523018   0.9097191  )
        64        Ni     tau(  64) = (   0.7469109   0.5147379   0.9108977  )
        65        P      tau(  65) = (   0.2119924   0.9497675   1.0657246  )
        66        P      tau(  66) = (   0.4579509   0.6252695   0.7539915  )
        67        P      tau(  67) = (   0.2855349   0.0724244   0.7540333  )
        68        P      tau(  68) = (   0.0381112   0.4032615   1.0629541  )
        69        O      tau(  69) = (   0.1352995   0.8818598   0.9297801  )
        70        O      tau(  70) = (   0.3789570   0.6924463   0.8899191  )
        71        O      tau(  71) = (   0.3610496   0.1419327   0.8898998  )
        72        O      tau(  72) = (   0.1179700   0.3356534   0.9295800  )
        73        O      tau(  73) = (   0.1524325   0.8608343   1.1899741  )
        74        O      tau(  74) = (   0.3994952   0.7128748   0.6285166  )
        75        O      tau(  75) = (   0.3426976   0.1634744   0.6300917  )
        76        O      tau(  76) = (   0.0989151   0.3155758   1.1869439  )
        77        O      tau(  77) = (   0.0942206   0.5581494   1.0621036  )
        78        O      tau(  78) = (   0.3506297   1.0014456   0.7545288  )
        79        O      tau(  79) = (   0.3750155   0.3983181   1.0535609  )
        80        O      tau(  80) = (   0.1228303   0.0764842   0.7646734  )
        81        O      tau(  81) = (   0.1204299   0.6293201   0.7659753  )
        82        O      tau(  82) = (   0.4000664   0.4708612   0.7564299  )
        83        O      tau(  83) = (   0.1483182   0.0216333   1.0644560  )
        84        O      tau(  84) = (   0.3748687   0.9435072   1.0562740  )
        85        P      tau(  85) = (   0.7056901   0.9492898   1.0669132  )
        86        P      tau(  86) = (   0.9575286   0.6220438   0.7567050  )
        87        P      tau(  87) = (   0.7847866   0.0710549   0.7548679  )
        88        P      tau(  88) = (   0.5377283   0.4083400   1.0639036  )
        89        O      tau(  89) = (   0.6295714   0.8788409   0.9311251  )
        90        O      tau(  90) = (   0.8781778   0.6902700   0.8901692  )
        91        O      tau(  91) = (   0.8603186   0.1398018   0.8911068  )
        92        O      tau(  92) = (   0.6174712   0.3389159   0.9308820  )
        93        O      tau(  93) = (   0.6471291   0.8583376   1.1905493  )
        94        O      tau(  94) = (   0.8962302   0.7094244   0.6329007  )
        95        O      tau(  95) = (   0.8420493   0.1616933   0.6305239  )
        96        O      tau(  96) = (   0.5995227   0.3203391   1.1875050  )
        97        O      tau(  97) = (   0.5932354   0.5636910   1.0620921  )
        98        O      tau(  98) = (   0.8487155   0.9994995   0.7556213  )
        99        O      tau(  99) = (   0.8751772   0.3959680   1.0535564  )
       100        O      tau( 100) = (   0.6223291   0.0767949   0.7651476  )
       101        O      tau( 101) = (   0.6209785   0.6292365   0.7652951  )
       102        O      tau( 102) = (   0.9010178   0.4674118   0.7581935  )
       103        O      tau( 103) = (   0.6430869   0.0213354   1.0652560  )
       104        O      tau( 104) = (   0.8684566   0.9446034   1.0560219  )
       105        Ni     tau( 105) = (   0.2412023   0.8004481   1.3761697  )
       106        Ni     tau( 106) = (   0.4986735   0.7355768   1.6794178  )
       107        Mn     tau( 107) = (   0.0058178   0.2579714   1.3748439  )
       108        Ni     tau( 108) = (   0.2445030   0.1966672   1.6827613  )
       109        Ni     tau( 109) = (   0.9973019   1.0372672   1.5419400  )
       110        Ni     tau( 110) = (   0.2442193   0.4988167   1.5412053  )
       111        Ni     tau( 111) = (   0.7355958   0.7989306   1.3771896  )
       112        Mn     tau( 112) = (   0.9955940   0.7374460   1.6981170  )
       113        Mn     tau( 113) = (   0.5084073   0.2597986   1.3740649  )
       114        Ni     tau( 114) = (   0.7506413   0.1876866   1.7157338  )
       115        Ni     tau( 115) = (   0.4999815   1.0354405   1.5368422  )
       116        Ni     tau( 116) = (   0.7421734   0.4941468   1.5447217  )
       117        P      tau( 117) = (   0.2134520   0.9305608   1.6928748  )
       118        P      tau( 118) = (   0.4552265   0.6038409   1.3792233  )
       119        P      tau( 119) = (   0.2846976   0.0570133   1.3802773  )
       120        P      tau( 120) = (   0.0325224   0.3864354   1.7029347  )
       121        O      tau( 121) = (   0.1349751   0.8706564   1.5506288  )
       122        O      tau( 122) = (   0.3764107   0.6721600   1.5149202  )
       123        O      tau( 123) = (   0.3606206   0.1260236   1.5156957  )
       124        O      tau( 124) = (   0.1092748   0.3280951   1.5591652  )
       125        O      tau( 125) = (   0.1511793   0.8339695   1.8079082  )
       126        O      tau( 126) = (   0.3964659   0.6926639   1.2544695  )
       127        O      tau( 127) = (   0.3425042   0.1476694   1.2561401  )
       128        O      tau( 128) = (   0.0960478   0.2915149   1.8172940  )
       129        O      tau( 129) = (   0.0879065   0.5436709   1.7030381  )
       130        O      tau( 130) = (   0.3488342   0.9858816   1.3801817  )
       131        O      tau( 131) = (   0.3671736   0.3798408   1.6812659  )
       132        O      tau( 132) = (   0.1219276   0.0647475   1.3934455  )
       133        O      tau( 133) = (   0.1179523   0.6112524   1.3972003  )
       134        O      tau( 134) = (   0.3951101   0.4502108   1.3814183  )
       135        O      tau( 135) = (   0.1554058   0.0046046   1.6969583  )
       136        O      tau( 136) = (   0.3765182   0.9212570   1.6810882  )
       137        P      tau( 137) = (   0.7067285   0.9241104   1.6956373  )
       138        P      tau( 138) = (   0.9550835   0.6030567   1.3877912  )
       139        P      tau( 139) = (   0.7840039   0.0566892   1.3823828  )
       140        P      tau( 140) = (   0.5313930   0.3840217   1.6968505  )
       141        O      tau( 141) = (   0.6301565   0.8631087   1.5500589  )
       142        O      tau( 142) = (   0.8781540   0.6680547   1.5246654  )
       143        O      tau( 143) = (   0.8584090   0.1266911   1.5169273  )
       144        O      tau( 144) = (   0.6101434   0.3244037   1.5563583  )
       145        O      tau( 145) = (   0.6497044   0.8229155   1.8076390  )
       146        O      tau( 146) = (   0.8952346   0.6931503   1.2649845  )
       147        O      tau( 147) = (   0.8417833   0.1457064   1.2563858  )
       148        O      tau( 148) = (   0.5882982   0.2884097   1.8138105  )
       149        O      tau( 149) = (   0.5857986   0.5416269   1.6967524  )
       150        O      tau( 150) = (   0.8463249   0.9844929   1.3834097  )
       151        O      tau( 151) = (   0.8691606   0.3830520   1.6896730  )
       152        O      tau( 152) = (   0.6208256   0.0636157   1.3908489  )
       153        O      tau( 153) = (   0.6179180   0.6081228   1.3928659  )
       154        O      tau( 154) = (   0.8974059   0.4489532   1.3860662  )
       155        O      tau( 155) = (   0.6446735  -0.0036875   1.6925588  )
       156        O      tau( 156) = (   0.8709253   0.9175257   1.6809245  )
       157        O      tau( 157) = (   0.8700644   0.1000713   1.8382274  )
       158        H      tau( 158) = (   0.9520837   0.1587224   1.8633884  )

     -------------------------------------------------
     Parameters for Dispersion (Grimme-D2) Correction:
     -------------------------------------------------
       atom      VdW radius       C_6     

        Ni         2.952        374.666
        Mn         2.952        374.666
        P          3.222        271.980
        O          2.536         24.284
        H          1.892          4.857

     number of k points=     1  Gaussian smearing, width (Ry)=  0.0100
                       cart. coord. in units 2pi/alat
        k(    1) = (   0.0000000   0.0000000   0.0000000), wk =   1.0000000

     Dense  grid:  1979026 G-vectors     FFT dimensions: ( 128, 144, 450)

     Smooth grid:   500628 G-vectors     FFT dimensions: (  81,  90, 288)

     Estimated max dynamical RAM per process >     333.40 MB

     Estimated total dynamical RAM >      20.84 GB

     Check: negative core charge=   -0.000002
     Generating pointlists ...
     new r_m :   0.0793 (alat units)  1.4155 (a.u.) for type    1
     new r_m :   0.0881 (alat units)  1.5722 (a.u.) for type    2
     new r_m :   0.0666 (alat units)  1.1883 (a.u.) for type    3
     new r_m :   0.0429 (alat units)  0.7653 (a.u.) for type    4
     new r_m :   0.0429 (alat units)  0.7653 (a.u.) for type    5

     Initial potential from superposition of free atoms

     starting charge    1107.8886, renormalised to    1108.0000

     negative rho (up, down):  1.534E-03 4.690E-04
 
     Adding external electric field

     Computed dipole along edir(3) : 
        Dipole                1.6284 Ry au,          4.1391 Debye
        Dipole field          0.0010 Ry au, 
 
        Potential amp.       -0.1068 Ry
        Total length         54.7057 bohr
 
 
     Adding external electric field

     Computed dipole along edir(3) : 
        Dipole                1.6284 Ry au,          4.1391 Debye
        Dipole field          0.0010 Ry au, 
 
        Potential amp.       -0.1068 Ry
        Total length         54.7057 bohr
 
     Starting wfcs are  818 randomized atomic wfcs

     total cpu time spent up to now is       12.0 secs

     Self-consistent Calculation

     iteration #  1     ecut=    50.00 Ry     beta= 0.10
     Davidson diagonalization with overlap
     ethr =  1.00E-02,  avg # of iterations =  5.5

     negative rho (up, down):  4.284E-01 1.423E-07
 
     Adding external electric field

     Computed dipole along edir(3) : 
        Dipole               -3.6990 Ry au,         -9.4019 Debye
        Dipole field         -0.0022 Ry au, 
 
        Potential amp.        0.2426 Ry
        Total length         54.7057 bohr
 
 
     Adding external electric field

     Computed dipole along edir(3) : 
        Dipole               -3.6990 Ry au,         -9.4019 Debye
        Dipole field         -0.0022 Ry au, 
 
        Potential amp.        0.2426 Ry
        Total length         54.7057 bohr
 

     total cpu time spent up to now is       45.3 secs

     total energy              =   -7856.29974751 Ry
     estimated scf accuracy    <     732.47461735 Ry

     total magnetization       =   222.00 Bohr mag/cell
     absolute magnetization    =   319.83 Bohr mag/cell

     iteration #  2     ecut=    50.00 Ry     beta= 0.10
     Davidson diagonalization with overlap
     ethr =  1.00E-02,  avg # of iterations =  2.0

     negative rho (up, down):  4.051E-01 2.629E-08
 
     Adding external electric field

     Computed dipole along edir(3) : 
        Dipole               -2.4584 Ry au,         -6.2486 Debye
        Dipole field         -0.0015 Ry au, 
 
        Potential amp.        0.1612 Ry
        Total length         54.7057 bohr
 
 
     Adding external electric field

     Computed dipole along edir(3) : 
        Dipole               -2.4584 Ry au,         -6.2486 Debye
        Dipole field         -0.0015 Ry au, 
 
        Potential amp.        0.1612 Ry
        Total length         54.7057 bohr
 

     total cpu time spent up to now is       66.2 secs

     total energy              =   -7939.08924298 Ry
     estimated scf accuracy    <     213.99527441 Ry

     total magnetization       =   169.12 Bohr mag/cell
     absolute magnetization    =   215.36 Bohr mag/cell

     iteration #  3     ecut=    50.00 Ry     beta= 0.10
     Davidson diagonalization with overlap
     ethr =  1.00E-02,  avg # of iterations =  1.5

     negative rho (up, down):  3.639E-01 1.307E-08
 
     Adding external electric field

     Computed dipole along edir(3) : 
        Dipole               -2.2126 Ry au,         -5.6239 Debye
        Dipole field         -0.0013 Ry au, 
 
        Potential amp.        0.1451 Ry
        Total length         54.7057 bohr
 
 
     Adding external electric field

     Computed dipole along edir(3) : 
        Dipole               -2.2126 Ry au,         -5.6239 Debye
        Dipole field         -0.0013 Ry au, 
 
        Potential amp.        0.1451 Ry
        Total length         54.7057 bohr
 

     total cpu time spent up to now is       82.0 secs

     total energy              =   -7966.89362128 Ry
     estimated scf accuracy    <     103.65091795 Ry

     total magnetization       =   144.63 Bohr mag/cell
     absolute magnetization    =   193.21 Bohr mag/cell

     iteration #  4     ecut=    50.00 Ry     beta= 0.10
     Davidson diagonalization with overlap
     ethr =  9.35E-03,  avg # of iterations =  1.0

     negative rho (up, down):  2.870E-01 0.000E+00
 
     Adding external electric field

     Computed dipole along edir(3) : 
        Dipole               -1.9196 Ry au,         -4.8792 Debye
        Dipole field         -0.0012 Ry au, 
 
        Potential amp.        0.1259 Ry
        Total length         54.7057 bohr
 
 
     Adding external electric field

     Computed dipole along edir(3) : 
        Dipole               -1.9196 Ry au,         -4.8792 Debye
        Dipole field         -0.0012 Ry au, 
 
        Potential amp.        0.1259 Ry
        Total length         54.7057 bohr
 

     total cpu time spent up to now is       96.3 secs

     total energy              =   -8000.90611935 Ry
     estimated scf accuracy    <      86.68521744 Ry

     total magnetization       =   129.49 Bohr mag/cell
     absolute magnetization    =   179.57 Bohr mag/cell

     iteration #  5     ecut=    50.00 Ry     beta= 0.10
     Davidson diagonalization with overlap
     ethr =  7.82E-03,  avg # of iterations =  1.0

     negative rho (up, down):  6.350E-02 5.438E-09
 
     Adding external electric field

     Computed dipole along edir(3) : 
        Dipole               -1.4624 Ry au,         -3.7171 Debye
        Dipole field         -0.0009 Ry au, 
 
        Potential amp.        0.0959 Ry
        Total length         54.7057 bohr
 
 
     Adding external electric field

     Computed dipole along edir(3) : 
        Dipole               -1.4624 Ry au,         -3.7171 Debye
        Dipole field         -0.0009 Ry au, 
 
        Potential amp.        0.0959 Ry
        Total length         54.7057 bohr
 

     total cpu time spent up to now is      111.4 secs

     total energy              =   -8059.04487401 Ry
     estimated scf accuracy    <      69.30313607 Ry

     total magnetization       =   106.38 Bohr mag/cell
     absolute magnetization    =   160.01 Bohr mag/cell

     iteration #  6     ecut=    50.00 Ry     beta= 0.10
     Davidson diagonalization with overlap
     ethr =  6.25E-03,  avg # of iterations =  1.0

     negative rho (up, down):  1.062E-03 2.264E-03
 
     Adding external electric field

     Computed dipole along edir(3) : 
        Dipole               -1.0316 Ry au,         -2.6221 Debye
        Dipole field         -0.0006 Ry au, 
 
        Potential amp.        0.0677 Ry
        Total length         54.7057 bohr
 
 
     Adding external electric field

     Computed dipole along edir(3) : 
        Dipole               -1.0316 Ry au,         -2.6221 Debye
        Dipole field         -0.0006 Ry au, 
 
        Potential amp.        0.0677 Ry
        Total length         54.7057 bohr
 

     total cpu time spent up to now is      126.2 secs

     total energy              =   -8076.01980546 Ry
     estimated scf accuracy    <      19.20514321 Ry

     total magnetization       =   100.00 Bohr mag/cell
     absolute magnetization    =   134.71 Bohr mag/cell

     iteration #  7     ecut=    50.00 Ry     beta= 0.10
     Davidson diagonalization with overlap
     ethr =  1.73E-03,  avg # of iterations =  6.0

     negative rho (up, down):  1.064E-03 2.259E-03
 
     Adding external electric field

     Computed dipole along edir(3) : 
        Dipole               -1.0308 Ry au,         -2.6200 Debye
        Dipole field         -0.0006 Ry au, 
 
        Potential amp.        0.0676 Ry
        Total length         54.7057 bohr
 
 
     Adding external electric field

     Computed dipole along edir(3) : 
        Dipole               -1.0308 Ry au,         -2.6200 Debye
        Dipole field         -0.0006 Ry au, 
 
        Potential amp.        0.0676 Ry
        Total length         54.7057 bohr
 

     total cpu time spent up to now is      151.7 secs

     total energy              =   -8078.91872687 Ry
     estimated scf accuracy    <      29.32897185 Ry

     total magnetization       =    69.16 Bohr mag/cell
     absolute magnetization    =    86.55 Bohr mag/cell

     iteration #  8     ecut=    50.00 Ry     beta= 0.10
     Davidson diagonalization with overlap
     ethr =  1.73E-03,  avg # of iterations =  1.0

     negative rho (up, down):  9.993E-04 2.272E-03
 
     Adding external electric field

     Computed dipole along edir(3) : 
        Dipole               -1.0319 Ry au,         -2.6228 Debye
        Dipole field         -0.0006 Ry au, 
 
        Potential amp.        0.0677 Ry
        Total length         54.7057 bohr
 
 
     Adding external electric field

     Computed dipole along edir(3) : 
        Dipole               -1.0319 Ry au,         -2.6228 Debye
        Dipole field         -0.0006 Ry au, 
 
        Potential amp.        0.0677 Ry
        Total length         54.7057 bohr
 

     total cpu time spent up to now is      165.3 secs

     total energy              =   -8079.05371000 Ry
     estimated scf accuracy    <      29.51333091 Ry

     total magnetization       =    69.19 Bohr mag/cell
     absolute magnetization    =    86.12 Bohr mag/cell

     iteration #  9     ecut=    50.00 Ry     beta= 0.10
     Davidson diagonalization with overlap
     ethr =  1.73E-03,  avg # of iterations =  1.0

     negative rho (up, down):  1.005E-03 2.281E-03
 
     Adding external electric field

     Computed dipole along edir(3) : 
        Dipole               -1.0350 Ry au,         -2.6306 Debye
        Dipole field         -0.0006 Ry au, 
 
        Potential amp.        0.0679 Ry
        Total length         54.7057 bohr
 
 
     Adding external electric field

     Computed dipole along edir(3) : 
        Dipole               -1.0350 Ry au,         -2.6306 Debye
        Dipole field         -0.0006 Ry au, 
 
        Potential amp.        0.0679 Ry
        Total length         54.7057 bohr
 

     total cpu time spent up to now is      181.5 secs

     total energy              =   -8079.07246897 Ry
     estimated scf accuracy    <      30.58912597 Ry

     total magnetization       =    68.57 Bohr mag/cell
     absolute magnetization    =    85.21 Bohr mag/cell

     iteration # 10     ecut=    50.00 Ry     beta= 0.10
     Davidson diagonalization with overlap
     ethr =  1.73E-03,  avg # of iterations =  1.0

     negative rho (up, down):  1.240E-03 2.935E-03
 
     Adding external electric field

     Computed dipole along edir(3) : 
        Dipole               -1.0662 Ry au,         -2.7101 Debye
        Dipole field         -0.0006 Ry au, 
 
        Potential amp.        0.0699 Ry
        Total length         54.7057 bohr
 
 
     Adding external electric field

     Computed dipole along edir(3) : 
        Dipole               -1.0662 Ry au,         -2.7101 Debye
        Dipole field         -0.0006 Ry au, 
 
        Potential amp.        0.0699 Ry
        Total length         54.7057 bohr
 

     total cpu time spent up to now is      196.9 secs

     total energy              =   -8078.96820989 Ry
     estimated scf accuracy    <      30.54541011 Ry

     total magnetization       =    68.61 Bohr mag/cell
     absolute magnetization    =    85.02 Bohr mag/cell

     iteration # 11     ecut=    50.00 Ry     beta= 0.10
     Davidson diagonalization with overlap
     ethr =  1.73E-03,  avg # of iterations =  1.0

     negative rho (up, down):  2.287E-03 5.398E-03
 
     Adding external electric field

     Computed dipole along edir(3) : 
        Dipole               -1.1514 Ry au,         -2.9267 Debye
        Dipole field         -0.0007 Ry au, 
 
        Potential amp.        0.0755 Ry
        Total length         54.7057 bohr
 
 
     Adding external electric field

     Computed dipole along edir(3) : 
        Dipole               -1.1514 Ry au,         -2.9267 Debye
        Dipole field         -0.0007 Ry au, 
 
        Potential amp.        0.0755 Ry
        Total length         54.7057 bohr
 

     total cpu time spent up to now is      211.8 secs

     total energy              =   -8078.79598406 Ry
     estimated scf accuracy    <      28.68790877 Ry

     total magnetization       =    69.03 Bohr mag/cell
     absolute magnetization    =    84.46 Bohr mag/cell

     iteration # 12     ecut=    50.00 Ry     beta= 0.10
     Davidson diagonalization with overlap
     ethr =  1.73E-03,  avg # of iterations =  1.0

     negative rho (up, down):  1.315E-03 2.540E-03
 
     Adding external electric field

     Computed dipole along edir(3) : 
        Dipole               -0.9959 Ry au,         -2.5313 Debye
        Dipole field         -0.0006 Ry au, 
 
        Potential amp.        0.0653 Ry
        Total length         54.7057 bohr
 
 
     Adding external electric field

     Computed dipole along edir(3) : 
        Dipole               -0.9959 Ry au,         -2.5313 Debye
        Dipole field         -0.0006 Ry au, 
 
        Potential amp.        0.0653 Ry
        Total length         54.7057 bohr
 

     total cpu time spent up to now is      227.5 secs

     total energy              =   -8079.11354212 Ry
     estimated scf accuracy    <      25.78733625 Ry

     total magnetization       =    70.00 Bohr mag/cell
     absolute magnetization    =    83.76 Bohr mag/cell

     iteration # 13     ecut=    50.00 Ry     beta= 0.10
     Davidson diagonalization with overlap
     ethr =  1.73E-03,  avg # of iterations =  1.0

     negative rho (up, down):  2.546E-03 7.105E-03
 
     Adding external electric field

     Computed dipole along edir(3) : 
        Dipole               -1.1955 Ry au,         -3.0386 Debye
        Dipole field         -0.0007 Ry au, 
 
        Potential amp.        0.0784 Ry
        Total length         54.7057 bohr
 
 
     Adding external electric field

     Computed dipole along edir(3) : 
        Dipole               -1.1955 Ry au,         -3.0386 Debye
        Dipole field         -0.0007 Ry au, 
 
        Potential amp.        0.0784 Ry
        Total length         54.7057 bohr
 

     total cpu time spent up to now is      243.8 secs

     total energy              =   -8078.50470599 Ry
     estimated scf accuracy    <      37.42302250 Ry

     total magnetization       =    65.42 Bohr mag/cell
     absolute magnetization    =    82.16 Bohr mag/cell

     iteration # 14     ecut=    50.00 Ry     beta= 0.10
     Davidson diagonalization with overlap
     ethr =  1.73E-03,  avg # of iterations =  1.0

     negative rho (up, down):  1.046E-01 1.258E-01
 
     Adding external electric field

     Computed dipole along edir(3) : 
        Dipole               -1.6877 Ry au,         -4.2897 Debye
        Dipole field         -0.0010 Ry au, 
 
        Potential amp.        0.1107 Ry
        Total length         54.7057 bohr
 
 
     Adding external electric field

     Computed dipole along edir(3) : 
        Dipole               -1.6877 Ry au,         -4.2897 Debye
        Dipole field         -0.0010 Ry au, 
 
        Potential amp.        0.1107 Ry
        Total length         54.7057 bohr
 

     total cpu time spent up to now is      259.0 secs

     total energy              =   -8077.66579858 Ry
     estimated scf accuracy    <      21.93123610 Ry

     total magnetization       =    71.84 Bohr mag/cell
     absolute magnetization    =    84.92 Bohr mag/cell

     iteration # 15     ecut=    50.00 Ry     beta= 0.10
     Davidson diagonalization with overlap
     ethr =  1.73E-03,  avg # of iterations =  2.5

     negative rho (up, down):  9.564E-02 1.196E-01
 
     Adding external electric field

     Computed dipole along edir(3) : 
        Dipole               -1.5755 Ry au,         -4.0045 Debye
        Dipole field         -0.0009 Ry au, 
 
        Potential amp.        0.1033 Ry
        Total length         54.7057 bohr
 
 
     Adding external electric field

     Computed dipole along edir(3) : 
        Dipole               -1.5755 Ry au,         -4.0045 Debye
        Dipole field         -0.0009 Ry au, 
 
        Potential amp.        0.1033 Ry
        Total length         54.7057 bohr
 

     total cpu time spent up to now is      279.0 secs

     total energy              =   -8080.39535119 Ry
     estimated scf accuracy    <      12.00345706 Ry

     total magnetization       =    91.92 Bohr mag/cell
     absolute magnetization    =    95.43 Bohr mag/cell

     iteration # 16     ecut=    50.00 Ry     beta= 0.10
     Davidson diagonalization with overlap
     ethr =  1.08E-03,  avg # of iterations =  1.0

     negative rho (up, down):  4.426E-02 5.465E-02
 
     Adding external electric field

     Computed dipole along edir(3) : 
        Dipole               -1.4000 Ry au,         -3.5585 Debye
        Dipole field         -0.0008 Ry au, 
 
        Potential amp.        0.0918 Ry
        Total length         54.7057 bohr
 
 
     Adding external electric field

     Computed dipole along edir(3) : 
        Dipole               -1.4000 Ry au,         -3.5585 Debye
        Dipole field         -0.0008 Ry au, 
 
        Potential amp.        0.0918 Ry
        Total length         54.7057 bohr
 

     total cpu time spent up to now is      295.1 secs

     total energy              =   -8078.98863551 Ry
     estimated scf accuracy    <      11.47369314 Ry

     total magnetization       =    92.48 Bohr mag/cell
     absolute magnetization    =    95.58 Bohr mag/cell

     iteration # 17     ecut=    50.00 Ry     beta= 0.10
     Davidson diagonalization with overlap
     ethr =  1.04E-03,  avg # of iterations =  1.0

     negative rho (up, down):  4.732E-02 5.720E-02
 
     Adding external electric field

     Computed dipole along edir(3) : 
        Dipole               -1.4579 Ry au,         -3.7055 Debye
        Dipole field         -0.0009 Ry au, 
 
        Potential amp.        0.0956 Ry
        Total length         54.7057 bohr
 
 
     Adding external electric field

     Computed dipole along edir(3) : 
        Dipole               -1.4579 Ry au,         -3.7055 Debye
        Dipole field         -0.0009 Ry au, 
 
        Potential amp.        0.0956 Ry
        Total length         54.7057 bohr
 

     total cpu time spent up to now is      310.2 secs

     total energy              =   -8079.24704513 Ry
     estimated scf accuracy    <       7.88014214 Ry

     total magnetization       =    91.04 Bohr mag/cell
     absolute magnetization    =    95.23 Bohr mag/cell

     iteration # 18     ecut=    50.00 Ry     beta= 0.10
     Davidson diagonalization with overlap
     ethr =  7.11E-04,  avg # of iterations =  1.0

     negative rho (up, down):  2.655E-02 2.497E-02
 
     Adding external electric field

     Computed dipole along edir(3) : 
        Dipole               -1.5991 Ry au,         -4.0644 Debye
        Dipole field         -0.0010 Ry au, 
 
        Potential amp.        0.1049 Ry
        Total length         54.7057 bohr
 
 
     Adding external electric field

     Computed dipole along edir(3) : 
        Dipole               -1.5991 Ry au,         -4.0644 Debye
        Dipole field         -0.0010 Ry au, 
 
        Potential amp.        0.1049 Ry
        Total length         54.7057 bohr
 

     total cpu time spent up to now is      325.4 secs

     total energy              =   -8078.36300090 Ry
     estimated scf accuracy    <       7.46214596 Ry

     total magnetization       =    91.14 Bohr mag/cell
     absolute magnetization    =    95.41 Bohr mag/cell

     iteration # 19     ecut=    50.00 Ry     beta= 0.10
     Davidson diagonalization with overlap
     ethr =  6.73E-04,  avg # of iterations =  1.5

     negative rho (up, down):  7.436E-02 6.750E-02
 
     Adding external electric field

     Computed dipole along edir(3) : 
        Dipole               -1.9577 Ry au,         -4.9759 Debye
        Dipole field         -0.0012 Ry au, 
 
        Potential amp.        0.1284 Ry
        Total length         54.7057 bohr
 
 
     Adding external electric field

     Computed dipole along edir(3) : 
        Dipole               -1.9577 Ry au,         -4.9759 Debye
        Dipole field         -0.0012 Ry au, 
 
        Potential amp.        0.1284 Ry
        Total length         54.7057 bohr
 

     total cpu time spent up to now is      342.6 secs

     total energy              =   -8078.77540660 Ry
     estimated scf accuracy    <       9.30629208 Ry

     total magnetization       =    86.97 Bohr mag/cell
     absolute magnetization    =    93.48 Bohr mag/cell

     iteration # 20     ecut=    50.00 Ry     beta= 0.10
     Davidson diagonalization with overlap
     ethr =  6.73E-04,  avg # of iterations =  1.0

     negative rho (up, down):  7.072E-02 6.549E-02
 
     Adding external electric field

     Computed dipole along edir(3) : 
        Dipole               -1.9486 Ry au,         -4.9530 Debye
        Dipole field         -0.0012 Ry au, 
 
        Potential amp.        0.1278 Ry
        Total length         54.7057 bohr
 
 
     Adding external electric field

     Computed dipole along edir(3) : 
        Dipole               -1.9486 Ry au,         -4.9530 Debye
        Dipole field         -0.0012 Ry au, 
 
        Potential amp.        0.1278 Ry
        Total length         54.7057 bohr
 

     total cpu time spent up to now is      358.7 secs

     total energy              =   -8078.84127759 Ry
     estimated scf accuracy    <       8.20635226 Ry

     total magnetization       =    89.09 Bohr mag/cell
     absolute magnetization    =    95.22 Bohr mag/cell

     iteration # 21     ecut=    50.00 Ry     beta= 0.10
     Davidson diagonalization with overlap
     ethr =  6.73E-04,  avg # of iterations =  1.0

     negative rho (up, down):  6.139E-02 5.472E-02
 
     Adding external electric field

     Computed dipole along edir(3) : 
        Dipole               -1.9850 Ry au,         -5.0454 Debye
        Dipole field         -0.0012 Ry au, 
 
        Potential amp.        0.1302 Ry
        Total length         54.7057 bohr
 
 
     Adding external electric field

     Computed dipole along edir(3) : 
        Dipole               -1.9850 Ry au,         -5.0454 Debye
        Dipole field         -0.0012 Ry au, 
 
        Potential amp.        0.1302 Ry
        Total length         54.7057 bohr
 

     total cpu time spent up to now is      374.0 secs

     total energy              =   -8078.62944894 Ry
     estimated scf accuracy    <       5.86228420 Ry

     total magnetization       =    91.64 Bohr mag/cell
     absolute magnetization    =    97.02 Bohr mag/cell

     iteration # 22     ecut=    50.00 Ry     beta= 0.10
     Davidson diagonalization with overlap
     ethr =  5.29E-04,  avg # of iterations =  1.0

     negative rho (up, down):  4.813E-02 3.807E-02
 
     Adding external electric field

     Computed dipole along edir(3) : 
        Dipole               -2.0049 Ry au,         -5.0961 Debye
        Dipole field         -0.0012 Ry au, 
 
        Potential amp.        0.1315 Ry
        Total length         54.7057 bohr
 
 
     Adding external electric field

     Computed dipole along edir(3) : 
        Dipole               -2.0049 Ry au,         -5.0961 Debye
        Dipole field         -0.0012 Ry au, 
 
        Potential amp.        0.1315 Ry
        Total length         54.7057 bohr
 

     total cpu time spent up to now is      388.4 secs

     total energy              =   -8078.30562662 Ry
     estimated scf accuracy    <       4.68543355 Ry

     total magnetization       =    91.56 Bohr mag/cell
     absolute magnetization    =    96.78 Bohr mag/cell

     iteration # 23     ecut=    50.00 Ry     beta= 0.10
     Davidson diagonalization with overlap
     ethr =  4.23E-04,  avg # of iterations =  1.5

     negative rho (up, down):  4.137E-02 3.454E-02
 
     Adding external electric field

     Computed dipole along edir(3) : 
        Dipole               -1.9063 Ry au,         -4.8453 Debye
        Dipole field         -0.0011 Ry au, 
 
        Potential amp.        0.1250 Ry
        Total length         54.7057 bohr
 
 
     Adding external electric field

     Computed dipole along edir(3) : 
        Dipole               -1.9063 Ry au,         -4.8453 Debye
        Dipole field         -0.0011 Ry au, 
 
        Potential amp.        0.1250 Ry
        Total length         54.7057 bohr
 

     total cpu time spent up to now is      403.6 secs

     total energy              =   -8078.49996085 Ry
     estimated scf accuracy    <       5.63257137 Ry

     total magnetization       =    91.58 Bohr mag/cell
     absolute magnetization    =    96.39 Bohr mag/cell

     iteration # 24     ecut=    50.00 Ry     beta= 0.10
     Davidson diagonalization with overlap
     ethr =  4.23E-04,  avg # of iterations =  1.0

     negative rho (up, down):  3.656E-02 3.213E-02
 
     Adding external electric field

     Computed dipole along edir(3) : 
        Dipole               -1.8261 Ry au,         -4.6414 Debye
        Dipole field         -0.0011 Ry au, 
 
        Potential amp.        0.1198 Ry
        Total length         54.7057 bohr
 
 
     Adding external electric field

     Computed dipole along edir(3) : 
        Dipole               -1.8261 Ry au,         -4.6414 Debye
        Dipole field         -0.0011 Ry au, 
 
        Potential amp.        0.1198 Ry
        Total length         54.7057 bohr
 

     total cpu time spent up to now is      417.5 secs

     total energy              =   -8078.53116833 Ry
     estimated scf accuracy    <       4.28547278 Ry

     total magnetization       =    91.81 Bohr mag/cell
     absolute magnetization    =    96.49 Bohr mag/cell

     iteration # 25     ecut=    50.00 Ry     beta= 0.10
     Davidson diagonalization with overlap
     ethr =  3.87E-04,  avg # of iterations =  1.5

     negative rho (up, down):  2.132E-02 2.753E-02
 
     Adding external electric field

     Computed dipole along edir(3) : 
        Dipole               -1.4746 Ry au,         -3.7480 Debye
        Dipole field         -0.0009 Ry au, 
 
        Potential amp.        0.0967 Ry
        Total length         54.7057 bohr
 
 
     Adding external electric field

     Computed dipole along edir(3) : 
        Dipole               -1.4746 Ry au,         -3.7480 Debye
        Dipole field         -0.0009 Ry au, 
 
        Potential amp.        0.0967 Ry
        Total length         54.7057 bohr
 

     total cpu time spent up to now is      433.8 secs

     total energy              =   -8078.48664910 Ry
     estimated scf accuracy    <       3.58465871 Ry

     total magnetization       =    92.07 Bohr mag/cell
     absolute magnetization    =    96.32 Bohr mag/cell

     iteration # 26     ecut=    50.00 Ry     beta= 0.10
     Davidson diagonalization with overlap
     ethr =  3.24E-04,  avg # of iterations =  1.0

     negative rho (up, down):  1.847E-02 2.411E-02
 
     Adding external electric field

     Computed dipole along edir(3) : 
        Dipole               -1.4521 Ry au,         -3.6908 Debye
        Dipole field         -0.0009 Ry au, 
 
        Potential amp.        0.0952 Ry
        Total length         54.7057 bohr
 
 
     Adding external electric field

     Computed dipole along edir(3) : 
        Dipole               -1.4521 Ry au,         -3.6908 Debye
        Dipole field         -0.0009 Ry au, 
 
        Potential amp.        0.0952 Ry
        Total length         54.7057 bohr
 

     total cpu time spent up to now is      449.3 secs

     total energy              =   -8078.54048977 Ry
     estimated scf accuracy    <       0.87156854 Ry

     total magnetization       =    93.85 Bohr mag/cell
     absolute magnetization    =    96.19 Bohr mag/cell

     iteration # 27     ecut=    50.00 Ry     beta= 0.10
     Davidson diagonalization with overlap
     ethr =  7.87E-05,  avg # of iterations = 10.5

     negative rho (up, down):  9.491E-03 1.307E-02
 
     Adding external electric field

     Computed dipole along edir(3) : 
        Dipole               -1.3750 Ry au,         -3.4948 Debye
        Dipole field         -0.0008 Ry au, 
 
        Potential amp.        0.0902 Ry
        Total length         54.7057 bohr
 
 
     Adding external electric field

     Computed dipole along edir(3) : 
        Dipole               -1.3750 Ry au,         -3.4948 Debye
        Dipole field         -0.0008 Ry au, 
 
        Potential amp.        0.0902 Ry
        Total length         54.7057 bohr
 

     total cpu time spent up to now is      471.6 secs

     total energy              =   -8078.51532838 Ry
     estimated scf accuracy    <       0.55043928 Ry

     total magnetization       =    94.59 Bohr mag/cell
     absolute magnetization    =    96.69 Bohr mag/cell

     iteration # 28     ecut=    50.00 Ry     beta= 0.10
     Davidson diagonalization with overlap
     ethr =  4.97E-05,  avg # of iterations =  3.0

     negative rho (up, down):  6.786E-03 1.012E-02
 
     Adding external electric field

     Computed dipole along edir(3) : 
        Dipole               -1.3163 Ry au,         -3.3457 Debye
        Dipole field         -0.0008 Ry au, 
 
        Potential amp.        0.0863 Ry
        Total length         54.7057 bohr
 
 
     Adding external electric field

     Computed dipole along edir(3) : 
        Dipole               -1.3163 Ry au,         -3.3457 Debye
        Dipole field         -0.0008 Ry au, 
 
        Potential amp.        0.0863 Ry
        Total length         54.7057 bohr
 

     total cpu time spent up to now is      489.1 secs

     total energy              =   -8078.53286561 Ry
     estimated scf accuracy    <       0.22021781 Ry

     total magnetization       =    96.06 Bohr mag/cell
     absolute magnetization    =    97.66 Bohr mag/cell

     iteration # 29     ecut=    50.00 Ry     beta= 0.10
     Davidson diagonalization with overlap
     c_bands:  3 eigenvalues not converged
     ethr =  1.99E-05,  avg # of iterations = 21.0

     negative rho (up, down):  3.003E-03 4.539E-03
 
     Adding external electric field

     Computed dipole along edir(3) : 
        Dipole               -1.2233 Ry au,         -3.1092 Debye
        Dipole field         -0.0007 Ry au, 
 
        Potential amp.        0.0802 Ry
        Total length         54.7057 bohr
 
 
     Adding external electric field

     Computed dipole along edir(3) : 
        Dipole               -1.2233 Ry au,         -3.1092 Debye
        Dipole field         -0.0007 Ry au, 
 
        Potential amp.        0.0802 Ry
        Total length         54.7057 bohr
 

     total cpu time spent up to now is      527.9 secs

     total energy              =   -8078.54967315 Ry
     estimated scf accuracy    <       0.15505113 Ry

     total magnetization       =    96.47 Bohr mag/cell
     absolute magnetization    =    97.88 Bohr mag/cell

     iteration # 30     ecut=    50.00 Ry     beta= 0.10
     Davidson diagonalization with overlap
     ethr =  1.40E-05,  avg # of iterations = 12.0

     negative rho (up, down):  2.141E-03 2.067E-03
 
     Adding external electric field

     Computed dipole along edir(3) : 
        Dipole               -1.1496 Ry au,         -2.9220 Debye
        Dipole field         -0.0007 Ry au, 
 
        Potential amp.        0.0754 Ry
        Total length         54.7057 bohr
 
 
     Adding external electric field

     Computed dipole along edir(3) : 
        Dipole               -1.1496 Ry au,         -2.9220 Debye
        Dipole field         -0.0007 Ry au, 
 
        Potential amp.        0.0754 Ry
        Total length         54.7057 bohr
 

     total cpu time spent up to now is      559.5 secs

     total energy              =   -8078.55931194 Ry
     estimated scf accuracy    <       0.13842593 Ry

     total magnetization       =    96.86 Bohr mag/cell
     absolute magnetization    =    98.05 Bohr mag/cell

     iteration # 31     ecut=    50.00 Ry     beta= 0.10
     Davidson diagonalization with overlap
     ethr =  1.25E-05,  avg # of iterations =  2.0

     negative rho (up, down):  2.478E-03 1.980E-03
 
     Adding external electric field

     Computed dipole along edir(3) : 
        Dipole               -1.1054 Ry au,         -2.8096 Debye
        Dipole field         -0.0007 Ry au, 
 
        Potential amp.        0.0725 Ry
        Total length         54.7057 bohr
 
 
     Adding external electric field

     Computed dipole along edir(3) : 
        Dipole               -1.1054 Ry au,         -2.8096 Debye
        Dipole field         -0.0007 Ry au, 
 
        Potential amp.        0.0725 Ry
        Total length         54.7057 bohr
 

     total cpu time spent up to now is      576.9 secs

     total energy              =   -8078.56239506 Ry
     estimated scf accuracy    <       0.06780950 Ry

     total magnetization       =    97.16 Bohr mag/cell
     absolute magnetization    =    98.21 Bohr mag/cell

     iteration # 32     ecut=    50.00 Ry     beta= 0.10
     Davidson diagonalization with overlap
     ethr =  6.12E-06,  avg # of iterations =  2.0

     negative rho (up, down):  2.554E-03 1.985E-03
 
     Adding external electric field

     Computed dipole along edir(3) : 
        Dipole               -1.0814 Ry au,         -2.7485 Debye
        Dipole field         -0.0006 Ry au, 
 
        Potential amp.        0.0709 Ry
        Total length         54.7057 bohr
 
 
     Adding external electric field

     Computed dipole along edir(3) : 
        Dipole               -1.0814 Ry au,         -2.7485 Debye
        Dipole field         -0.0006 Ry au, 
 
        Potential amp.        0.0709 Ry
        Total length         54.7057 bohr
 

     total cpu time spent up to now is      594.3 secs

     total energy              =   -8078.56311704 Ry
     estimated scf accuracy    <       0.05082437 Ry

     total magnetization       =    97.16 Bohr mag/cell
     absolute magnetization    =    98.20 Bohr mag/cell

     iteration # 33     ecut=    50.00 Ry     beta= 0.10
     Davidson diagonalization with overlap
     c_bands:  2 eigenvalues not converged
     ethr =  4.59E-06,  avg # of iterations = 11.0

     negative rho (up, down):  2.198E-03 1.658E-03
 
     Adding external electric field

     Computed dipole along edir(3) : 
        Dipole               -0.9816 Ry au,         -2.4949 Debye
        Dipole field         -0.0006 Ry au, 
 
        Potential amp.        0.0644 Ry
        Total length         54.7057 bohr
 
 
     Adding external electric field

     Computed dipole along edir(3) : 
        Dipole               -0.9816 Ry au,         -2.4949 Debye
        Dipole field         -0.0006 Ry au, 
 
        Potential amp.        0.0644 Ry
        Total length         54.7057 bohr
 

     total cpu time spent up to now is      617.1 secs

     total energy              =   -8078.56262499 Ry
     estimated scf accuracy    <       0.04853064 Ry

     total magnetization       =    97.16 Bohr mag/cell
     absolute magnetization    =    98.21 Bohr mag/cell

     iteration # 34     ecut=    50.00 Ry     beta= 0.10
     Davidson diagonalization with overlap
     ethr =  4.38E-06,  avg # of iterations = 19.5

     negative rho (up, down):  2.527E-03 1.877E-03
 
     Adding external electric field

     Computed dipole along edir(3) : 
        Dipole               -0.9109 Ry au,         -2.3153 Debye
        Dipole field         -0.0005 Ry au, 
 
        Potential amp.        0.0597 Ry
        Total length         54.7057 bohr
 
 
     Adding external electric field

     Computed dipole along edir(3) : 
        Dipole               -0.9109 Ry au,         -2.3153 Debye
        Dipole field         -0.0005 Ry au, 
 
        Potential amp.        0.0597 Ry
        Total length         54.7057 bohr
 

     total cpu time spent up to now is      653.3 secs

     total energy              =   -8078.56195743 Ry
     estimated scf accuracy    <       0.05514548 Ry

     total magnetization       =    97.16 Bohr mag/cell
     absolute magnetization    =    98.24 Bohr mag/cell

     iteration # 35     ecut=    50.00 Ry     beta= 0.10
     Davidson diagonalization with overlap
     ethr =  4.38E-06,  avg # of iterations =  2.0

     negative rho (up, down):  3.435E-03 2.636E-03
 
     Adding external electric field

     Computed dipole along edir(3) : 
        Dipole               -0.8729 Ry au,         -2.2188 Debye
        Dipole field         -0.0005 Ry au, 
 
        Potential amp.        0.0573 Ry
        Total length         54.7057 bohr
 
 
     Adding external electric field

     Computed dipole along edir(3) : 
        Dipole               -0.8729 Ry au,         -2.2188 Debye
        Dipole field         -0.0005 Ry au, 
 
        Potential amp.        0.0573 Ry
        Total length         54.7057 bohr
 

     total cpu time spent up to now is      670.6 secs

     total energy              =   -8078.56133946 Ry
     estimated scf accuracy    <       0.05570710 Ry

     total magnetization       =    97.19 Bohr mag/cell
     absolute magnetization    =    98.32 Bohr mag/cell

     iteration # 36     ecut=    50.00 Ry     beta= 0.10
     Davidson diagonalization with overlap
     ethr =  4.38E-06,  avg # of iterations =  2.0

     negative rho (up, down):  2.374E-03 1.710E-03
 
     Adding external electric field

     Computed dipole along edir(3) : 
        Dipole               -0.9061 Ry au,         -2.3031 Debye
        Dipole field         -0.0005 Ry au, 
 
        Potential amp.        0.0594 Ry
        Total length         54.7057 bohr
 
 
     Adding external electric field

     Computed dipole along edir(3) : 
        Dipole               -0.9061 Ry au,         -2.3031 Debye
        Dipole field         -0.0005 Ry au, 
 
        Potential amp.        0.0594 Ry
        Total length         54.7057 bohr
 

     total cpu time spent up to now is      686.8 secs

     total energy              =   -8078.56223035 Ry
     estimated scf accuracy    <       0.05394079 Ry

     total magnetization       =    97.18 Bohr mag/cell
     absolute magnetization    =    98.37 Bohr mag/cell

     iteration # 37     ecut=    50.00 Ry     beta= 0.10
     Davidson diagonalization with overlap
     ethr =  4.38E-06,  avg # of iterations =  2.0

     negative rho (up, down):  3.679E-03 2.780E-03
 
     Adding external electric field

     Computed dipole along edir(3) : 
        Dipole               -0.9154 Ry au,         -2.3267 Debye
        Dipole field         -0.0005 Ry au, 
 
        Potential amp.        0.0600 Ry
        Total length         54.7057 bohr
 
 
     Adding external electric field

     Computed dipole along edir(3) : 
        Dipole               -0.9154 Ry au,         -2.3267 Debye
        Dipole field         -0.0005 Ry au, 
 
        Potential amp.        0.0600 Ry
        Total length         54.7057 bohr
 

     total cpu time spent up to now is      703.5 secs

     total energy              =   -8078.56077561 Ry
     estimated scf accuracy    <       0.05699226 Ry

     total magnetization       =    97.20 Bohr mag/cell
     absolute magnetization    =    98.34 Bohr mag/cell

     iteration # 38     ecut=    50.00 Ry     beta= 0.10
     Davidson diagonalization with overlap
     ethr =  4.38E-06,  avg # of iterations =  1.5

     negative rho (up, down):  4.221E-03 3.284E-03
 
     Adding external electric field

     Computed dipole along edir(3) : 
        Dipole               -0.9244 Ry au,         -2.3495 Debye
        Dipole field         -0.0006 Ry au, 
 
        Potential amp.        0.0606 Ry
        Total length         54.7057 bohr
 
 
     Adding external electric field

     Computed dipole along edir(3) : 
        Dipole               -0.9244 Ry au,         -2.3495 Debye
        Dipole field         -0.0006 Ry au, 
 
        Potential amp.        0.0606 Ry
        Total length         54.7057 bohr
 

     total cpu time spent up to now is      719.3 secs

     total energy              =   -8078.56116611 Ry
     estimated scf accuracy    <       0.05013049 Ry

     total magnetization       =    97.20 Bohr mag/cell
     absolute magnetization    =    98.37 Bohr mag/cell

     iteration # 39     ecut=    50.00 Ry     beta= 0.10
     Davidson diagonalization with overlap
     ethr =  4.38E-06,  avg # of iterations =  1.5

     negative rho (up, down):  3.903E-03 3.067E-03
 
     Adding external electric field

     Computed dipole along edir(3) : 
        Dipole               -0.9530 Ry au,         -2.4224 Debye
        Dipole field         -0.0006 Ry au, 
 
        Potential amp.        0.0625 Ry
        Total length         54.7057 bohr
 
 
     Adding external electric field

     Computed dipole along edir(3) : 
        Dipole               -0.9530 Ry au,         -2.4224 Debye
        Dipole field         -0.0006 Ry au, 
 
        Potential amp.        0.0625 Ry
        Total length         54.7057 bohr
 

     total cpu time spent up to now is      735.3 secs

     total energy              =   -8078.56170314 Ry
     estimated scf accuracy    <       0.04837696 Ry

     total magnetization       =    97.15 Bohr mag/cell
     absolute magnetization    =    98.33 Bohr mag/cell

     iteration # 40     ecut=    50.00 Ry     beta= 0.10
     Davidson diagonalization with overlap
     ethr =  4.37E-06,  avg # of iterations =  1.0

     negative rho (up, down):  4.545E-03 3.410E-03
 
     Adding external electric field

     Computed dipole along edir(3) : 
        Dipole               -0.9249 Ry au,         -2.3509 Debye
        Dipole field         -0.0006 Ry au, 
 
        Potential amp.        0.0607 Ry
        Total length         54.7057 bohr
 
 
     Adding external electric field

     Computed dipole along edir(3) : 
        Dipole               -0.9249 Ry au,         -2.3509 Debye
        Dipole field         -0.0006 Ry au, 
 
        Potential amp.        0.0607 Ry
        Total length         54.7057 bohr
 

     total cpu time spent up to now is      750.1 secs

     total energy              =   -8078.56033072 Ry
     estimated scf accuracy    <       0.04702632 Ry

     total magnetization       =    97.15 Bohr mag/cell
     absolute magnetization    =    98.34 Bohr mag/cell

     iteration # 41     ecut=    50.00 Ry     beta= 0.10
     Davidson diagonalization with overlap
     ethr =  4.24E-06,  avg # of iterations =  1.5

     negative rho (up, down):  4.095E-03 2.768E-03
 
     Adding external electric field

     Computed dipole along edir(3) : 
        Dipole               -0.9105 Ry au,         -2.3143 Debye
        Dipole field         -0.0005 Ry au, 
 
        Potential amp.        0.0597 Ry
        Total length         54.7057 bohr
 
 
     Adding external electric field

     Computed dipole along edir(3) : 
        Dipole               -0.9105 Ry au,         -2.3143 Debye
        Dipole field         -0.0005 Ry au, 
 
        Potential amp.        0.0597 Ry
        Total length         54.7057 bohr
 

     total cpu time spent up to now is      766.0 secs

     total energy              =   -8078.55928437 Ry
     estimated scf accuracy    <       0.04461023 Ry

     total magnetization       =    97.18 Bohr mag/cell
     absolute magnetization    =    98.35 Bohr mag/cell

     iteration # 42     ecut=    50.00 Ry     beta= 0.10
     Davidson diagonalization with overlap
     ethr =  4.03E-06,  avg # of iterations =  1.5

     negative rho (up, down):  6.052E-03 4.757E-03
 
     Adding external electric field

     Computed dipole along edir(3) : 
        Dipole               -0.8236 Ry au,         -2.0935 Debye
        Dipole field         -0.0005 Ry au, 
 
        Potential amp.        0.0540 Ry
        Total length         54.7057 bohr
 
 
     Adding external electric field

     Computed dipole along edir(3) : 
        Dipole               -0.8236 Ry au,         -2.0935 Debye
        Dipole field         -0.0005 Ry au, 
 
        Potential amp.        0.0540 Ry
        Total length         54.7057 bohr
 

     total cpu time spent up to now is      782.0 secs

     total energy              =   -8078.55969067 Ry
     estimated scf accuracy    <       0.04095361 Ry

     total magnetization       =    97.22 Bohr mag/cell
     absolute magnetization    =    98.35 Bohr mag/cell

     iteration # 43     ecut=    50.00 Ry     beta= 0.10
     Davidson diagonalization with overlap
     ethr =  3.70E-06,  avg # of iterations =  2.0

     negative rho (up, down):  5.437E-03 4.128E-03
 
     Adding external electric field

     Computed dipole along edir(3) : 
        Dipole               -0.8392 Ry au,         -2.1331 Debye
        Dipole field         -0.0005 Ry au, 
 
        Potential amp.        0.0550 Ry
        Total length         54.7057 bohr
 
 
     Adding external electric field

     Computed dipole along edir(3) : 
        Dipole               -0.8392 Ry au,         -2.1331 Debye
        Dipole field         -0.0005 Ry au, 
 
        Potential amp.        0.0550 Ry
        Total length         54.7057 bohr
 

     total cpu time spent up to now is      798.0 secs

     total energy              =   -8078.55985990 Ry
     estimated scf accuracy    <       0.03923938 Ry

     total magnetization       =    97.08 Bohr mag/cell
     absolute magnetization    =    98.24 Bohr mag/cell

     iteration # 44     ecut=    50.00 Ry     beta= 0.10
     Davidson diagonalization with overlap
     ethr =  3.54E-06,  avg # of iterations =  1.0

     negative rho (up, down):  6.258E-03 5.239E-03
 
     Adding external electric field

     Computed dipole along edir(3) : 
        Dipole               -0.8116 Ry au,         -2.0630 Debye
        Dipole field         -0.0005 Ry au, 
 
        Potential amp.        0.0532 Ry
        Total length         54.7057 bohr
 
 
     Adding external electric field

     Computed dipole along edir(3) : 
        Dipole               -0.8116 Ry au,         -2.0630 Debye
        Dipole field         -0.0005 Ry au, 
 
        Potential amp.        0.0532 Ry
        Total length         54.7057 bohr
 

     total cpu time spent up to now is      812.2 secs

     total energy              =   -8078.56086416 Ry
     estimated scf accuracy    <       0.03889815 Ry

     total magnetization       =    97.10 Bohr mag/cell
     absolute magnetization    =    98.25 Bohr mag/cell

     iteration # 45     ecut=    50.00 Ry     beta= 0.10
     Davidson diagonalization with overlap
     ethr =  3.51E-06,  avg # of iterations =  1.5

     negative rho (up, down):  7.732E-03 6.547E-03
 
     Adding external electric field

     Computed dipole along edir(3) : 
        Dipole               -0.8506 Ry au,         -2.1619 Debye
        Dipole field         -0.0005 Ry au, 
 
        Potential amp.        0.0558 Ry
        Total length         54.7057 bohr
 
 
     Adding external electric field

     Computed dipole along edir(3) : 
        Dipole               -0.8506 Ry au,         -2.1619 Debye
        Dipole field         -0.0005 Ry au, 
 
        Potential amp.        0.0558 Ry
        Total length         54.7057 bohr
 

     total cpu time spent up to now is      828.1 secs

     total energy              =   -8078.56040652 Ry
     estimated scf accuracy    <       0.03955033 Ry

     total magnetization       =    97.08 Bohr mag/cell
     absolute magnetization    =    98.22 Bohr mag/cell

     iteration # 46     ecut=    50.00 Ry     beta= 0.10
     Davidson diagonalization with overlap
     ethr =  3.51E-06,  avg # of iterations =  1.0

     negative rho (up, down):  6.506E-03 5.369E-03
 
     Adding external electric field

     Computed dipole along edir(3) : 
        Dipole               -0.8170 Ry au,         -2.0766 Debye
        Dipole field         -0.0005 Ry au, 
 
        Potential amp.        0.0536 Ry
        Total length         54.7057 bohr
 
 
     Adding external electric field

     Computed dipole along edir(3) : 
        Dipole               -0.8170 Ry au,         -2.0766 Debye
        Dipole field         -0.0005 Ry au, 
 
        Potential amp.        0.0536 Ry
        Total length         54.7057 bohr
 

     total cpu time spent up to now is      842.2 secs

     total energy              =   -8078.56058961 Ry
     estimated scf accuracy    <       0.03804740 Ry

     total magnetization       =    97.08 Bohr mag/cell
     absolute magnetization    =    98.19 Bohr mag/cell

     iteration # 47     ecut=    50.00 Ry     beta= 0.10
     Davidson diagonalization with overlap
     ethr =  3.43E-06,  avg # of iterations =  1.5

     negative rho (up, down):  8.669E-03 7.228E-03
 
     Adding external electric field

     Computed dipole along edir(3) : 
        Dipole               -0.8010 Ry au,         -2.0359 Debye
        Dipole field         -0.0005 Ry au, 
 
        Potential amp.        0.0525 Ry
        Total length         54.7057 bohr
 
 
     Adding external electric field

     Computed dipole along edir(3) : 
        Dipole               -0.8010 Ry au,         -2.0359 Debye
        Dipole field         -0.0005 Ry au, 
 
        Potential amp.        0.0525 Ry
        Total length         54.7057 bohr
 

     total cpu time spent up to now is      857.6 secs

     total energy              =   -8078.55961823 Ry
     estimated scf accuracy    <       0.03762439 Ry

     total magnetization       =    97.10 Bohr mag/cell
     absolute magnetization    =    98.24 Bohr mag/cell

     iteration # 48     ecut=    50.00 Ry     beta= 0.10
     Davidson diagonalization with overlap
     ethr =  3.40E-06,  avg # of iterations =  1.0

     negative rho (up, down):  1.013E-02 8.659E-03
 
     Adding external electric field

     Computed dipole along edir(3) : 
        Dipole               -0.7393 Ry au,         -1.8792 Debye
        Dipole field         -0.0004 Ry au, 
 
        Potential amp.        0.0485 Ry
        Total length         54.7057 bohr
 
 
     Adding external electric field

     Computed dipole along edir(3) : 
        Dipole               -0.7393 Ry au,         -1.8792 Debye
        Dipole field         -0.0004 Ry au, 
 
        Potential amp.        0.0485 Ry
        Total length         54.7057 bohr
 

     total cpu time spent up to now is      872.2 secs

     total energy              =   -8078.55950626 Ry
     estimated scf accuracy    <       0.03558475 Ry

     total magnetization       =    97.13 Bohr mag/cell
     absolute magnetization    =    98.27 Bohr mag/cell

     iteration # 49     ecut=    50.00 Ry     beta= 0.10
     Davidson diagonalization with overlap
     ethr =  3.21E-06,  avg # of iterations =  2.0

     negative rho (up, down):  8.679E-03 7.457E-03
 
     Adding external electric field

     Computed dipole along edir(3) : 
        Dipole               -0.8068 Ry au,         -2.0506 Debye
        Dipole field         -0.0005 Ry au, 
 
        Potential amp.        0.0529 Ry
        Total length         54.7057 bohr
 
 
     Adding external electric field

     Computed dipole along edir(3) : 
        Dipole               -0.8068 Ry au,         -2.0506 Debye
        Dipole field         -0.0005 Ry au, 
 
        Potential amp.        0.0529 Ry
        Total length         54.7057 bohr
 

     total cpu time spent up to now is      889.1 secs

     total energy              =   -8078.56022871 Ry
     estimated scf accuracy    <       0.03646262 Ry

     total magnetization       =    97.11 Bohr mag/cell
     absolute magnetization    =    98.27 Bohr mag/cell

     iteration # 50     ecut=    50.00 Ry     beta= 0.10
     Davidson diagonalization with overlap
     ethr =  3.21E-06,  avg # of iterations =  1.5

     negative rho (up, down):  1.222E-02 1.028E-02
 
     Adding external electric field

     Computed dipole along edir(3) : 
        Dipole               -0.6725 Ry au,         -1.7093 Debye
        Dipole field         -0.0004 Ry au, 
 
        Potential amp.        0.0441 Ry
        Total length         54.7057 bohr
 
 
     Adding external electric field

     Computed dipole along edir(3) : 
        Dipole               -0.6725 Ry au,         -1.7093 Debye
        Dipole field         -0.0004 Ry au, 
 
        Potential amp.        0.0441 Ry
        Total length         54.7057 bohr
 

     total cpu time spent up to now is      904.9 secs

     total energy              =   -8078.55780692 Ry
     estimated scf accuracy    <       0.03842375 Ry

     total magnetization       =    97.14 Bohr mag/cell
     absolute magnetization    =    98.31 Bohr mag/cell

     iteration # 51     ecut=    50.00 Ry     beta= 0.10
     Davidson diagonalization with overlap
     ethr =  3.21E-06,  avg # of iterations =  2.0

     negative rho (up, down):  1.069E-02 9.136E-03
 
     Adding external electric field

     Computed dipole along edir(3) : 
        Dipole               -0.7036 Ry au,         -1.7885 Debye
        Dipole field         -0.0004 Ry au, 
 
        Potential amp.        0.0462 Ry
        Total length         54.7057 bohr
 
 
     Adding external electric field

     Computed dipole along edir(3) : 
        Dipole               -0.7036 Ry au,         -1.7885 Debye
        Dipole field         -0.0004 Ry au, 
 
        Potential amp.        0.0462 Ry
        Total length         54.7057 bohr
 

     total cpu time spent up to now is      920.4 secs

     total energy              =   -8078.55908995 Ry
     estimated scf accuracy    <       0.03938126 Ry

     total magnetization       =    97.18 Bohr mag/cell
     absolute magnetization    =    98.29 Bohr mag/cell

     iteration # 52     ecut=    50.00 Ry     beta= 0.10
     Davidson diagonalization with overlap
     ethr =  3.21E-06,  avg # of iterations =  1.0

     negative rho (up, down):  9.517E-03 7.988E-03
 
     Adding external electric field

     Computed dipole along edir(3) : 
        Dipole               -0.7134 Ry au,         -1.8133 Debye
        Dipole field         -0.0004 Ry au, 
 
        Potential amp.        0.0468 Ry
        Total length         54.7057 bohr
 
 
     Adding external electric field

     Computed dipole along edir(3) : 
        Dipole               -0.7134 Ry au,         -1.8133 Debye
        Dipole field         -0.0004 Ry au, 
 
        Potential amp.        0.0468 Ry
        Total length         54.7057 bohr
 

     total cpu time spent up to now is      935.3 secs

     total energy              =   -8078.55914625 Ry
     estimated scf accuracy    <       0.03784675 Ry

     total magnetization       =    97.14 Bohr mag/cell
     absolute magnetization    =    98.27 Bohr mag/cell

     iteration # 53     ecut=    50.00 Ry     beta= 0.10
     Davidson diagonalization with overlap
     ethr =  3.21E-06,  avg # of iterations =  2.0

     negative rho (up, down):  7.981E-03 6.459E-03
 
     Adding external electric field

     Computed dipole along edir(3) : 
        Dipole               -0.7307 Ry au,         -1.8573 Debye
        Dipole field         -0.0004 Ry au, 
 
        Potential amp.        0.0479 Ry
        Total length         54.7057 bohr
 
 
     Adding external electric field

     Computed dipole along edir(3) : 
        Dipole               -0.7307 Ry au,         -1.8573 Debye
        Dipole field         -0.0004 Ry au, 
 
        Potential amp.        0.0479 Ry
        Total length         54.7057 bohr
 

     total cpu time spent up to now is      951.8 secs

     total energy              =   -8078.55909313 Ry
     estimated scf accuracy    <       0.03834951 Ry

     total magnetization       =    97.14 Bohr mag/cell
     absolute magnetization    =    98.28 Bohr mag/cell

     iteration # 54     ecut=    50.00 Ry     beta= 0.10
     Davidson diagonalization with overlap
     ethr =  3.21E-06,  avg # of iterations =  1.5

     negative rho (up, down):  1.122E-02 9.724E-03
 
     Adding external electric field

     Computed dipole along edir(3) : 
        Dipole               -0.7030 Ry au,         -1.7870 Debye
        Dipole field         -0.0004 Ry au, 
 
        Potential amp.        0.0461 Ry
        Total length         54.7057 bohr
 
 
     Adding external electric field

     Computed dipole along edir(3) : 
        Dipole               -0.7030 Ry au,         -1.7870 Debye
        Dipole field         -0.0004 Ry au, 
 
        Potential amp.        0.0461 Ry
        Total length         54.7057 bohr
 

     total cpu time spent up to now is      968.0 secs

     total energy              =   -8078.55922409 Ry
     estimated scf accuracy    <       0.03884680 Ry

     total magnetization       =    97.16 Bohr mag/cell
     absolute magnetization    =    98.29 Bohr mag/cell

     iteration # 55     ecut=    50.00 Ry     beta= 0.10
     Davidson diagonalization with overlap
     ethr =  3.21E-06,  avg # of iterations =  2.0

     negative rho (up, down):  1.154E-02 9.906E-03
 
     Adding external electric field

     Computed dipole along edir(3) : 
        Dipole               -0.7188 Ry au,         -1.8269 Debye
        Dipole field         -0.0004 Ry au, 
 
        Potential amp.        0.0471 Ry
        Total length         54.7057 bohr
 
 
     Adding external electric field

     Computed dipole along edir(3) : 
        Dipole               -0.7188 Ry au,         -1.8269 Debye
        Dipole field         -0.0004 Ry au, 
 
        Potential amp.        0.0471 Ry
        Total length         54.7057 bohr
 

     total cpu time spent up to now is      984.0 secs

     total energy              =   -8078.55902661 Ry
     estimated scf accuracy    <       0.03763819 Ry

     total magnetization       =    97.14 Bohr mag/cell
     absolute magnetization    =    98.27 Bohr mag/cell

     iteration # 56     ecut=    50.00 Ry     beta= 0.10
     Davidson diagonalization with overlap
     ethr =  3.21E-06,  avg # of iterations =  1.5

     negative rho (up, down):  9.952E-03 8.621E-03
 
     Adding external electric field

     Computed dipole along edir(3) : 
        Dipole               -0.6856 Ry au,         -1.7426 Debye
        Dipole field         -0.0004 Ry au, 
 
        Potential amp.        0.0450 Ry
        Total length         54.7057 bohr
 
 
     Adding external electric field

     Computed dipole along edir(3) : 
        Dipole               -0.6856 Ry au,         -1.7426 Debye
        Dipole field         -0.0004 Ry au, 
 
        Potential amp.        0.0450 Ry
        Total length         54.7057 bohr
 

     total cpu time spent up to now is      999.4 secs

     total energy              =   -8078.55993313 Ry
     estimated scf accuracy    <       0.03689571 Ry

     total magnetization       =    97.09 Bohr mag/cell
     absolute magnetization    =    98.23 Bohr mag/cell

     iteration # 57     ecut=    50.00 Ry     beta= 0.10
     Davidson diagonalization with overlap
     ethr =  3.21E-06,  avg # of iterations =  2.0

     negative rho (up, down):  1.416E-02 1.276E-02
 
     Adding external electric field

     Computed dipole along edir(3) : 
        Dipole               -0.6671 Ry au,         -1.6957 Debye
        Dipole field         -0.0004 Ry au, 
 
        Potential amp.        0.0438 Ry
        Total length         54.7057 bohr
 
 
     Adding external electric field

     Computed dipole along edir(3) : 
        Dipole               -0.6671 Ry au,         -1.6957 Debye
        Dipole field         -0.0004 Ry au, 
 
        Potential amp.        0.0438 Ry
        Total length         54.7057 bohr
 

     total cpu time spent up to now is     1016.0 secs

     total energy              =   -8078.55918437 Ry
     estimated scf accuracy    <       0.03949252 Ry

     total magnetization       =    97.04 Bohr mag/cell
     absolute magnetization    =    98.19 Bohr mag/cell

     iteration # 58     ecut=    50.00 Ry     beta= 0.10
     Davidson diagonalization with overlap
     ethr =  3.21E-06,  avg # of iterations =  1.0

     negative rho (up, down):  1.104E-02 9.697E-03
 
     Adding external electric field

     Computed dipole along edir(3) : 
        Dipole               -0.7711 Ry au,         -1.9600 Debye
        Dipole field         -0.0005 Ry au, 
 
        Potential amp.        0.0506 Ry
[...]
    -6.0051  -5.9944  -5.9825  -5.9603  -5.9153  -5.9063  -5.8678  -5.8633
    -5.8577  -5.8370  -5.8169  -5.7833  -5.7707  -5.7621  -5.7003  -5.6857
    -5.6782  -5.6548  -5.6274  -5.6242  -5.5942  -5.5893  -5.5732  -5.5584
    -5.5505  -5.5198  -5.5089  -5.4959  -5.4908  -5.4855  -5.4673  -5.3825
    -5.3523  -5.3185  -5.2817  -5.2609  -5.2560  -5.2509  -5.2366  -5.1751
    -5.1622  -5.1239  -5.0825  -5.0537  -5.0428  -5.0017  -4.9291  -4.9215
    -4.8769  -4.8578  -4.8401  -4.8044  -4.7952  -4.7626  -4.7485  -4.7229
    -4.6671  -4.6418  -4.6117  -4.5839  -4.5529  -4.4758  -4.4542  -4.4123
    -4.3935  -4.3923  -4.3309  -4.3029  -4.2874  -4.2438  -4.2246  -4.2010
    -4.1960  -4.1602  -4.1171  -4.0805  -4.0570  -4.0047  -4.0032  -3.9762
    -3.9021  -3.8622  -3.8540  -3.8371  -3.8228  -3.7770  -3.7566  -3.7419
    -3.7364  -3.7198  -3.6883  -3.6842  -3.6283  -3.6232  -3.6041  -3.6016
    -3.5559  -3.5334  -3.5298  -3.5266  -3.5077  -3.4968  -3.4685  -3.4347
    -3.4254  -3.4179  -3.3962  -3.3837  -3.3762  -3.3496  -3.3354  -3.3226
    -3.2984  -3.2945  -3.2756  -3.2445  -3.2360  -3.2227  -3.1841  -3.1619
    -3.1443  -3.1081  -3.0822  -3.0754  -3.0592  -3.0432  -3.0302  -3.0069
    -2.9886  -2.9561  -2.9431  -2.9169  -2.8998  -2.8687  -2.8614  -2.8335
    -2.8193  -2.7869  -2.7538  -2.7231  -2.7127  -2.7036  -2.6896  -2.6853
    -2.6801  -2.6673  -2.6560  -2.6393  -2.6302  -2.6204  -2.6021  -2.5853
    -2.5659  -2.5479  -2.5346  -2.5266  -2.5144  -2.5033  -2.4849  -2.4627
    -2.4482  -2.4371  -2.4015  -2.3949  -2.3744  -2.3556  -2.3513  -2.3233
    -2.3047  -2.2929  -2.2851  -2.2688  -2.2460  -2.2145  -2.2060  -2.1864
    -2.1666  -2.1559  -2.1432  -2.1043  -2.0930  -2.0664  -2.0498  -2.0300
    -2.0185  -2.0132  -1.9902  -1.9701  -1.9666  -1.9329  -1.9119  -1.8874
    -1.8828  -1.8707  -1.8643  -1.8456  -1.8354  -1.8237  -1.8137  -1.8021
    -1.7333  -1.7185  -1.6880  -1.6690  -1.6399  -1.6349  -1.6290  -1.6120
    -1.6050  -1.5905  -1.5840  -1.5428  -1.5331  -1.5220  -1.4858  -1.4650
    -1.4468  -1.4310  -1.4115  -1.3899  -1.3767  -1.3557  -1.3437  -1.3329
    -1.3148  -1.3102  -1.2699  -1.2251  -1.1821  -1.1677  -1.1535  -1.1179
    -1.0754  -1.0426  -1.0105  -1.0062  -0.9984  -0.8935  -0.8474  -0.8041
    -0.7578  -0.6610  -0.6194  -0.6007  -0.4612  -0.4181  -0.2796  -0.1933
     0.1735   0.1903   0.2292   0.2503   0.2614   0.2798   0.2889   0.3012
     0.3088   0.3199   0.3368   0.3650   0.3771   0.3793   0.3836   0.3961
     0.4007   0.4051   0.4139   0.4287   0.4359   0.4526   0.4603   0.4622
     0.4747   0.4790   0.4852   0.4913   0.4979   0.5031   0.5112   0.5198
     0.5282   0.5332   0.5475   0.5530   0.5588   0.5708   0.5800   0.5936
     0.5995   0.6065   0.6213   0.6286   0.6323   0.6402   0.6547   0.6591
     0.6674   0.6720   0.6792   0.7142   0.7164   0.7260   0.7288   0.7371
     0.7438   0.7599   0.7707   0.7809   0.8034   0.8053   0.8096   0.8178
     0.8311   0.8375   0.8444   0.8660   0.8708   0.8768   0.8807   0.9011
     0.9032   0.9767   0.9872   1.0233   1.0397   1.0677   1.1265   1.1457
     1.6844   1.7573   1.7689   1.7783   1.7931   1.8227   1.8318   1.8731
     1.8840   1.8911   1.9242   1.9635   1.9757   1.9817   1.9959   2.0256
     2.0470   2.0755   2.0867   2.0960   2.1051   2.1091   2.1473   2.1533
     2.1750   2.1958   2.2012   2.2095   2.2201   2.2374   2.2565   2.2741
     2.2849   2.3008   2.3047   2.3366   2.3598   2.3746   2.4101   2.4416
     2.4508   2.4625   2.4784   2.4991   2.5123   2.5171   2.5648   2.5999
     2.6142   2.6557   2.7378   2.7992   2.8364   2.8567   2.8593   3.4146
     3.4818   3.6761   3.6906   3.7022   3.7540   3.7834   3.8466   3.8764
     3.8829   3.9146   3.9393   3.9490   3.9699   4.0015   4.0184   4.0272
     4.0643   4.0795   4.0850   4.0946   4.1052   4.1360   4.1466   4.1611
     4.2021   4.2206   4.2468   4.2647   4.3021   4.5963   4.6069   4.7784
     4.7911   4.8458   4.8823   4.8945   4.9603   4.9794   4.9870   5.0300
     5.0653   5.0877   5.1419   5.1668   5.2080   5.2173   5.3813   6.1732
     6.3538   6.4388   6.5754   6.6879   6.7166   6.7636   6.8043   6.9000
     6.9238   6.9547   7.0141   7.0437   7.2221   7.2829   7.3216   7.3505
     7.3797   7.4228   7.4753   7.5161   7.5431   7.5870   7.7020   7.7191
     7.8208   7.8310   7.8988   7.9236   7.9568   7.9984   8.0115   8.0444
     8.0616   8.0795   8.1161   8.1627   8.1761   8.2070   8.2318   8.2991
     8.3159   8.3371   8.3583   8.3675   8.3936   8.3995   8.4154   8.4257
     8.4598   8.4766   8.5095   8.5322   8.5643   8.5753   8.6001   8.6445
     8.6577

     the Fermi energy is     1.6858 ev

!    total energy              =   -8078.56144247 Ry
     estimated scf accuracy    <       0.00000053 Ry
     smearing contrib. (-TS)   =      -0.02495481 Ry
     internal energy E=F+TS    =   -8078.53648766 Ry

     The total energy is F=E-TS. E is the sum of the following terms:
     one-electron contribution =  -94749.61534317 Ry
     hartree contribution      =   47959.30673907 Ry
     xc contribution           =   -2177.37225559 Ry
     ewald contribution        =   40890.91470793 Ry
     Dispersion Correction     =      -1.77035083 Ry
     electric field correction =       0.00001492 Ry

     total magnetization       =    97.11 Bohr mag/cell
     absolute magnetization    =    98.32 Bohr mag/cell

     convergence has been achieved in  98 iterations

     negative rho (up, down):  1.167E-03 6.275E-04

     Forces acting on atoms (cartesian axes, Ry/au):

     atom    1 type  1   force =     0.02424019   -0.01784192    0.01987885
     atom    2 type  1   force =    -0.00195173    0.00023861   -0.00558109
     atom    3 type  2   force =    -0.03023989   -0.01551536   -0.00877102
     atom    4 type  1   force =     0.00195744   -0.00343009   -0.00457284
     atom    5 type  1   force =    -0.00378257    0.00205123   -0.00192992
     atom    6 type  1   force =     0.00252056    0.00766351   -0.00440945
     atom    7 type  1   force =     0.03195936   -0.01968515    0.01766136
     atom    8 type  2   force =    -0.00188211    0.00027866   -0.00921943
     atom    9 type  2   force =    -0.02887775   -0.01514564   -0.00878092
     atom   10 type  1   force =     0.00191027   -0.00309964   -0.00430892
     atom   11 type  1   force =    -0.00339694    0.00240511   -0.00103611
     atom   12 type  1   force =     0.00364753    0.00707932   -0.00389754
     atom   13 type  3   force =     0.00211965    0.00070913   -0.00759046
     atom   14 type  3   force =    -0.02976790    0.04992767   -0.06596041
     atom   15 type  3   force =     0.03466826    0.03760580   -0.05983089
     atom   16 type  3   force =    -0.00431590    0.00309533   -0.00095202
     atom   17 type  4   force =    -0.00200525    0.00134900    0.00275852
     atom   18 type  4   force =    -0.00161082   -0.00515610    0.02733767
     atom   19 type  4   force =     0.00400324    0.00284765    0.02953102
     atom   20 type  4   force =     0.00007903   -0.00273673   -0.00487817
     atom   21 type  4   force =    -0.00303312   -0.00229923    0.00337607
     atom   22 type  4   force =     0.00473934   -0.00331200    0.03431079
     atom   23 type  4   force =    -0.00597922   -0.00106806    0.03240999
     atom   24 type  4   force =     0.00070249   -0.00100429    0.00010986
     atom   25 type  4   force =    -0.00132976    0.00085202    0.00218605
     atom   26 type  4   force =    -0.01451329   -0.02275686   -0.00182152
     atom   27 type  4   force =     0.00176146   -0.00069245    0.00119521
     atom   28 type  4   force =    -0.01770373    0.00339475    0.00119065
     atom   29 type  4   force =     0.02064973   -0.00457224    0.00829013
     atom   30 type  4   force =     0.01241216   -0.03408561    0.00113532
     atom   31 type  4   force =     0.00048688    0.00099714    0.00232957
     atom   32 type  4   force =    -0.00209049    0.00004968    0.00266481
     atom   33 type  3   force =    -0.00052605   -0.00171218   -0.00507248
     atom   34 type  3   force =    -0.03022221    0.05983687   -0.08315198
     atom   35 type  3   force =     0.03457918    0.03336674   -0.05931953
     atom   36 type  3   force =    -0.00392629    0.00477926   -0.00069170
     atom   37 type  4   force =    -0.00106887    0.00135018    0.00306472
     atom   38 type  4   force =    -0.00308258   -0.00556190    0.03292600
     atom   39 type  4   force =     0.00444795    0.00398684    0.02934016
     atom   40 type  4   force =     0.00035060   -0.00334471   -0.00491222
     atom   41 type  4   force =    -0.00005129    0.00005708    0.00355910
     atom   42 type  4   force =     0.00543526    0.00025853    0.02004013
     atom   43 type  4   force =    -0.00177681    0.00039297    0.03453774
     atom   44 type  4   force =     0.00100369   -0.00090598    0.00005448
     atom   45 type  4   force =    -0.00018585   -0.00268624    0.00127990
     atom   46 type  4   force =    -0.01510648   -0.02038441   -0.00047729
     atom   47 type  4   force =     0.00176132   -0.00062099    0.00128204
     atom   48 type  4   force =    -0.01803608    0.00401822    0.00163334
     atom   49 type  4   force =     0.01645452   -0.00275064    0.00500727
     atom   50 type  4   force =     0.01179125   -0.03678154    0.00436699
     atom   51 type  4   force =     0.00102789    0.00105699    0.00173022
     atom   52 type  4   force =     0.00099351   -0.00222094    0.00362520
     atom   53 type  1   force =     0.00166528    0.00043508   -0.00090402
     atom   54 type  1   force =     0.00140950    0.00064746   -0.00043724
     atom   55 type  2   force =    -0.00023937   -0.00051528   -0.00022188
     atom   56 type  1   force =    -0.00081216    0.00135379    0.00023720
     atom   57 type  1   force =    -0.00020657    0.00029732    0.00018367
     atom   58 type  1   force =     0.00041691   -0.00027286    0.00023884
     atom   59 type  1   force =     0.00034537    0.00079344   -0.00084802
     atom   60 type  2   force =    -0.00165994   -0.00141442    0.00596015
     atom   61 type  2   force =    -0.00020858   -0.00016040    0.00009142
     atom   62 type  1   force =     0.00042402    0.00002230    0.00142453
     atom   63 type  1   force =     0.00006526    0.00032887    0.00042363
     atom   64 type  1   force =    -0.00004741   -0.00061674    0.00002407
     atom   65 type  3   force =     0.00030370    0.00046480    0.00038375
     atom   66 type  3   force =     0.00009936   -0.00030414   -0.00174215
     atom   67 type  3   force =     0.00040956    0.00052726   -0.00132293
     atom   68 type  3   force =    -0.00143942   -0.00157949    0.00325876
     atom   69 type  4   force =    -0.00064394    0.00026867   -0.00026583
     atom   70 type  4   force =    -0.00014797    0.00012211    0.00042943
     atom   71 type  4   force =     0.00003646   -0.00024364    0.00038485
     atom   72 type  4   force =     0.00058593   -0.00035849   -0.00143871
     atom   73 type  4   force =    -0.00004704    0.00070726   -0.00038480
     atom   74 type  4   force =    -0.00020850   -0.00060684    0.00187356
     atom   75 type  4   force =    -0.00006234   -0.00001905    0.00048680
     atom   76 type  4   force =    -0.00136195   -0.00112422    0.00244111
     atom   77 type  4   force =    -0.00097320    0.00130833    0.00009237
     atom   78 type  4   force =    -0.00040355    0.00002016    0.00036038
     atom   79 type  4   force =     0.00022119    0.00129160   -0.00194479
     atom   80 type  4   force =     0.00006238    0.00054621    0.00031891
     atom   81 type  4   force =    -0.00031169   -0.00024399    0.00041601
     atom   82 type  4   force =     0.00010648   -0.00001736   -0.00000669
     atom   83 type  4   force =     0.00086614    0.00022228    0.00073876
     atom   84 type  4   force =    -0.00092603    0.00001531   -0.00052494
     atom   85 type  3   force =     0.00040531    0.00220532    0.00146866
     atom   86 type  3   force =     0.00048189   -0.00064174   -0.00053602
     atom   87 type  3   force =    -0.00023347    0.00021871   -0.00040850
     atom   88 type  3   force =    -0.00061432   -0.00219648    0.00028128
     atom   89 type  4   force =    -0.00028986   -0.00041137   -0.00023025
     atom   90 type  4   force =     0.00004979   -0.00043903    0.00161368
     atom   91 type  4   force =     0.00036756   -0.00012153   -0.00005667
     atom   92 type  4   force =    -0.00048487    0.00058097   -0.00158692
     atom   93 type  4   force =     0.00083774   -0.00020676    0.00063546
     atom   94 type  4   force =    -0.00027274    0.00006267    0.00139404
     atom   95 type  4   force =     0.00025735    0.00025722    0.00017710
     atom   96 type  4   force =    -0.00114620    0.00012310   -0.00018222
     atom   97 type  4   force =     0.00038698    0.00028696   -0.00071029
     atom   98 type  4   force =    -0.00050148   -0.00028139    0.00031278
     atom   99 type  4   force =     0.00089218    0.00166803   -0.00153798
     atom  100 type  4   force =     0.00045661    0.00034944    0.00035333
     atom  101 type  4   force =    -0.00036874   -0.00008927    0.00049552
     atom  102 type  4   force =     0.00089170   -0.00032244    0.00040774
     atom  103 type  4   force =     0.00078720   -0.00125351   -0.00028028
     atom  104 type  4   force =    -0.00033321   -0.00117431    0.00029580
     atom  105 type  1   force =     0.00013340    0.00005082    0.00000913
     atom  106 type  1   force =    -0.00006514   -0.00054484   -0.00004113
     atom  107 type  2   force =     0.00028179   -0.00011922    0.00065704
     atom  108 type  1   force =    -0.00047570    0.00007736    0.00080792
     atom  109 type  1   force =     0.00064102   -0.00015252   -0.00018739
     atom  110 type  1   force =     0.00050562   -0.00008003    0.00077345
     atom  111 type  1   force =    -0.00049088    0.00013870    0.00052093
     atom  112 type  2   force =     0.00007708   -0.00058628    0.00066548
     atom  113 type  2   force =    -0.00019777    0.00023244    0.00004017
     atom  114 type  1   force =    -0.00039070   -0.00036448    0.00098444
     atom  115 type  1   force =    -0.00051855    0.00057242   -0.00010433
     atom  116 type  1   force =    -0.00052380   -0.00060769    0.00060485
     atom  117 type  3   force =    -0.00015704   -0.00037318    0.00012619
     atom  118 type  3   force =    -0.00050930   -0.00000683    0.00002957
     atom  119 type  3   force =     0.00012448    0.00025720   -0.00005694
     atom  120 type  3   force =     0.00050982   -0.00021484    0.00031775
     atom  121 type  4   force =    -0.00005387   -0.00007045   -0.00022809
     atom  122 type  4   force =    -0.00036370   -0.00014638    0.00018230
     atom  123 type  4   force =     0.00037469   -0.00001927    0.00025292
     atom  124 type  4   force =     0.00029228   -0.00046041   -0.00011148
     atom  125 type  4   force =     0.00053454    0.00002042    0.00001790
     atom  126 type  4   force =     0.00012602   -0.00018045    0.00036972
     atom  127 type  4   force =     0.00005503   -0.00004761   -0.00022671
     atom  128 type  4   force =    -0.00029576    0.00035430   -0.00041262
     atom  129 type  4   force =    -0.00003799    0.00058197   -0.00014887
     atom  130 type  4   force =     0.00052651    0.00000956    0.00029640
     atom  131 type  4   force =     0.00020463    0.00017949   -0.00023010
     atom  132 type  4   force =     0.00031414   -0.00026344   -0.00007807
     atom  133 type  4   force =    -0.00006978   -0.00035031    0.00027101
     atom  134 type  4   force =    -0.00008171   -0.00017764    0.00025919
     atom  135 type  4   force =    -0.00020716   -0.00035760   -0.00028315
     atom  136 type  4   force =     0.00058058   -0.00005927    0.00022337
     atom  137 type  3   force =    -0.00004405   -0.00032298   -0.00006994
     atom  138 type  3   force =     0.00012419   -0.00008148    0.00000434
     atom  139 type  3   force =     0.00017505    0.00004978    0.00005567
     atom  140 type  3   force =     0.00010899   -0.00011490    0.00000267
     atom  141 type  4   force =     0.00054116    0.00047070   -0.00071610
     atom  142 type  4   force =     0.00000383    0.00012336    0.00008123
     atom  143 type  4   force =     0.00033998   -0.00008890    0.00004638
     atom  144 type  4   force =    -0.00015978    0.00064099   -0.00052140
     atom  145 type  4   force =     0.00017942    0.00035782    0.00089903
     atom  146 type  4   force =    -0.00001940   -0.00000679   -0.00005882
     atom  147 type  4   force =    -0.00033584    0.00027668   -0.00025722
     atom  148 type  4   force =     0.00017367    0.00009362   -0.00008039
     atom  149 type  4   force =    -0.00013851    0.00001270   -0.00014366
     atom  150 type  4   force =    -0.00013877   -0.00004467   -0.00011591
     atom  151 type  4   force =     0.00040537   -0.00018647    0.00016827
     atom  152 type  4   force =    -0.00002756   -0.00027335    0.00025361
     atom  153 type  4   force =     0.00018263    0.00041204    0.00007955
     atom  154 type  4   force =    -0.00019664   -0.00038417    0.00021860
     atom  155 type  4   force =     0.00010996   -0.00032064    0.00037609
     atom  156 type  4   force =     0.00004028    0.00052297   -0.00002912
     atom  157 type  4   force =    -0.01121658   -0.00711157   -0.00304987
     atom  158 type  5   force =     0.01092272    0.00789597    0.00427639

     Total force =     0.226211     Total SCF correction =     0.003150
 
     init_run     :      9.16s CPU      9.84s WALL (       1 calls)
     electrons    :   1635.62s CPU   1712.73s WALL (       1 calls)
     forces       :      4.82s CPU      5.24s WALL (       1 calls)
     force_london :      0.13s CPU      0.13s WALL (       1 calls)

     Called by init_run:
     wfcinit      :      5.60s CPU      5.78s WALL (       1 calls)
     potinit      :      0.63s CPU      0.81s WALL (       1 calls)
     hinit0       :      1.59s CPU      1.67s WALL (       1 calls)

     Called by electrons:
     c_bands      :   1288.75s CPU   1329.07s WALL (      98 calls)
     sum_band     :    221.84s CPU    241.53s WALL (      98 calls)
     v_of_rho     :     29.24s CPU     30.47s WALL (      99 calls)
     newd         :     60.92s CPU     76.79s WALL (      99 calls)
     mix_rho      :     33.13s CPU     33.31s WALL (      98 calls)
     energy_londo :      0.10s CPU      0.10s WALL (       1 calls)

     Called by c_bands:
     init_us_2    :      3.86s CPU      3.94s WALL (     396 calls)
     init_us_2:cp :      3.85s CPU      3.94s WALL (     396 calls)
     regterg      :   1261.84s CPU   1301.76s WALL (     200 calls)

     Called by *egterg:
     rdiaghg      :    349.27s CPU    368.67s WALL (     800 calls)
     h_psi        :    521.56s CPU    530.54s WALL (     802 calls)
     s_psi        :     89.98s CPU     90.05s WALL (     802 calls)
     g_psi        :      0.68s CPU      0.69s WALL (     600 calls)

     Called by h_psi:
     h_psi:calbec :    120.19s CPU    127.05s WALL (     802 calls)
     vloc_psi     :    309.66s CPU    310.78s WALL (     802 calls)
     add_vuspsi   :     90.50s CPU     91.47s WALL (     802 calls)

     General routines
     calbec       :    177.45s CPU    187.67s WALL (    1006 calls)
     fft          :     25.75s CPU     27.46s WALL (    1795 calls)
     ffts         :     20.05s CPU     20.10s WALL (   12227 calls)
     fftw         :    346.59s CPU    347.76s WALL (  339666 calls)
     interpolate  :      2.11s CPU      2.20s WALL (     198 calls)
 
     Parallel routines
 
     PWSCF        :  27m31.61s CPU  28m50.16s WALL

 
   This run was terminated on:  23:56:36  17Nov2025            

=------------------------------------------------------------------------------=
   JOB DONE.
=------------------------------------------------------------------------------=
