
     Program PWSCF v.7.2 starts on 17Nov2025 at 20:29:25 

     This program is part of the open-source Quantum ESPRESSO suite
     for quantum simulation of materials; please cite
         "P. Giannozzi et al., J. Phys.:Condens. Matter 21 395502 (2009);
         "P. Giannozzi et al., J. Phys.:Condens. Matter 29 465901 (2017);
         "P. Giannozzi et al., J. Chem. Phys. 152 154105 (2020);
          URL http://www.quantum-espresso.org", 
     in publications or presentations arising from this work. More details at
     http://www.quantum-espresso.org/quote

     Parallel version (MPI), running on    64 processors

     MPI processes distributed on     4 nodes
     376462 MiB available memory on the printing compute node when the environment starts
 
     Reading input from PWINPUT_atm157_xp

     Current dimensions of program PWSCF are:
     Max number of different atomic species (ntypx) = 10
     Max number of k-points (npk) =  40000
     Max angular momentum in pseudopotentials (lmaxx) =  4
     Presently no symmetry can be used with electric field

     file Ni.pbe-n-rrkjus_psl.1.0.0.UPF: wavefunction(s)  3D renormalized
     file Mn.pbe-spn-rrkjus_psl.0.3.1.UPF: wavefunction(s)  3D renormalized
     file O.pbe-rrkjus.UPF: wavefunction(s)  2S renormalized
     file H.pbe-rrkjus.UPF: wavefunction(s)  1S renormalized

     gamma-point specific algorithms are used
 
     R & G space division:  proc/nbgrp/npool/nimage =      64
     Subspace diagonalization in iterative solution of the eigenvalue problem:
     one sub-group per band group will be used
     custom distributed-memory algorithm (size of sub-group:  7*  7 procs)

 
     Parallelization info
     --------------------
     sticks:   dense  smooth     PW     G-vecs:    dense   smooth      PW
     Min         214      85     20                61830    15614    1928
     Max         216      86     22                61864    15658    1982
     Sum       13727    5503   1375              3958051  1001255  125211
 
     Using Slab Decomposition
 


     bravais-lattice index     =            0
     lattice parameter (alat)  =      17.8532  a.u.
     unit-cell volume          =   20962.6682 (a.u.)^3
     number of atoms/cell      =          158
     number of atomic types    =            5
     number of electrons       =      1108.00
     number of Kohn-Sham states=          665
     kinetic-energy cutoff     =      50.0000  Ry
     charge density cutoff     =     500.0000  Ry
     scf convergence threshold =      1.0E-06
     mixing beta               =       0.1000
     number of iterations used =            8  local-TF  mixing
     Exchange-correlation=  SLA  PW   PBE  PBE
                           (   1   4   3   4   0   0   0)

     celldm(1)=  17.853155  celldm(2)=   0.000000  celldm(3)=   0.000000
     celldm(4)=   0.000000  celldm(5)=   0.000000  celldm(6)=   0.000000

     crystal axes: (cart. coord. in units of alat)
               a(1) = (   1.000000   0.000000   0.000000 )  
               a(2) = (   0.003237   1.081997   0.000000 )  
               a(3) = (   0.000000   0.000000   3.404673 )  

     reciprocal axes: (cart. coord. in units 2 pi/alat)
               b(1) = (  1.000000 -0.002992  0.000000 )  
               b(2) = (  0.000000  0.924217  0.000000 )  
               b(3) = (  0.000000  0.000000  0.293714 )  


     PseudoPot. # 1 for Ni read from file:
     ~/PSEUDO/Ni.pbe-n-rrkjus_psl.1.0.0.UPF
     MD5 check sum: Not computed, couldn't open file
     Pseudo is Ultrasoft + core correction, Zval = 10.0
     Generated using "atomic" code by A. Dal Corso  v.5.1.2
     Using radial grid of 1195 points,  6 beta functions with: 
                l(1) =   0
                l(2) =   0
                l(3) =   1
                l(4) =   1
                l(5) =   2
                l(6) =   2
     Q(r) pseudized with 0 coefficients 


     PseudoPot. # 2 for Mn read from file:
     ~/PSEUDO/Mn.pbe-spn-rrkjus_psl.0.3.1.UPF
     MD5 check sum: Not computed, couldn't open file
     Pseudo is Ultrasoft + core correction, Zval = 15.0
     Generated using &quot;atomic&quot; code by A. Dal Corso  v.6.2.2
     Using radial grid of 1187 points,  6 beta functions with: 
                l(1) =   0
                l(2) =   0
                l(3) =   1
                l(4) =   1
                l(5) =   2
                l(6) =   2
     Q(r) pseudized with 0 coefficients 


     PseudoPot. # 3 for P  read from file:
     ~/PSEUDO/P.pbe-n-rrkjus_psl.1.0.0.UPF
     MD5 check sum: Not computed, couldn't open file
     Pseudo is Ultrasoft + core correction, Zval =  5.0
     Generated using "atomic" code by A. Dal Corso  v.5.1
     Using radial grid of 1147 points,  6 beta functions with: 
                l(1) =   0
                l(2) =   0
                l(3) =   1
                l(4) =   1
                l(5) =   2
                l(6) =   2
     Q(r) pseudized with 0 coefficients 


     PseudoPot. # 4 for O  read from file:
     ~/PSEUDO/O.pbe-rrkjus.UPF
     MD5 check sum: Not computed, couldn't open file
     Pseudo is Ultrasoft, Zval =  6.0
     Generated by new atomic code, or converted to UPF format
     Using radial grid of 1269 points,  4 beta functions with: 
                l(1) =   0
                l(2) =   0
                l(3) =   1
                l(4) =   1
     Q(r) pseudized with 0 coefficients 


     PseudoPot. # 5 for H  read from file:
     ~/PSEUDO/H.pbe-rrkjus.UPF
     MD5 check sum: Not computed, couldn't open file
     Pseudo is Ultrasoft, Zval =  1.0
     Generated by new atomic code, or converted to UPF format
     Using radial grid of 1061 points,  2 beta functions with: 
                l(1) =   0
                l(2) =   0
     Q(r) pseudized with 0 coefficients 


     atomic species   valence    mass     pseudopotential
     Ni               10.00    58.69300     Ni( 1.00)
     Mn               15.00    54.93800     Mn( 1.00)
     P                 5.00    30.97300     P ( 1.00)
     O                 6.00    15.99900     O ( 1.00)
     H                 1.00     1.00790     H ( 1.00)

     Starting magnetic structure 
     atomic species   magnetization
     Ni              1.000
     Mn              1.000
     P               1.000
     O               1.000
     H               0.000

     No symmetry found



   Cartesian axes

     site n.     atom                  positions (alat units)
         1        Ni     tau(   1) = (   0.2448189   0.8359134   0.1216996  )
         2        Ni     tau(   2) = (   0.4920952   0.7731948   0.4438949  )
         3        Mn     tau(   3) = (   0.0113021   0.2918949   0.1160512  )
         4        Ni     tau(   4) = (   0.2586115   0.2268566   0.4417628  )
         5        Ni     tau(   5) = (   1.0019827   1.0705803   0.2835623  )
         6        Ni     tau(   6) = (   0.2518099   0.5339061   0.2823483  )
         7        Ni     tau(   7) = (   0.7400999   0.8349186   0.1225624  )
         8        Mn     tau(   8) = (   0.9886961   0.7700845   0.4492175  )
         9        Mn     tau(   9) = (   0.5113421   0.2944667   0.1158892  )
        10        Ni     tau(  10) = (   0.7560857   0.2263843   0.4422798  )
        11        Ni     tau(  11) = (   0.5009386   1.0712238   0.2822610  )
        12        Ni     tau(  12) = (   0.7496978   0.5336600   0.2834396  )
        13        P      tau(  13) = (   0.2147792   0.9686896   0.4382665  )
        14        P      tau(  14) = (   0.4607377   0.6441916   0.1265334  )
        15        P      tau(  15) = (   0.2883218   0.0913464   0.1265752  )
        16        P      tau(  16) = (   0.0408981   0.4221836   0.4354960  )
        17        O      tau(  17) = (   0.1380864   0.9007819   0.3023220  )
        18        O      tau(  18) = (   0.3817439   0.7113683   0.2624610  )
        19        O      tau(  19) = (   0.3638364   0.1608547   0.2624417  )
        20        O      tau(  20) = (   0.1207568   0.3545755   0.3021219  )
        21        O      tau(  21) = (   0.1552194   0.8797563   0.5625160  )
        22        O      tau(  22) = (   0.4022820   0.7317969   0.0010585  )
        23        O      tau(  23) = (   0.3454844   0.1823965   0.0026336  )
        24        O      tau(  24) = (   0.1017019   0.3344979   0.5594858  )
        25        O      tau(  25) = (   0.0970074   0.5770714   0.4346455  )
        26        O      tau(  26) = (   0.3534166   1.0203677   0.1270707  )
        27        O      tau(  27) = (   0.3778024   0.4172402   0.4261028  )
        28        O      tau(  28) = (   0.1256171   0.0954063   0.1372153  )
        29        O      tau(  29) = (   0.1232168   0.6482422   0.1385172  )
        30        O      tau(  30) = (   0.4028533   0.4897833   0.1289718  )
        31        O      tau(  31) = (   0.1511050   0.0405554   0.4369979  )
        32        O      tau(  32) = (   0.3776556   0.9624293   0.4288159  )
        33        P      tau(  33) = (   0.7084770   0.9682119   0.4394551  )
        34        P      tau(  34) = (   0.9603154   0.6409658   0.1292469  )
        35        P      tau(  35) = (   0.7875734   0.0899770   0.1274098  )
        36        P      tau(  36) = (   0.5405152   0.4272620   0.4364455  )
        37        O      tau(  37) = (   0.6323583   0.8977630   0.3036670  )
        38        O      tau(  38) = (   0.8809646   0.7091921   0.2627111  )
        39        O      tau(  39) = (   0.8631054   0.1587239   0.2636487  )
        40        O      tau(  40) = (   0.6202581   0.3578380   0.3034239  )
        41        O      tau(  41) = (   0.6499160   0.8772596   0.5630912  )
        42        O      tau(  42) = (   0.8990171   0.7283464   0.0054426  )
        43        O      tau(  43) = (   0.8448361   0.1806154   0.0030658  )
        44        O      tau(  44) = (   0.6023096   0.3392612   0.5600469  )
        45        O      tau(  45) = (   0.5960222   0.5826131   0.4346340  )
        46        O      tau(  46) = (   0.8515023   1.0184215   0.1281632  )
        47        O      tau(  47) = (   0.8779640   0.4148900   0.4260983  )
        48        O      tau(  48) = (   0.6251159   0.0957170   0.1376895  )
        49        O      tau(  49) = (   0.6237654   0.6481585   0.1378370  )
        50        O      tau(  50) = (   0.9038046   0.4863338   0.1307354  )
        51        O      tau(  51) = (   0.6458737   0.0402574   0.4377979  )
        52        O      tau(  52) = (   0.8712434   0.9635255   0.4285638  )
        53        Ni     tau(  53) = (   0.2420320   0.8169913   0.7491577  )
        54        Ni     tau(  54) = (   0.4893084   0.7542727   1.0713530  )
        55        Mn     tau(  55) = (   0.0085152   0.2729728   0.7435093  )
        56        Ni     tau(  56) = (   0.2558246   0.2079345   1.0692209  )
        57        Ni     tau(  57) = (   0.9991959   1.0516583   0.9110204  )
        58        Ni     tau(  58) = (   0.2490231   0.5149840   0.9098064  )
        59        Ni     tau(  59) = (   0.7373131   0.8159965   0.7500205  )
        60        Mn     tau(  60) = (   0.9859093   0.7511625   1.0766756  )
        61        Mn     tau(  61) = (   0.5085552   0.2755447   0.7433473  )
        62        Ni     tau(  62) = (   0.7532989   0.2074622   1.0697379  )
        63        Ni     tau(  63) = (   0.4981517   1.0523018   0.9097191  )
        64        Ni     tau(  64) = (   0.7469109   0.5147379   0.9108977  )
        65        P      tau(  65) = (   0.2119924   0.9497675   1.0657246  )
        66        P      tau(  66) = (   0.4579509   0.6252695   0.7539915  )
        67        P      tau(  67) = (   0.2855349   0.0724244   0.7540333  )
        68        P      tau(  68) = (   0.0381112   0.4032615   1.0629541  )
        69        O      tau(  69) = (   0.1352995   0.8818598   0.9297801  )
        70        O      tau(  70) = (   0.3789570   0.6924463   0.8899191  )
        71        O      tau(  71) = (   0.3610496   0.1419327   0.8898998  )
        72        O      tau(  72) = (   0.1179700   0.3356534   0.9295800  )
        73        O      tau(  73) = (   0.1524325   0.8608343   1.1899741  )
        74        O      tau(  74) = (   0.3994952   0.7128748   0.6285166  )
        75        O      tau(  75) = (   0.3426976   0.1634744   0.6300917  )
        76        O      tau(  76) = (   0.0989151   0.3155758   1.1869439  )
        77        O      tau(  77) = (   0.0942206   0.5581494   1.0621036  )
        78        O      tau(  78) = (   0.3506297   1.0014456   0.7545288  )
        79        O      tau(  79) = (   0.3750155   0.3983181   1.0535609  )
        80        O      tau(  80) = (   0.1228303   0.0764842   0.7646734  )
        81        O      tau(  81) = (   0.1204299   0.6293201   0.7659753  )
        82        O      tau(  82) = (   0.4000664   0.4708612   0.7564299  )
        83        O      tau(  83) = (   0.1483182   0.0216333   1.0644560  )
        84        O      tau(  84) = (   0.3748687   0.9435072   1.0562740  )
        85        P      tau(  85) = (   0.7056901   0.9492898   1.0669132  )
        86        P      tau(  86) = (   0.9575286   0.6220438   0.7567050  )
        87        P      tau(  87) = (   0.7847866   0.0710549   0.7548679  )
        88        P      tau(  88) = (   0.5377283   0.4083400   1.0639036  )
        89        O      tau(  89) = (   0.6295714   0.8788409   0.9311251  )
        90        O      tau(  90) = (   0.8781778   0.6902700   0.8901692  )
        91        O      tau(  91) = (   0.8603186   0.1398018   0.8911068  )
        92        O      tau(  92) = (   0.6174712   0.3389159   0.9308820  )
        93        O      tau(  93) = (   0.6471291   0.8583376   1.1905493  )
        94        O      tau(  94) = (   0.8962302   0.7094244   0.6329007  )
        95        O      tau(  95) = (   0.8420493   0.1616933   0.6305239  )
        96        O      tau(  96) = (   0.5995227   0.3203391   1.1875050  )
        97        O      tau(  97) = (   0.5932354   0.5636910   1.0620921  )
        98        O      tau(  98) = (   0.8487155   0.9994995   0.7556213  )
        99        O      tau(  99) = (   0.8751772   0.3959680   1.0535564  )
       100        O      tau( 100) = (   0.6223291   0.0767949   0.7651476  )
       101        O      tau( 101) = (   0.6209785   0.6292365   0.7652951  )
       102        O      tau( 102) = (   0.9010178   0.4674118   0.7581935  )
       103        O      tau( 103) = (   0.6430869   0.0213354   1.0652560  )
       104        O      tau( 104) = (   0.8684566   0.9446034   1.0560219  )
       105        Ni     tau( 105) = (   0.2412023   0.8004481   1.3761697  )
       106        Ni     tau( 106) = (   0.4986735   0.7355768   1.6794178  )
       107        Mn     tau( 107) = (   0.0058178   0.2579714   1.3748439  )
       108        Ni     tau( 108) = (   0.2445030   0.1966672   1.6827613  )
       109        Ni     tau( 109) = (   0.9973019   1.0372672   1.5419400  )
       110        Ni     tau( 110) = (   0.2442193   0.4988167   1.5412053  )
       111        Ni     tau( 111) = (   0.7355958   0.7989306   1.3771896  )
       112        Mn     tau( 112) = (   0.9955940   0.7374460   1.6981170  )
       113        Mn     tau( 113) = (   0.5084073   0.2597986   1.3740649  )
       114        Ni     tau( 114) = (   0.7506413   0.1876866   1.7157338  )
       115        Ni     tau( 115) = (   0.4999815   1.0354405   1.5368422  )
       116        Ni     tau( 116) = (   0.7421734   0.4941468   1.5447217  )
       117        P      tau( 117) = (   0.2134520   0.9305608   1.6928748  )
       118        P      tau( 118) = (   0.4552265   0.6038409   1.3792233  )
       119        P      tau( 119) = (   0.2846976   0.0570133   1.3802773  )
       120        P      tau( 120) = (   0.0325224   0.3864354   1.7029347  )
       121        O      tau( 121) = (   0.1349751   0.8706564   1.5506288  )
       122        O      tau( 122) = (   0.3764107   0.6721600   1.5149202  )
       123        O      tau( 123) = (   0.3606206   0.1260236   1.5156957  )
       124        O      tau( 124) = (   0.1092748   0.3280951   1.5591652  )
       125        O      tau( 125) = (   0.1511793   0.8339695   1.8079082  )
       126        O      tau( 126) = (   0.3964659   0.6926639   1.2544695  )
       127        O      tau( 127) = (   0.3425042   0.1476694   1.2561401  )
       128        O      tau( 128) = (   0.0960478   0.2915149   1.8172940  )
       129        O      tau( 129) = (   0.0879065   0.5436709   1.7030381  )
       130        O      tau( 130) = (   0.3488342   0.9858816   1.3801817  )
       131        O      tau( 131) = (   0.3671736   0.3798408   1.6812659  )
       132        O      tau( 132) = (   0.1219276   0.0647475   1.3934455  )
       133        O      tau( 133) = (   0.1179523   0.6112524   1.3972003  )
       134        O      tau( 134) = (   0.3951101   0.4502108   1.3814183  )
       135        O      tau( 135) = (   0.1554058   0.0046046   1.6969583  )
       136        O      tau( 136) = (   0.3765182   0.9212570   1.6810882  )
       137        P      tau( 137) = (   0.7067285   0.9241104   1.6956373  )
       138        P      tau( 138) = (   0.9550835   0.6030567   1.3877912  )
       139        P      tau( 139) = (   0.7840039   0.0566892   1.3823828  )
       140        P      tau( 140) = (   0.5313930   0.3840217   1.6968505  )
       141        O      tau( 141) = (   0.6301565   0.8631087   1.5500589  )
       142        O      tau( 142) = (   0.8781540   0.6680547   1.5246654  )
       143        O      tau( 143) = (   0.8584090   0.1266911   1.5169273  )
       144        O      tau( 144) = (   0.6101434   0.3244037   1.5563583  )
       145        O      tau( 145) = (   0.6497044   0.8229155   1.8076390  )
       146        O      tau( 146) = (   0.8952346   0.6931503   1.2649845  )
       147        O      tau( 147) = (   0.8417833   0.1457064   1.2563858  )
       148        O      tau( 148) = (   0.5882982   0.2884097   1.8138105  )
       149        O      tau( 149) = (   0.5857986   0.5416269   1.6967524  )
       150        O      tau( 150) = (   0.8463249   0.9844929   1.3834097  )
       151        O      tau( 151) = (   0.8691606   0.3830520   1.6896730  )
       152        O      tau( 152) = (   0.6208256   0.0636157   1.3908489  )
       153        O      tau( 153) = (   0.6179180   0.6081228   1.3928659  )
       154        O      tau( 154) = (   0.8974059   0.4489532   1.3860662  )
       155        O      tau( 155) = (   0.6446735  -0.0036875   1.6925588  )
       156        O      tau( 156) = (   0.8709253   0.9175257   1.6809245  )
       157        O      tau( 157) = (   0.8711229   0.1000713   1.8382274  )
       158        H      tau( 158) = (   0.9531421   0.1587224   1.8633884  )

     -------------------------------------------------
     Parameters for Dispersion (Grimme-D2) Correction:
     -------------------------------------------------
       atom      VdW radius       C_6     

        Ni         2.952        374.666
        Mn         2.952        374.666
        P          3.222        271.980
        O          2.536         24.284
        H          1.892          4.857

     number of k points=     1  Gaussian smearing, width (Ry)=  0.0100
                       cart. coord. in units 2pi/alat
        k(    1) = (   0.0000000   0.0000000   0.0000000), wk =   1.0000000

     Dense  grid:  1979026 G-vectors     FFT dimensions: ( 128, 144, 450)

     Smooth grid:   500628 G-vectors     FFT dimensions: (  81,  90, 288)

     Estimated max dynamical RAM per process >     333.40 MB

     Estimated total dynamical RAM >      20.84 GB

     Check: negative core charge=   -0.000002
     Generating pointlists ...
     new r_m :   0.0796 (alat units)  1.4203 (a.u.) for type    1
     new r_m :   0.0881 (alat units)  1.5722 (a.u.) for type    2
     new r_m :   0.0666 (alat units)  1.1883 (a.u.) for type    3
     new r_m :   0.0429 (alat units)  0.7653 (a.u.) for type    4
     new r_m :   0.0429 (alat units)  0.7653 (a.u.) for type    5

     Initial potential from superposition of free atoms

     starting charge    1107.8886, renormalised to    1108.0000

     negative rho (up, down):  1.534E-03 4.697E-04
 
     Adding external electric field

     Computed dipole along edir(3) : 
        Dipole                1.6284 Ry au,          4.1391 Debye
        Dipole field          0.0010 Ry au, 
 
        Potential amp.       -0.1068 Ry
        Total length         54.7057 bohr
 
 
     Adding external electric field

     Computed dipole along edir(3) : 
        Dipole                1.6284 Ry au,          4.1391 Debye
        Dipole field          0.0010 Ry au, 
 
        Potential amp.       -0.1068 Ry
        Total length         54.7057 bohr
 
     Starting wfcs are  818 randomized atomic wfcs

     total cpu time spent up to now is       11.7 secs

     Self-consistent Calculation

     iteration #  1     ecut=    50.00 Ry     beta= 0.10
     Davidson diagonalization with overlap
     ethr =  1.00E-02,  avg # of iterations =  5.5

     negative rho (up, down):  4.428E-01 6.403E-07
 
     Adding external electric field

     Computed dipole along edir(3) : 
        Dipole               -3.4526 Ry au,         -8.7757 Debye
        Dipole field         -0.0021 Ry au, 
 
        Potential amp.        0.2265 Ry
        Total length         54.7057 bohr
 
 
     Adding external electric field

     Computed dipole along edir(3) : 
        Dipole               -3.4526 Ry au,         -8.7757 Debye
        Dipole field         -0.0021 Ry au, 
 
        Potential amp.        0.2265 Ry
        Total length         54.7057 bohr
 

     total cpu time spent up to now is       44.8 secs

     total energy              =   -7858.94436871 Ry
     estimated scf accuracy    <     732.40161314 Ry

     total magnetization       =   222.00 Bohr mag/cell
     absolute magnetization    =   319.81 Bohr mag/cell

     iteration #  2     ecut=    50.00 Ry     beta= 0.10
     Davidson diagonalization with overlap
     ethr =  1.00E-02,  avg # of iterations =  2.0

     negative rho (up, down):  4.075E-01 2.507E-07
 
     Adding external electric field

     Computed dipole along edir(3) : 
        Dipole               -2.5118 Ry au,         -6.3843 Debye
        Dipole field         -0.0015 Ry au, 
 
        Potential amp.        0.1647 Ry
        Total length         54.7057 bohr
 
 
     Adding external electric field

     Computed dipole along edir(3) : 
        Dipole               -2.5118 Ry au,         -6.3843 Debye
        Dipole field         -0.0015 Ry au, 
 
        Potential amp.        0.1647 Ry
        Total length         54.7057 bohr
 

     total cpu time spent up to now is       61.4 secs

     total energy              =   -7941.44799714 Ry
     estimated scf accuracy    <     166.93726728 Ry

     total magnetization       =   162.42 Bohr mag/cell
     absolute magnetization    =   210.67 Bohr mag/cell

     iteration #  3     ecut=    50.00 Ry     beta= 0.10
     Davidson diagonalization with overlap
     ethr =  1.00E-02,  avg # of iterations =  1.0

     negative rho (up, down):  3.581E-01 1.539E-07
 
     Adding external electric field

     Computed dipole along edir(3) : 
        Dipole               -2.0963 Ry au,         -5.3283 Debye
        Dipole field         -0.0013 Ry au, 
 
        Potential amp.        0.1375 Ry
        Total length         54.7057 bohr
 
 
     Adding external electric field

     Computed dipole along edir(3) : 
        Dipole               -2.0963 Ry au,         -5.3283 Debye
        Dipole field         -0.0013 Ry au, 
 
        Potential amp.        0.1375 Ry
        Total length         54.7057 bohr
 

     total cpu time spent up to now is       74.7 secs

     total energy              =   -7973.22921614 Ry
     estimated scf accuracy    <     103.45665893 Ry

     total magnetization       =   140.63 Bohr mag/cell
     absolute magnetization    =   190.60 Bohr mag/cell

     iteration #  4     ecut=    50.00 Ry     beta= 0.10
     Davidson diagonalization with overlap
     ethr =  9.34E-03,  avg # of iterations =  1.0

     negative rho (up, down):  2.775E-01 9.456E-09
 
     Adding external electric field

     Computed dipole along edir(3) : 
        Dipole               -1.9905 Ry au,         -5.0595 Debye
        Dipole field         -0.0012 Ry au, 
 
        Potential amp.        0.1306 Ry
        Total length         54.7057 bohr
 
 
     Adding external electric field

     Computed dipole along edir(3) : 
        Dipole               -1.9905 Ry au,         -5.0595 Debye
        Dipole field         -0.0012 Ry au, 
 
        Potential amp.        0.1306 Ry
        Total length         54.7057 bohr
 

     total cpu time spent up to now is       88.6 secs

     total energy              =   -8006.21778183 Ry
     estimated scf accuracy    <      82.42196186 Ry

     total magnetization       =   124.06 Bohr mag/cell
     absolute magnetization    =   176.08 Bohr mag/cell

     iteration #  5     ecut=    50.00 Ry     beta= 0.10
     Davidson diagonalization with overlap
     ethr =  7.44E-03,  avg # of iterations =  1.0

     negative rho (up, down):  1.833E-02 1.126E-08
 
     Adding external electric field

     Computed dipole along edir(3) : 
        Dipole               -1.4354 Ry au,         -3.6484 Debye
        Dipole field         -0.0009 Ry au, 
 
        Potential amp.        0.0941 Ry
        Total length         54.7057 bohr
 
 
     Adding external electric field

     Computed dipole along edir(3) : 
        Dipole               -1.4354 Ry au,         -3.6484 Debye
        Dipole field         -0.0009 Ry au, 
 
        Potential amp.        0.0941 Ry
        Total length         54.7057 bohr
 

     total cpu time spent up to now is      103.4 secs

     total energy              =   -8066.67927158 Ry
     estimated scf accuracy    <      64.59448292 Ry

     total magnetization       =   106.01 Bohr mag/cell
     absolute magnetization    =   158.63 Bohr mag/cell

     iteration #  6     ecut=    50.00 Ry     beta= 0.10
     Davidson diagonalization with overlap
     ethr =  5.83E-03,  avg # of iterations =  1.0

     negative rho (up, down):  3.302E-04 6.078E-04
 
     Adding external electric field

     Computed dipole along edir(3) : 
        Dipole               -1.0563 Ry au,         -2.6848 Debye
        Dipole field         -0.0006 Ry au, 
 
        Potential amp.        0.0693 Ry
        Total length         54.7057 bohr
 
 
     Adding external electric field

     Computed dipole along edir(3) : 
        Dipole               -1.0563 Ry au,         -2.6848 Debye
        Dipole field         -0.0006 Ry au, 
 
        Potential amp.        0.0693 Ry
        Total length         54.7057 bohr
 

     total cpu time spent up to now is      117.8 secs

     total energy              =   -8076.49553695 Ry
     estimated scf accuracy    <      10.82804682 Ry

     total magnetization       =    99.98 Bohr mag/cell
     absolute magnetization    =   129.86 Bohr mag/cell

     iteration #  7     ecut=    50.00 Ry     beta= 0.10
     Davidson diagonalization with overlap
     ethr =  9.77E-04,  avg # of iterations =  6.0

     negative rho (up, down):  3.339E-04 6.210E-04
 
     Adding external electric field

     Computed dipole along edir(3) : 
        Dipole               -1.0450 Ry au,         -2.6561 Debye
        Dipole field         -0.0006 Ry au, 
 
        Potential amp.        0.0685 Ry
        Total length         54.7057 bohr
 
 
     Adding external electric field

     Computed dipole along edir(3) : 
        Dipole               -1.0450 Ry au,         -2.6561 Debye
        Dipole field         -0.0006 Ry au, 
 
        Potential amp.        0.0685 Ry
        Total length         54.7057 bohr
 

     total cpu time spent up to now is      144.9 secs

     total energy              =   -8078.86182282 Ry
     estimated scf accuracy    <      28.36290048 Ry

     total magnetization       =    69.83 Bohr mag/cell
     absolute magnetization    =    87.46 Bohr mag/cell

     iteration #  8     ecut=    50.00 Ry     beta= 0.10
     Davidson diagonalization with overlap
     ethr =  9.77E-04,  avg # of iterations =  1.0

     negative rho (up, down):  3.296E-04 6.494E-04
 
     Adding external electric field

     Computed dipole along edir(3) : 
        Dipole               -1.0638 Ry au,         -2.7040 Debye
        Dipole field         -0.0006 Ry au, 
 
        Potential amp.        0.0698 Ry
        Total length         54.7057 bohr
 
 
     Adding external electric field

     Computed dipole along edir(3) : 
        Dipole               -1.0638 Ry au,         -2.7040 Debye
        Dipole field         -0.0006 Ry au, 
 
        Potential amp.        0.0698 Ry
        Total length         54.7057 bohr
 

     total cpu time spent up to now is      158.3 secs

     total energy              =   -8079.00082085 Ry
     estimated scf accuracy    <      28.08077423 Ry

     total magnetization       =    69.87 Bohr mag/cell
     absolute magnetization    =    87.11 Bohr mag/cell

     iteration #  9     ecut=    50.00 Ry     beta= 0.10
     Davidson diagonalization with overlap
     ethr =  9.77E-04,  avg # of iterations =  1.0

     negative rho (up, down):  3.970E-04 7.948E-04
 
     Adding external electric field

     Computed dipole along edir(3) : 
        Dipole               -0.9597 Ry au,         -2.4392 Debye
        Dipole field         -0.0006 Ry au, 
 
        Potential amp.        0.0629 Ry
        Total length         54.7057 bohr
 
 
     Adding external electric field

     Computed dipole along edir(3) : 
        Dipole               -0.9597 Ry au,         -2.4392 Debye
        Dipole field         -0.0006 Ry au, 
 
        Potential amp.        0.0629 Ry
        Total length         54.7057 bohr
 

     total cpu time spent up to now is      172.5 secs

     total energy              =   -8078.63900347 Ry
     estimated scf accuracy    <      29.82093981 Ry

     total magnetization       =    69.23 Bohr mag/cell
     absolute magnetization    =    86.27 Bohr mag/cell

     iteration # 10     ecut=    50.00 Ry     beta= 0.10
     Davidson diagonalization with overlap
     ethr =  9.77E-04,  avg # of iterations =  1.0

     negative rho (up, down):  4.239E-03 7.020E-03
 
     Adding external electric field

     Computed dipole along edir(3) : 
        Dipole               -0.7767 Ry au,         -1.9741 Debye
        Dipole field         -0.0005 Ry au, 
 
        Potential amp.        0.0509 Ry
        Total length         54.7057 bohr
 
 
     Adding external electric field

     Computed dipole along edir(3) : 
        Dipole               -0.7767 Ry au,         -1.9741 Debye
        Dipole field         -0.0005 Ry au, 
 
        Potential amp.        0.0509 Ry
        Total length         54.7057 bohr
 

     total cpu time spent up to now is      186.9 secs

     total energy              =   -8077.74680210 Ry
     estimated scf accuracy    <      24.51510255 Ry

     total magnetization       =    70.52 Bohr mag/cell
     absolute magnetization    =    86.49 Bohr mag/cell

     iteration # 11     ecut=    50.00 Ry     beta= 0.10
     Davidson diagonalization with overlap
     ethr =  9.77E-04,  avg # of iterations =  1.0

     negative rho (up, down):  3.390E-03 6.507E-03
 
     Adding external electric field

     Computed dipole along edir(3) : 
        Dipole               -0.7599 Ry au,         -1.9315 Debye
        Dipole field         -0.0005 Ry au, 
 
        Potential amp.        0.0498 Ry
        Total length         54.7057 bohr
 
 
     Adding external electric field

     Computed dipole along edir(3) : 
        Dipole               -0.7599 Ry au,         -1.9315 Debye
        Dipole field         -0.0005 Ry au, 
 
        Potential amp.        0.0498 Ry
        Total length         54.7057 bohr
 

     total cpu time spent up to now is      200.2 secs

     total energy              =   -8078.16489443 Ry
     estimated scf accuracy    <       4.53935548 Ry

     total magnetization       =    89.93 Bohr mag/cell
     absolute magnetization    =   100.96 Bohr mag/cell

     iteration # 12     ecut=    50.00 Ry     beta= 0.10
     Davidson diagonalization with overlap
     ethr =  4.10E-04,  avg # of iterations =  1.5

     negative rho (up, down):  2.752E-03 6.060E-03
 
     Adding external electric field

     Computed dipole along edir(3) : 
        Dipole               -0.7661 Ry au,         -1.9472 Debye
        Dipole field         -0.0005 Ry au, 
 
        Potential amp.        0.0502 Ry
        Total length         54.7057 bohr
 
 
     Adding external electric field

     Computed dipole along edir(3) : 
        Dipole               -0.7661 Ry au,         -1.9472 Debye
        Dipole field         -0.0005 Ry au, 
 
        Potential amp.        0.0502 Ry
        Total length         54.7057 bohr
 

     total cpu time spent up to now is      214.8 secs

     total energy              =   -8078.19455784 Ry
     estimated scf accuracy    <       5.12967986 Ry

     total magnetization       =    88.20 Bohr mag/cell
     absolute magnetization    =    99.20 Bohr mag/cell

     iteration # 13     ecut=    50.00 Ry     beta= 0.10
     Davidson diagonalization with overlap
     ethr =  4.10E-04,  avg # of iterations =  1.0

     negative rho (up, down):  1.136E-03 4.494E-03
 
     Adding external electric field

     Computed dipole along edir(3) : 
        Dipole               -0.7452 Ry au,         -1.8941 Debye
        Dipole field         -0.0004 Ry au, 
 
        Potential amp.        0.0489 Ry
        Total length         54.7057 bohr
 
 
     Adding external electric field

     Computed dipole along edir(3) : 
        Dipole               -0.7452 Ry au,         -1.8941 Debye
        Dipole field         -0.0004 Ry au, 
 
        Potential amp.        0.0489 Ry
        Total length         54.7057 bohr
 

     total cpu time spent up to now is      229.0 secs

     total energy              =   -8078.19027408 Ry
     estimated scf accuracy    <       7.38021798 Ry

     total magnetization       =    85.28 Bohr mag/cell
     absolute magnetization    =    96.59 Bohr mag/cell

     iteration # 14     ecut=    50.00 Ry     beta= 0.10
     Davidson diagonalization with overlap
     ethr =  4.10E-04,  avg # of iterations =  1.5

     negative rho (up, down):  1.218E-03 3.026E-03
 
     Adding external electric field

     Computed dipole along edir(3) : 
        Dipole               -0.7708 Ry au,         -1.9591 Debye
        Dipole field         -0.0005 Ry au, 
 
        Potential amp.        0.0506 Ry
        Total length         54.7057 bohr
 
 
     Adding external electric field

     Computed dipole along edir(3) : 
        Dipole               -0.7708 Ry au,         -1.9591 Debye
        Dipole field         -0.0005 Ry au, 
 
        Potential amp.        0.0506 Ry
        Total length         54.7057 bohr
 

     total cpu time spent up to now is      243.5 secs

     total energy              =   -8078.21419562 Ry
     estimated scf accuracy    <       6.33274922 Ry

     total magnetization       =    84.30 Bohr mag/cell
     absolute magnetization    =    94.62 Bohr mag/cell

     iteration # 15     ecut=    50.00 Ry     beta= 0.10
     Davidson diagonalization with overlap
     ethr =  4.10E-04,  avg # of iterations =  1.0

     negative rho (up, down):  1.026E-03 1.985E-03
 
     Adding external electric field

     Computed dipole along edir(3) : 
        Dipole               -0.8204 Ry au,         -2.0853 Debye
        Dipole field         -0.0005 Ry au, 
 
        Potential amp.        0.0538 Ry
        Total length         54.7057 bohr
 
 
     Adding external electric field

     Computed dipole along edir(3) : 
        Dipole               -0.8204 Ry au,         -2.0853 Debye
        Dipole field         -0.0005 Ry au, 
 
        Potential amp.        0.0538 Ry
        Total length         54.7057 bohr
 

     total cpu time spent up to now is      257.4 secs

     total energy              =   -8078.30480438 Ry
     estimated scf accuracy    <       2.41111013 Ry

     total magnetization       =    92.61 Bohr mag/cell
     absolute magnetization    =   100.70 Bohr mag/cell

     iteration # 16     ecut=    50.00 Ry     beta= 0.10
     Davidson diagonalization with overlap
     ethr =  2.18E-04,  avg # of iterations =  1.5

     negative rho (up, down):  1.045E-03 9.971E-04
 
     Adding external electric field

     Computed dipole along edir(3) : 
        Dipole               -0.8977 Ry au,         -2.2818 Debye
        Dipole field         -0.0005 Ry au, 
 
        Potential amp.        0.0589 Ry
        Total length         54.7057 bohr
 
 
     Adding external electric field

     Computed dipole along edir(3) : 
        Dipole               -0.8977 Ry au,         -2.2818 Debye
        Dipole field         -0.0005 Ry au, 
 
        Potential amp.        0.0589 Ry
        Total length         54.7057 bohr
 

     total cpu time spent up to now is      271.9 secs

     total energy              =   -8078.34718715 Ry
     estimated scf accuracy    <       2.00976087 Ry

     total magnetization       =    93.13 Bohr mag/cell
     absolute magnetization    =   101.11 Bohr mag/cell

     iteration # 17     ecut=    50.00 Ry     beta= 0.10
     Davidson diagonalization with overlap
     ethr =  1.81E-04,  avg # of iterations =  1.5

     negative rho (up, down):  7.540E-04 3.576E-04
 
     Adding external electric field

     Computed dipole along edir(3) : 
        Dipole               -0.9645 Ry au,         -2.4515 Debye
        Dipole field         -0.0006 Ry au, 
 
        Potential amp.        0.0633 Ry
        Total length         54.7057 bohr
 
 
     Adding external electric field

     Computed dipole along edir(3) : 
        Dipole               -0.9645 Ry au,         -2.4515 Debye
        Dipole field         -0.0006 Ry au, 
 
        Potential amp.        0.0633 Ry
        Total length         54.7057 bohr
 

     total cpu time spent up to now is      286.6 secs

     total energy              =   -8078.41343668 Ry
     estimated scf accuracy    <       0.96840972 Ry

     total magnetization       =    95.66 Bohr mag/cell
     absolute magnetization    =   102.72 Bohr mag/cell

     iteration # 18     ecut=    50.00 Ry     beta= 0.10
     Davidson diagonalization with overlap
     c_bands:  2 eigenvalues not converged
     ethr =  8.74E-05,  avg # of iterations = 10.5

     negative rho (up, down):  1.122E-03 4.103E-04
 
     Adding external electric field

     Computed dipole along edir(3) : 
        Dipole               -0.9814 Ry au,         -2.4946 Debye
        Dipole field         -0.0006 Ry au, 
 
        Potential amp.        0.0644 Ry
        Total length         54.7057 bohr
 
 
     Adding external electric field

     Computed dipole along edir(3) : 
        Dipole               -0.9814 Ry au,         -2.4946 Debye
        Dipole field         -0.0006 Ry au, 
 
        Potential amp.        0.0644 Ry
        Total length         54.7057 bohr
 

     total cpu time spent up to now is      308.8 secs

     total energy              =   -8078.45305318 Ry
     estimated scf accuracy    <       0.93661778 Ry

     total magnetization       =    95.43 Bohr mag/cell
     absolute magnetization    =   101.27 Bohr mag/cell

     iteration # 19     ecut=    50.00 Ry     beta= 0.10
     Davidson diagonalization with overlap
     ethr =  8.45E-05,  avg # of iterations =  1.5

     negative rho (up, down):  1.039E-03 3.232E-04
 
     Adding external electric field

     Computed dipole along edir(3) : 
        Dipole               -0.9796 Ry au,         -2.4898 Debye
        Dipole field         -0.0006 Ry au, 
 
        Potential amp.        0.0642 Ry
        Total length         54.7057 bohr
 
 
     Adding external electric field

     Computed dipole along edir(3) : 
        Dipole               -0.9796 Ry au,         -2.4898 Debye
        Dipole field         -0.0006 Ry au, 
 
        Potential amp.        0.0642 Ry
        Total length         54.7057 bohr
 

     total cpu time spent up to now is      323.7 secs

     total energy              =   -8078.46325790 Ry
     estimated scf accuracy    <       0.48626191 Ry

     total magnetization       =    97.71 Bohr mag/cell
     absolute magnetization    =   102.00 Bohr mag/cell

     iteration # 20     ecut=    50.00 Ry     beta= 0.10
     Davidson diagonalization with overlap
     ethr =  4.39E-05,  avg # of iterations =  1.0

     negative rho (up, down):  1.400E-03 4.173E-04
 
     Adding external electric field

     Computed dipole along edir(3) : 
        Dipole               -1.0115 Ry au,         -2.5710 Debye
        Dipole field         -0.0006 Ry au, 
 
        Potential amp.        0.0663 Ry
        Total length         54.7057 bohr
 
 
     Adding external electric field

     Computed dipole along edir(3) : 
        Dipole               -1.0115 Ry au,         -2.5710 Debye
        Dipole field         -0.0006 Ry au, 
 
        Potential amp.        0.0663 Ry
        Total length         54.7057 bohr
 

     total cpu time spent up to now is      338.3 secs

     total energy              =   -8078.47152049 Ry
     estimated scf accuracy    <       0.40594581 Ry

     total magnetization       =    97.74 Bohr mag/cell
     absolute magnetization    =   101.92 Bohr mag/cell

     iteration # 21     ecut=    50.00 Ry     beta= 0.10
     Davidson diagonalization with overlap
     ethr =  3.66E-05,  avg # of iterations =  2.0

     negative rho (up, down):  1.910E-03 7.195E-04
 
     Adding external electric field

     Computed dipole along edir(3) : 
        Dipole               -0.9756 Ry au,         -2.4797 Debye
        Dipole field         -0.0006 Ry au, 
 
        Potential amp.        0.0640 Ry
        Total length         54.7057 bohr
 
 
     Adding external electric field

     Computed dipole along edir(3) : 
        Dipole               -0.9756 Ry au,         -2.4797 Debye
        Dipole field         -0.0006 Ry au, 
 
        Potential amp.        0.0640 Ry
        Total length         54.7057 bohr
 

     total cpu time spent up to now is      353.5 secs

     total energy              =   -8078.49579804 Ry
     estimated scf accuracy    <       0.23606206 Ry

     total magnetization       =    97.83 Bohr mag/cell
     absolute magnetization    =   100.70 Bohr mag/cell

     iteration # 22     ecut=    50.00 Ry     beta= 0.10
     Davidson diagonalization with overlap
     ethr =  2.13E-05,  avg # of iterations =  2.0

     negative rho (up, down):  1.586E-03 7.668E-04
 
     Adding external electric field

     Computed dipole along edir(3) : 
        Dipole               -0.9055 Ry au,         -2.3016 Debye
        Dipole field         -0.0005 Ry au, 
 
        Potential amp.        0.0594 Ry
        Total length         54.7057 bohr
 
 
     Adding external electric field

     Computed dipole along edir(3) : 
        Dipole               -0.9055 Ry au,         -2.3016 Debye
        Dipole field         -0.0005 Ry au, 
 
        Potential amp.        0.0594 Ry
        Total length         54.7057 bohr
 

     total cpu time spent up to now is      368.9 secs

     total energy              =   -8078.52857111 Ry
     estimated scf accuracy    <       0.19436154 Ry

     total magnetization       =    97.64 Bohr mag/cell
     absolute magnetization    =    99.22 Bohr mag/cell

     iteration # 23     ecut=    50.00 Ry     beta= 0.10
     Davidson diagonalization with overlap
     ethr =  1.75E-05,  avg # of iterations = 12.5

     negative rho (up, down):  4.593E-04 1.041E-04
 
     Adding external electric field

     Computed dipole along edir(3) : 
        Dipole               -0.8399 Ry au,         -2.1347 Debye
        Dipole field         -0.0005 Ry au, 
 
        Potential amp.        0.0551 Ry
        Total length         54.7057 bohr
 
 
     Adding external electric field

     Computed dipole along edir(3) : 
        Dipole               -0.8399 Ry au,         -2.1347 Debye
        Dipole field         -0.0005 Ry au, 
 
        Potential amp.        0.0551 Ry
        Total length         54.7057 bohr
 

     total cpu time spent up to now is      396.8 secs

     total energy              =   -8078.55001668 Ry
     estimated scf accuracy    <       0.14869226 Ry

     total magnetization       =    97.78 Bohr mag/cell
     absolute magnetization    =    98.92 Bohr mag/cell

     iteration # 24     ecut=    50.00 Ry     beta= 0.10
     Davidson diagonalization with overlap
     ethr =  1.34E-05,  avg # of iterations =  2.5

     negative rho (up, down):  9.122E-05 1.821E-05
 
     Adding external electric field

     Computed dipole along edir(3) : 
        Dipole               -0.7831 Ry au,         -1.9906 Debye
        Dipole field         -0.0005 Ry au, 
 
        Potential amp.        0.0514 Ry
        Total length         54.7057 bohr
 
 
     Adding external electric field

     Computed dipole along edir(3) : 
        Dipole               -0.7831 Ry au,         -1.9906 Debye
        Dipole field         -0.0005 Ry au, 
 
        Potential amp.        0.0514 Ry
        Total length         54.7057 bohr
 

     total cpu time spent up to now is      411.1 secs

     total energy              =   -8078.56089436 Ry
     estimated scf accuracy    <       0.05405902 Ry

     total magnetization       =    97.21 Bohr mag/cell
     absolute magnetization    =    98.29 Bohr mag/cell

     iteration # 25     ecut=    50.00 Ry     beta= 0.10
     Davidson diagonalization with overlap
     c_bands:  1 eigenvalues not converged
     ethr =  4.88E-06,  avg # of iterations = 31.0

     negative rho (up, down):  4.397E-05 9.321E-06
 
     Adding external electric field

     Computed dipole along edir(3) : 
        Dipole               -0.7583 Ry au,         -1.9275 Debye
        Dipole field         -0.0005 Ry au, 
 
        Potential amp.        0.0497 Ry
        Total length         54.7057 bohr
 
 
     Adding external electric field

     Computed dipole along edir(3) : 
        Dipole               -0.7583 Ry au,         -1.9275 Debye
        Dipole field         -0.0005 Ry au, 
 
        Potential amp.        0.0497 Ry
        Total length         54.7057 bohr
 

     total cpu time spent up to now is      451.5 secs

     total energy              =   -8078.56288137 Ry
     estimated scf accuracy    <       0.05368453 Ry

     total magnetization       =    97.05 Bohr mag/cell
     absolute magnetization    =    98.13 Bohr mag/cell

     iteration # 26     ecut=    50.00 Ry     beta= 0.10
     Davidson diagonalization with overlap
     ethr =  4.85E-06,  avg # of iterations =  2.5

     negative rho (up, down):  2.022E-05 1.857E-06
 
     Adding external electric field

     Computed dipole along edir(3) : 
        Dipole               -0.7335 Ry au,         -1.8643 Debye
        Dipole field         -0.0004 Ry au, 
 
        Potential amp.        0.0481 Ry
        Total length         54.7057 bohr
 
 
     Adding external electric field

     Computed dipole along edir(3) : 
        Dipole               -0.7335 Ry au,         -1.8643 Debye
        Dipole field         -0.0004 Ry au, 
 
        Potential amp.        0.0481 Ry
        Total length         54.7057 bohr
 

     total cpu time spent up to now is      464.8 secs

     total energy              =   -8078.56208613 Ry
     estimated scf accuracy    <       0.04127206 Ry

     total magnetization       =    96.91 Bohr mag/cell
     absolute magnetization    =    97.99 Bohr mag/cell

     iteration # 27     ecut=    50.00 Ry     beta= 0.10
     Davidson diagonalization with overlap
     ethr =  3.72E-06,  avg # of iterations =  2.5

     negative rho (up, down):  9.322E-05 7.885E-05
 
     Adding external electric field

     Computed dipole along edir(3) : 
        Dipole               -0.6680 Ry au,         -1.6979 Debye
        Dipole field         -0.0004 Ry au, 
 
        Potential amp.        0.0438 Ry
        Total length         54.7057 bohr
 
 
     Adding external electric field

     Computed dipole along edir(3) : 
        Dipole               -0.6680 Ry au,         -1.6979 Debye
        Dipole field         -0.0004 Ry au, 
 
        Potential amp.        0.0438 Ry
        Total length         54.7057 bohr
 

     total cpu time spent up to now is      478.3 secs

     total energy              =   -8078.56184733 Ry
     estimated scf accuracy    <       0.05335335 Ry

     total magnetization       =    97.02 Bohr mag/cell
     absolute magnetization    =    98.10 Bohr mag/cell

     iteration # 28     ecut=    50.00 Ry     beta= 0.10
     Davidson diagonalization with overlap
     ethr =  3.72E-06,  avg # of iterations =  2.0

     negative rho (up, down):  3.909E-04 4.837E-04
 
     Adding external electric field

     Computed dipole along edir(3) : 
        Dipole               -0.6321 Ry au,         -1.6066 Debye
        Dipole field         -0.0004 Ry au, 
 
        Potential amp.        0.0415 Ry
        Total length         54.7057 bohr
 
 
     Adding external electric field

     Computed dipole along edir(3) : 
        Dipole               -0.6321 Ry au,         -1.6066 Debye
        Dipole field         -0.0004 Ry au, 
 
        Potential amp.        0.0415 Ry
        Total length         54.7057 bohr
 

     total cpu time spent up to now is      492.4 secs

     total energy              =   -8078.56205811 Ry
     estimated scf accuracy    <       0.03481736 Ry

     total magnetization       =    96.90 Bohr mag/cell
     absolute magnetization    =    97.99 Bohr mag/cell

     iteration # 29     ecut=    50.00 Ry     beta= 0.10
     Davidson diagonalization with overlap
     ethr =  3.14E-06,  avg # of iterations =  2.0

     negative rho (up, down):  8.153E-04 8.969E-04
 
     Adding external electric field

     Computed dipole along edir(3) : 
        Dipole               -0.6029 Ry au,         -1.5325 Debye
        Dipole field         -0.0004 Ry au, 
 
        Potential amp.        0.0395 Ry
        Total length         54.7057 bohr
 
 
     Adding external electric field

     Computed dipole along edir(3) : 
        Dipole               -0.6029 Ry au,         -1.5325 Debye
        Dipole field         -0.0004 Ry au, 
 
        Potential amp.        0.0395 Ry
        Total length         54.7057 bohr
 

     total cpu time spent up to now is      505.7 secs

     total energy              =   -8078.56098284 Ry
     estimated scf accuracy    <       0.03990268 Ry

     total magnetization       =    96.94 Bohr mag/cell
     absolute magnetization    =    98.02 Bohr mag/cell

     iteration # 30     ecut=    50.00 Ry     beta= 0.10
     Davidson diagonalization with overlap
     ethr =  3.14E-06,  avg # of iterations =  6.5

     negative rho (up, down):  2.264E-03 2.186E-03
 
     Adding external electric field

     Computed dipole along edir(3) : 
        Dipole               -0.5548 Ry au,         -1.4102 Debye
        Dipole field         -0.0003 Ry au, 
 
        Potential amp.        0.0364 Ry
        Total length         54.7057 bohr
 
 
     Adding external electric field

     Computed dipole along edir(3) : 
        Dipole               -0.5548 Ry au,         -1.4102 Debye
        Dipole field         -0.0003 Ry au, 
 
        Potential amp.        0.0364 Ry
        Total length         54.7057 bohr
 

     total cpu time spent up to now is      521.5 secs

     total energy              =   -8078.55990505 Ry
     estimated scf accuracy    <       0.04378157 Ry

     total magnetization       =    97.06 Bohr mag/cell
     absolute magnetization    =    98.14 Bohr mag/cell

     iteration # 31     ecut=    50.00 Ry     beta= 0.10
     Davidson diagonalization with overlap
     c_bands:  2 eigenvalues not converged
     ethr =  3.14E-06,  avg # of iterations = 11.0

     negative rho (up, down):  1.611E-03 1.728E-03
 
     Adding external electric field

     Computed dipole along edir(3) : 
        Dipole               -0.5832 Ry au,         -1.4824 Debye
        Dipole field         -0.0003 Ry au, 
 
        Potential amp.        0.0383 Ry
        Total length         54.7057 bohr
 
 
     Adding external electric field

     Computed dipole along edir(3) : 
        Dipole               -0.5832 Ry au,         -1.4824 Debye
        Dipole field         -0.0003 Ry au, 
 
        Potential amp.        0.0383 Ry
        Total length         54.7057 bohr
 

     total cpu time spent up to now is      539.7 secs

     total energy              =   -8078.56090210 Ry
     estimated scf accuracy    <       0.04765718 Ry

     total magnetization       =    97.08 Bohr mag/cell
     absolute magnetization    =    98.18 Bohr mag/cell

     iteration # 32     ecut=    50.00 Ry     beta= 0.10
     Davidson diagonalization with overlap
     c_bands:  1 eigenvalues not converged
     ethr =  3.14E-06,  avg # of iterations = 11.0

     negative rho (up, down):  1.749E-03 1.298E-03
 
     Adding external electric field

     Computed dipole along edir(3) : 
        Dipole               -0.4799 Ry au,         -1.2198 Debye
        Dipole field         -0.0003 Ry au, 
 
        Potential amp.        0.0315 Ry
        Total length         54.7057 bohr
 
 
     Adding external electric field

     Computed dipole along edir(3) : 
        Dipole               -0.4799 Ry au,         -1.2198 Debye
        Dipole field         -0.0003 Ry au, 
 
        Potential amp.        0.0315 Ry
        Total length         54.7057 bohr
 

     total cpu time spent up to now is      558.7 secs

     total energy              =   -8078.55969087 Ry
     estimated scf accuracy    <       0.04830836 Ry

     total magnetization       =    97.07 Bohr mag/cell
     absolute magnetization    =    98.16 Bohr mag/cell

     iteration # 33     ecut=    50.00 Ry     beta= 0.10
     Davidson diagonalization with overlap
     ethr =  3.14E-06,  avg # of iterations =  3.5

     negative rho (up, down):  8.621E-04 4.953E-04
 
     Adding external electric field

     Computed dipole along edir(3) : 
        Dipole               -0.4684 Ry au,         -1.1907 Debye
        Dipole field         -0.0003 Ry au, 
 
        Potential amp.        0.0307 Ry
        Total length         54.7057 bohr
 
 
     Adding external electric field

     Computed dipole along edir(3) : 
        Dipole               -0.4684 Ry au,         -1.1907 Debye
        Dipole field         -0.0003 Ry au, 
 
        Potential amp.        0.0307 Ry
        Total length         54.7057 bohr
 

     total cpu time spent up to now is      573.8 secs

     total energy              =   -8078.55993900 Ry
     estimated scf accuracy    <       0.04605821 Ry

     total magnetization       =    97.02 Bohr mag/cell
     absolute magnetization    =    98.13 Bohr mag/cell

     iteration # 34     ecut=    50.00 Ry     beta= 0.10
     Davidson diagonalization with overlap
     ethr =  3.14E-06,  avg # of iterations =  2.0

     negative rho (up, down):  1.096E-03 6.314E-04
 
     Adding external electric field

     Computed dipole along edir(3) : 
        Dipole               -0.4331 Ry au,         -1.1008 Debye
        Dipole field         -0.0003 Ry au, 
 
        Potential amp.        0.0284 Ry
        Total length         54.7057 bohr
 
 
     Adding external electric field

     Computed dipole along edir(3) : 
        Dipole               -0.4331 Ry au,         -1.1008 Debye
        Dipole field         -0.0003 Ry au, 
 
        Potential amp.        0.0284 Ry
        Total length         54.7057 bohr
 

     total cpu time spent up to now is      588.9 secs

     total energy              =   -8078.55948617 Ry
     estimated scf accuracy    <       0.04360418 Ry

     total magnetization       =    97.07 Bohr mag/cell
     absolute magnetization    =    98.17 Bohr mag/cell

     iteration # 35     ecut=    50.00 Ry     beta= 0.10
     Davidson diagonalization with overlap
     ethr =  3.14E-06,  avg # of iterations =  2.0

     negative rho (up, down):  6.872E-04 4.538E-04
 
     Adding external electric field

     Computed dipole along edir(3) : 
        Dipole               -0.4104 Ry au,         -1.0432 Debye
        Dipole field         -0.0002 Ry au, 
 
        Potential amp.        0.0269 Ry
        Total length         54.7057 bohr
 
 
     Adding external electric field

     Computed dipole along edir(3) : 
        Dipole               -0.4104 Ry au,         -1.0432 Debye
        Dipole field         -0.0002 Ry au, 
 
        Potential amp.        0.0269 Ry
        Total length         54.7057 bohr
 

     total cpu time spent up to now is      604.5 secs

     total energy              =   -8078.55940784 Ry
     estimated scf accuracy    <       0.04047723 Ry

     total magnetization       =    97.08 Bohr mag/cell
     absolute magnetization    =    98.17 Bohr mag/cell

     iteration # 36     ecut=    50.00 Ry     beta= 0.10
     Davidson diagonalization with overlap
     ethr =  3.14E-06,  avg # of iterations =  2.0

     negative rho (up, down):  1.968E-04 1.016E-04
 
     Adding external electric field

     Computed dipole along edir(3) : 
        Dipole               -0.4216 Ry au,         -1.0716 Debye
        Dipole field         -0.0003 Ry au, 
 
        Potential amp.        0.0277 Ry
        Total length         54.7057 bohr
 
 
     Adding external electric field

     Computed dipole along edir(3) : 
        Dipole               -0.4216 Ry au,         -1.0716 Debye
        Dipole field         -0.0003 Ry au, 
 
        Potential amp.        0.0277 Ry
        Total length         54.7057 bohr
 

     total cpu time spent up to now is      620.1 secs

     total energy              =   -8078.55786048 Ry
     estimated scf accuracy    <       0.03849295 Ry

     total magnetization       =    97.05 Bohr mag/cell
     absolute magnetization    =    98.10 Bohr mag/cell

     iteration # 37     ecut=    50.00 Ry     beta= 0.10
     Davidson diagonalization with overlap
     ethr =  3.14E-06,  avg # of iterations =  4.0

     negative rho (up, down):  6.877E-04 4.290E-04
 
     Adding external electric field

     Computed dipole along edir(3) : 
        Dipole               -0.4042 Ry au,         -1.0273 Debye
        Dipole field         -0.0002 Ry au, 
 
        Potential amp.        0.0265 Ry
        Total length         54.7057 bohr
 
 
     Adding external electric field

     Computed dipole along edir(3) : 
        Dipole               -0.4042 Ry au,         -1.0273 Debye
        Dipole field         -0.0002 Ry au, 
 
        Potential amp.        0.0265 Ry
        Total length         54.7057 bohr
 

     total cpu time spent up to now is      636.9 secs

     total energy              =   -8078.55758021 Ry
     estimated scf accuracy    <       0.03320850 Ry

     total magnetization       =    97.00 Bohr mag/cell
     absolute magnetization    =    97.98 Bohr mag/cell

     iteration # 38     ecut=    50.00 Ry     beta= 0.10
     Davidson diagonalization with overlap
     ethr =  3.00E-06,  avg # of iterations =  2.0

     negative rho (up, down):  1.051E-03 4.789E-04
 
     Adding external electric field

     Computed dipole along edir(3) : 
        Dipole               -0.3216 Ry au,         -0.8175 Debye
        Dipole field         -0.0002 Ry au, 
 
        Potential amp.        0.0211 Ry
        Total length         54.7057 bohr
 
 
     Adding external electric field

     Computed dipole along edir(3) : 
        Dipole               -0.3216 Ry au,         -0.8175 Debye
        Dipole field         -0.0002 Ry au, 
 
        Potential amp.        0.0211 Ry
        Total length         54.7057 bohr
 

     total cpu time spent up to now is      652.3 secs

     total energy              =   -8078.55653026 Ry
     estimated scf accuracy    <       0.03662968 Ry

     total magnetization       =    97.03 Bohr mag/cell
     absolute magnetization    =    98.00 Bohr mag/cell

     iteration # 39     ecut=    50.00 Ry     beta= 0.10
     Davidson diagonalization with overlap
     ethr =  3.00E-06,  avg # of iterations = 19.0

     negative rho (up, down):  8.909E-04 4.235E-04
 
     Adding external electric field

     Computed dipole along edir(3) : 
        Dipole               -0.2899 Ry au,         -0.7368 Debye
        Dipole field         -0.0002 Ry au, 
 
        Potential amp.        0.0190 Ry
        Total length         54.7057 bohr
 
 
     Adding external electric field

     Computed dipole along edir(3) : 
        Dipole               -0.2899 Ry au,         -0.7368 Debye
        Dipole field         -0.0002 Ry au, 
 
        Potential amp.        0.0190 Ry
        Total length         54.7057 bohr
 

     total cpu time spent up to now is      683.9 secs

     total energy              =   -8078.55743818 Ry
     estimated scf accuracy    <       0.02378768 Ry

     total magnetization       =    97.14 Bohr mag/cell
     absolute magnetization    =    98.20 Bohr mag/cell

     iteration # 40     ecut=    50.00 Ry     beta= 0.10
     Davidson diagonalization with overlap
     c_bands:  3 eigenvalues not converged
     ethr =  2.15E-06,  avg # of iterations = 12.5

     negative rho (up, down):  3.364E-03 2.188E-03
 
     Adding external electric field

     Computed dipole along edir(3) : 
        Dipole               -0.2013 Ry au,         -0.5117 Debye
        Dipole field         -0.0001 Ry au, 
 
        Potential amp.        0.0132 Ry
        Total length         54.7057 bohr
 
 
     Adding external electric field

     Computed dipole along edir(3) : 
        Dipole               -0.2013 Ry au,         -0.5117 Debye
        Dipole field         -0.0001 Ry au, 
 
        Potential amp.        0.0132 Ry
        Total length         54.7057 bohr
 

     total cpu time spent up to now is      708.3 secs

     total energy              =   -8078.55868993 Ry
     estimated scf accuracy    <       0.01385358 Ry

     total magnetization       =    97.16 Bohr mag/cell
     absolute magnetization    =    98.28 Bohr mag/cell

     iteration # 41     ecut=    50.00 Ry     beta= 0.10
     Davidson diagonalization with overlap
     ethr =  1.25E-06,  avg # of iterations =  8.0

     negative rho (up, down):  1.726E-02 1.483E-02
 
     Adding external electric field

     Computed dipole along edir(3) : 
        Dipole               -0.0653 Ry au,         -0.1661 Debye
        Dipole field         -0.0000 Ry au, 
 
        Potential amp.        0.0043 Ry
        Total length         54.7057 bohr
 
 
     Adding external electric field

     Computed dipole along edir(3) : 
        Dipole               -0.0653 Ry au,         -0.1661 Debye
        Dipole field         -0.0000 Ry au, 
 
        Potential amp.        0.0043 Ry
        Total length         54.7057 bohr
 

     total cpu time spent up to now is      728.1 secs

     total energy              =   -8078.56040117 Ry
     estimated scf accuracy    <       0.00851575 Ry

     total magnetization       =    97.10 Bohr mag/cell
     absolute magnetization    =    98.29 Bohr mag/cell

     iteration # 42     ecut=    50.00 Ry     beta= 0.10
     Davidson diagonalization with overlap
     c_bands:  2 eigenvalues not converged
     c_bands:  2 eigenvalues not converged
     ethr =  7.69E-07,  avg # of iterations = 20.0

     negative rho (up, down):  8.697E-03 8.209E-03
 
     Adding external electric field

     Computed dipole along edir(3) : 
        Dipole               -0.0928 Ry au,         -0.2358 Debye
        Dipole field         -0.0001 Ry au, 
 
        Potential amp.        0.0061 Ry
        Total length         54.7057 bohr
 
 
     Adding external electric field

     Computed dipole along edir(3) : 
        Dipole               -0.0928 Ry au,         -0.2358 Debye
        Dipole field         -0.0001 Ry au, 
 
        Potential amp.        0.0061 Ry
        Total length         54.7057 bohr
 

     total cpu time spent up to now is      756.0 secs

     total energy              =   -8078.56111368 Ry
     estimated scf accuracy    <       0.00452053 Ry

     total magnetization       =    97.07 Bohr mag/cell
     absolute magnetization    =    98.30 Bohr mag/cell

     iteration # 43     ecut=    50.00 Ry     beta= 0.10
     Davidson diagonalization with overlap
     ethr =  4.08E-07,  avg # of iterations =  9.0

     negative rho (up, down):  9.952E-03 9.562E-03
 
     Adding external electric field

     Computed dipole along edir(3) : 
        Dipole               -0.0885 Ry au,         -0.2249 Debye
        Dipole field         -0.0001 Ry au, 
 
        Potential amp.        0.0058 Ry
        Total length         54.7057 bohr
 
 
     Adding external electric field

     Computed dipole along edir(3) : 
        Dipole               -0.0885 Ry au,         -0.2249 Debye
        Dipole field         -0.0001 Ry au, 
 
        Potential amp.        0.0058 Ry
        Total length         54.7057 bohr
 

     total cpu time spent up to now is      775.8 secs

     total energy              =   -8078.56140392 Ry
     estimated scf accuracy    <       0.00183094 Ry

     total magnetization       =    97.04 Bohr mag/cell
     absolute magnetization    =    98.29 Bohr mag/cell

     iteration # 44     ecut=    50.00 Ry     beta= 0.10
     Davidson diagonalization with overlap
     ethr =  1.65E-07,  avg # of iterations =  2.0

     negative rho (up, down):  4.836E-03 4.635E-03
 
     Adding external electric field

     Computed dipole along edir(3) : 
        Dipole               -0.1290 Ry au,         -0.3279 Debye
        Dipole field         -0.0001 Ry au, 
 
        Potential amp.        0.0085 Ry
        Total length         54.7057 bohr
 
 
     Adding external electric field

     Computed dipole along edir(3) : 
        Dipole               -0.1290 Ry au,         -0.3279 Debye
        Dipole field         -0.0001 Ry au, 
 
        Potential amp.        0.0085 Ry
        Total length         54.7057 bohr
 

     total cpu time spent up to now is      791.2 secs

     total energy              =   -8078.56128536 Ry
     estimated scf accuracy    <       0.00101960 Ry

     total magnetization       =    97.06 Bohr mag/cell
     absolute magnetization    =    98.30 Bohr mag/cell

     iteration # 45     ecut=    50.00 Ry     beta= 0.10
     Davidson diagonalization with overlap
     ethr =  9.20E-08,  avg # of iterations =  2.0

     negative rho (up, down):  2.543E-03 2.373E-03
 
     Adding external electric field

     Computed dipole along edir(3) : 
        Dipole               -0.1435 Ry au,         -0.3646 Debye
        Dipole field         -0.0001 Ry au, 
 
        Potential amp.        0.0094 Ry
        Total length         54.7057 bohr
 
 
     Adding external electric field

     Computed dipole along edir(3) : 
        Dipole               -0.1435 Ry au,         -0.3646 Debye
        Dipole field         -0.0001 Ry au, 
 
        Potential amp.        0.0094 Ry
        Total length         54.7057 bohr
 

     total cpu time spent up to now is      806.3 secs

     total energy              =   -8078.56134066 Ry
     estimated scf accuracy    <       0.00059047 Ry

     total magnetization       =    97.06 Bohr mag/cell
     absolute magnetization    =    98.31 Bohr mag/cell

     iteration # 46     ecut=    50.00 Ry     beta= 0.10
     Davidson diagonalization with overlap
     ethr =  5.33E-08,  avg # of iterations =  2.0

     negative rho (up, down):  1.739E-03 1.466E-03
 
     Adding external electric field

     Computed dipole along edir(3) : 
        Dipole               -0.1483 Ry au,         -0.3769 Debye
        Dipole field         -0.0001 Ry au, 
 
        Potential amp.        0.0097 Ry
        Total length         54.7057 bohr
 
 
     Adding external electric field

     Computed dipole along edir(3) : 
        Dipole               -0.1483 Ry au,         -0.3769 Debye
        Dipole field         -0.0001 Ry au, 
 
        Potential amp.        0.0097 Ry
        Total length         54.7057 bohr
 

     total cpu time spent up to now is      822.6 secs

     total energy              =   -8078.56138892 Ry
     estimated scf accuracy    <       0.00035968 Ry

     total magnetization       =    97.08 Bohr mag/cell
     absolute magnetization    =    98.33 Bohr mag/cell

     iteration # 47     ecut=    50.00 Ry     beta= 0.10
     Davidson diagonalization with overlap
     ethr =  3.25E-08,  avg # of iterations =  2.0

     negative rho (up, down):  9.308E-04 4.939E-04
 
     Adding external electric field

     Computed dipole along edir(3) : 
        Dipole               -0.1621 Ry au,         -0.4119 Debye
        Dipole field         -0.0001 Ry au, 
 
        Potential amp.        0.0106 Ry
        Total length         54.7057 bohr
 
 
     Adding external electric field

     Computed dipole along edir(3) : 
        Dipole               -0.1621 Ry au,         -0.4119 Debye
        Dipole field         -0.0001 Ry au, 
 
        Potential amp.        0.0106 Ry
        Total length         54.7057 bohr
 

     total cpu time spent up to now is      838.6 secs

     total energy              =   -8078.56137829 Ry
     estimated scf accuracy    <       0.00027701 Ry

     total magnetization       =    97.09 Bohr mag/cell
     absolute magnetization    =    98.33 Bohr mag/cell

     iteration # 48     ecut=    50.00 Ry     beta= 0.10
     Davidson diagonalization with overlap
     ethr =  2.50E-08,  avg # of iterations = 14.0

     negative rho (up, down):  6.721E-04 2.670E-04
 
     Adding external electric field

     Computed dipole along edir(3) : 
        Dipole               -0.1688 Ry au,         -0.4289 Debye
        Dipole field         -0.0001 Ry au, 
 
        Potential amp.        0.0111 Ry
        Total length         54.7057 bohr
 
 
     Adding external electric field

     Computed dipole along edir(3) : 
        Dipole               -0.1688 Ry au,         -0.4289 Debye
        Dipole field         -0.0001 Ry au, 
 
        Potential amp.        0.0111 Ry
        Total length         54.7057 bohr
 

     total cpu time spent up to now is      861.6 secs

     total energy              =   -8078.56137962 Ry
     estimated scf accuracy    <       0.00017259 Ry

     total magnetization       =    97.11 Bohr mag/cell
     absolute magnetization    =    98.35 Bohr mag/cell

     iteration # 49     ecut=    50.00 Ry     beta= 0.10
     Davidson diagonalization with overlap
     ethr =  1.56E-08,  avg # of iterations =  2.0

     negative rho (up, down):  5.977E-04 2.211E-04
 
     Adding external electric field

     Computed dipole along edir(3) : 
        Dipole               -0.1676 Ry au,         -0.4259 Debye
        Dipole field         -0.0001 Ry au, 
 
        Potential amp.        0.0110 Ry
        Total length         54.7057 bohr
 
 
     Adding external electric field

     Computed dipole along edir(3) : 
        Dipole               -0.1676 Ry au,         -0.4259 Debye
        Dipole field         -0.0001 Ry au, 
 
        Potential amp.        0.0110 Ry
        Total length         54.7057 bohr
 

     total cpu time spent up to now is      877.2 secs

     total energy              =   -8078.56139167 Ry
     estimated scf accuracy    <       0.00012733 Ry

     total magnetization       =    97.12 Bohr mag/cell
     absolute magnetization    =    98.36 Bohr mag/cell

     iteration # 50     ecut=    50.00 Ry     beta= 0.10
     Davidson diagonalization with overlap
     ethr =  1.15E-08,  avg # of iterations =  1.5

     negative rho (up, down):  5.725E-04 1.974E-04
 
     Adding external electric field

     Computed dipole along edir(3) : 
        Dipole               -0.1675 Ry au,         -0.4258 Debye
        Dipole field         -0.0001 Ry au, 
 
        Potential amp.        0.0110 Ry
        Total length         54.7057 bohr
 
 
     Adding external electric field

     Computed dipole along edir(3) : 
        Dipole               -0.1675 Ry au,         -0.4258 Debye
        Dipole field         -0.0001 Ry au, 
 
        Potential amp.        0.0110 Ry
        Total length         54.7057 bohr
 

     total cpu time spent up to now is      892.0 secs

     total energy              =   -8078.56139307 Ry
     estimated scf accuracy    <       0.00007622 Ry

     total magnetization       =    97.12 Bohr mag/cell
     absolute magnetization    =    98.35 Bohr mag/cell

     iteration # 51     ecut=    50.00 Ry     beta= 0.10
     Davidson diagonalization with overlap
     ethr =  6.88E-09,  avg # of iterations =  2.0

     negative rho (up, down):  6.043E-04 2.006E-04
 
     Adding external electric field

     Computed dipole along edir(3) : 
        Dipole               -0.1666 Ry au,         -0.4234 Debye
        Dipole field         -0.0001 Ry au, 
 
        Potential amp.        0.0109 Ry
        Total length         54.7057 bohr
 
 
     Adding external electric field

     Computed dipole along edir(3) : 
        Dipole               -0.1666 Ry au,         -0.4234 Debye
        Dipole field         -0.0001 Ry au, 
 
        Potential amp.        0.0109 Ry
        Total length         54.7057 bohr
 

     total cpu time spent up to now is      908.0 secs

     total energy              =   -8078.56139900 Ry
     estimated scf accuracy    <       0.00003968 Ry

     total magnetization       =    97.12 Bohr mag/cell
     absolute magnetization    =    98.33 Bohr mag/cell

     iteration # 52     ecut=    50.00 Ry     beta= 0.10
     Davidson diagonalization with overlap
     ethr =  3.58E-09,  avg # of iterations =  1.5

     negative rho (up, down):  6.118E-04 2.072E-04
 
     Adding external electric field

     Computed dipole along edir(3) : 
        Dipole               -0.1660 Ry au,         -0.4220 Debye
        Dipole field         -0.0001 Ry au, 
 
        Potential amp.        0.0109 Ry
        Total length         54.7057 bohr
 
 
     Adding external electric field

     Computed dipole along edir(3) : 
        Dipole               -0.1660 Ry au,         -0.4220 Debye
        Dipole field         -0.0001 Ry au, 
 
        Potential amp.        0.0109 Ry
        Total length         54.7057 bohr
 

     total cpu time spent up to now is      922.1 secs

     total energy              =   -8078.56139933 Ry
     estimated scf accuracy    <       0.00002764 Ry

     total magnetization       =    97.12 Bohr mag/cell
     absolute magnetization    =    98.33 Bohr mag/cell

     iteration # 53     ecut=    50.00 Ry     beta= 0.10
     Davidson diagonalization with overlap
     ethr =  2.49E-09,  avg # of iterations =  1.5

     negative rho (up, down):  5.984E-04 2.066E-04
 
     Adding external electric field

     Computed dipole along edir(3) : 
        Dipole               -0.1658 Ry au,         -0.4214 Debye
        Dipole field         -0.0001 Ry au, 
 
        Potential amp.        0.0109 Ry
        Total length         54.7057 bohr
 
 
     Adding external electric field

     Computed dipole along edir(3) : 
        Dipole               -0.1658 Ry au,         -0.4214 Debye
        Dipole field         -0.0001 Ry au, 
 
        Potential amp.        0.0109 Ry
        Total length         54.7057 bohr
 

     total cpu time spent up to now is      936.8 secs

     total energy              =   -8078.56139884 Ry
     estimated scf accuracy    <       0.00001876 Ry

     total magnetization       =    97.11 Bohr mag/cell
     absolute magnetization    =    98.33 Bohr mag/cell

     iteration # 54     ecut=    50.00 Ry     beta= 0.10
     Davidson diagonalization with overlap
     ethr =  1.69E-09,  avg # of iterations =  2.0

     negative rho (up, down):  6.354E-04 2.238E-04
 
     Adding external electric field

     Computed dipole along edir(3) : 
        Dipole               -0.1650 Ry au,         -0.4193 Debye
        Dipole field         -0.0001 Ry au, 
 
        Potential amp.        0.0108 Ry
        Total length         54.7057 bohr
 
 
     Adding external electric field

     Computed dipole along edir(3) : 
        Dipole               -0.1650 Ry au,         -0.4193 Debye
        Dipole field         -0.0001 Ry au, 
 
        Potential amp.        0.0108 Ry
        Total length         54.7057 bohr
 

     total cpu time spent up to now is      952.7 secs

     total energy              =   -8078.56139914 Ry
     estimated scf accuracy    <       0.00000985 Ry

     total magnetization       =    97.11 Bohr mag/cell
     absolute magnetization    =    98.32 Bohr mag/cell

     iteration # 55     ecut=    50.00 Ry     beta= 0.10
     Davidson diagonalization with overlap
     ethr =  8.89E-10,  avg # of iterations =  2.0

     negative rho (up, down):  7.152E-04 2.721E-04
 
     Adding external electric field

     Computed dipole along edir(3) : 
        Dipole               -0.1637 Ry au,         -0.4161 Debye
        Dipole field         -0.0001 Ry au, 
 
        Potential amp.        0.0107 Ry
        Total length         54.7057 bohr
 
 
     Adding external electric field

     Computed dipole along edir(3) : 
        Dipole               -0.1637 Ry au,         -0.4161 Debye
        Dipole field         -0.0001 Ry au, 
 
        Potential amp.        0.0107 Ry
        Total length         54.7057 bohr
 

     total cpu time spent up to now is      968.6 secs

     total energy              =   -8078.56139982 Ry
     estimated scf accuracy    <       0.00000604 Ry

     total magnetization       =    97.11 Bohr mag/cell
     absolute magnetization    =    98.32 Bohr mag/cell

     iteration # 56     ecut=    50.00 Ry     beta= 0.10
     Davidson diagonalization with overlap
     ethr =  5.45E-10,  avg # of iterations =  2.0

     negative rho (up, down):  8.089E-04 3.371E-04
 
     Adding external electric field

     Computed dipole along edir(3) : 
        Dipole               -0.1625 Ry au,         -0.4130 Debye
        Dipole field         -0.0001 Ry au, 
 
        Potential amp.        0.0107 Ry
        Total length         54.7057 bohr
 
 
     Adding external electric field

     Computed dipole along edir(3) : 
        Dipole               -0.1625 Ry au,         -0.4130 Debye
        Dipole field         -0.0001 Ry au, 
 
        Potential amp.        0.0107 Ry
        Total length         54.7057 bohr
 

     total cpu time spent up to now is      984.1 secs

     total energy              =   -8078.56140077 Ry
     estimated scf accuracy    <       0.00000357 Ry

     total magnetization       =    97.11 Bohr mag/cell
     absolute magnetization    =    98.32 Bohr mag/cell

     iteration # 57     ecut=    50.00 Ry     beta= 0.10
     Davidson diagonalization with overlap
     ethr =  3.22E-10,  avg # of iterations =  1.5

     negative rho (up, down):  9.134E-04 4.016E-04
 
     Adding external electric field

     Computed dipole along edir(3) : 
        Dipole               -0.1611 Ry au,         -0.4095 Debye
        Dipole field         -0.0001 Ry au, 
 
        Potential amp.        0.0106 Ry
        Total length         54.7057 bohr
 
 
     Adding external electric field

     Computed dipole along edir(3) : 
        Dipole               -0.1611 Ry au,         -0.4095 Debye
        Dipole field         -0.0001 Ry au, 
 
        Potential amp.        0.0106 Ry
        Total length         54.7057 bohr
 

     total cpu time spent up to now is      999.7 secs

     total energy              =   -8078.56140183 Ry
     estimated scf accuracy    <       0.00000243 Ry

     total magnetization       =    97.11 Bohr mag/cell
     absolute magnetization    =    98.32 Bohr mag/cell

     iteration # 58     ecut=    50.00 Ry     beta= 0.10
     Davidson diagonalization with overlap
     ethr =  2.19E-10,  avg # of iterations =  1.5

     negative rho (up, down):  1.037E-03 5.037E-04
 
[...]
    -6.0058  -5.9951  -5.9832  -5.9611  -5.9160  -5.9071  -5.8685  -5.8641
    -5.8585  -5.8378  -5.8175  -5.7841  -5.7716  -5.7628  -5.7011  -5.6865
    -5.6790  -5.6557  -5.6280  -5.6250  -5.5951  -5.5900  -5.5741  -5.5593
    -5.5514  -5.5206  -5.5097  -5.4967  -5.4916  -5.4863  -5.4682  -5.3833
    -5.3529  -5.3192  -5.2826  -5.2618  -5.2568  -5.2518  -5.2376  -5.1760
    -5.1629  -5.1248  -5.0835  -5.0547  -5.0439  -5.0024  -4.9304  -4.9225
    -4.8777  -4.8585  -4.8409  -4.8053  -4.7960  -4.7629  -4.7493  -4.7234
    -4.6680  -4.6424  -4.6117  -4.5843  -4.5537  -4.4740  -4.4550  -4.4129
    -4.3943  -4.3930  -4.3304  -4.3011  -4.2882  -4.2415  -4.2252  -4.2008
    -4.1968  -4.1594  -4.1179  -4.0812  -4.0578  -4.0051  -4.0023  -3.9767
    -3.9030  -3.8630  -3.8548  -3.8379  -3.8232  -3.7772  -3.7573  -3.7428
    -3.7371  -3.7206  -3.6888  -3.6850  -3.6291  -3.6240  -3.6048  -3.6023
    -3.5566  -3.5342  -3.5307  -3.5275  -3.5085  -3.4975  -3.4690  -3.4355
    -3.4262  -3.4185  -3.3968  -3.3844  -3.3770  -3.3503  -3.3360  -3.3233
    -3.2992  -3.2953  -3.2764  -3.2453  -3.2363  -3.2235  -3.1848  -3.1626
    -3.1452  -3.1088  -3.0829  -3.0761  -3.0600  -3.0441  -3.0311  -3.0078
    -2.9893  -2.9569  -2.9438  -2.9177  -2.9006  -2.8694  -2.8620  -2.8344
    -2.8200  -2.7878  -2.7540  -2.7238  -2.7133  -2.7044  -2.6902  -2.6860
    -2.6808  -2.6682  -2.6568  -2.6401  -2.6309  -2.6211  -2.6028  -2.5859
    -2.5666  -2.5487  -2.5354  -2.5272  -2.5152  -2.5040  -2.4856  -2.4633
    -2.4490  -2.4381  -2.4024  -2.3957  -2.3750  -2.3563  -2.3521  -2.3240
    -2.3055  -2.2938  -2.2858  -2.2696  -2.2467  -2.2152  -2.2068  -2.1873
    -2.1671  -2.1567  -2.1439  -2.1051  -2.0938  -2.0671  -2.0506  -2.0309
    -2.0191  -2.0138  -1.9910  -1.9707  -1.9672  -1.9336  -1.9126  -1.8882
    -1.8835  -1.8715  -1.8651  -1.8464  -1.8363  -1.8243  -1.8145  -1.8029
    -1.7341  -1.7193  -1.6887  -1.6697  -1.6407  -1.6357  -1.6296  -1.6125
    -1.6058  -1.5914  -1.5850  -1.5436  -1.5338  -1.5226  -1.4862  -1.4655
    -1.4475  -1.4318  -1.4115  -1.3904  -1.3771  -1.3563  -1.3444  -1.3336
    -1.3156  -1.3110  -1.2705  -1.2256  -1.1827  -1.1682  -1.1528  -1.1181
    -1.0759  -1.0420  -1.0115  -1.0070  -0.9994  -0.8875  -0.8483  -0.8051
    -0.7580  -0.6469  -0.6204  -0.5997  -0.4622  -0.4192  -0.2807  -0.1715
     0.1726   0.1893   0.2282   0.2493   0.2604   0.2788   0.2879   0.3003
     0.3080   0.3190   0.3357   0.3640   0.3762   0.3787   0.3826   0.3953
     0.3996   0.4041   0.4130   0.4278   0.4353   0.4515   0.4594   0.4612
     0.4737   0.4779   0.4842   0.4905   0.4971   0.5022   0.5102   0.5188
     0.5271   0.5322   0.5465   0.5520   0.5579   0.5699   0.5789   0.5927
     0.5985   0.6055   0.6205   0.6277   0.6314   0.6392   0.6537   0.6581
     0.6663   0.6709   0.6783   0.7133   0.7154   0.7250   0.7279   0.7365
     0.7430   0.7591   0.7699   0.7799   0.8029   0.8044   0.8087   0.8168
     0.8310   0.8370   0.8434   0.8650   0.8698   0.8759   0.8810   0.9003
     0.9022   0.9757   0.9875   1.0223   1.0396   1.0675   1.1253   1.1446
     1.6833   1.7563   1.7679   1.7773   1.7921   1.8217   1.8308   1.8721
     1.8830   1.8901   1.9233   1.9627   1.9748   1.9807   1.9948   2.0245
     2.0461   2.0747   2.0857   2.0950   2.1043   2.1082   2.1464   2.1524
     2.1744   2.1949   2.2003   2.2085   2.2194   2.2370   2.2556   2.2732
     2.2840   2.2999   2.3039   2.3356   2.3588   2.3738   2.4093   2.4406
     2.4497   2.4614   2.4776   2.4980   2.5111   2.5155   2.5635   2.5988
     2.6131   2.6546   2.7358   2.7981   2.8355   2.8540   2.8573   3.4137
     3.4808   3.6751   3.6895   3.7013   3.7531   3.7826   3.8459   3.8753
     3.8818   3.9136   3.9384   3.9481   3.9690   4.0006   4.0174   4.0261
     4.0634   4.0788   4.0841   4.0936   4.1042   4.1350   4.1456   4.1601
     4.2012   4.2195   4.2457   4.2636   4.3007   4.5955   4.6056   4.7775
     4.7901   4.8449   4.8813   4.8937   4.9594   4.9783   4.9864   5.0290
     5.0645   5.0865   5.1410   5.1658   5.2070   5.2163   5.3804   6.1725
     6.3528   6.4380   6.5744   6.6872   6.7158   6.7629   6.8035   6.8991
     6.9230   6.9538   7.0133   7.0431   7.2212   7.2821   7.3207   7.3498
     7.3788   7.4219   7.4744   7.5160   7.5421   7.5861   7.7013   7.7183
     7.8202   7.8302   7.8981   7.9230   7.9560   7.9977   8.0107   8.0437
     8.0610   8.0788   8.1151   8.1620   8.1751   8.2062   8.2309   8.2979
     8.3148   8.3363   8.3574   8.3667   8.3929   8.3986   8.4146   8.4251
     8.4587   8.4757   8.5084   8.5310   8.5636   8.5742   8.5985   8.6374
     8.6472

     the Fermi energy is     1.6848 ev

!    total energy              =   -8078.56140301 Ry
     estimated scf accuracy    <       0.00000063 Ry
     smearing contrib. (-TS)   =      -0.02495404 Ry
     internal energy E=F+TS    =   -8078.53644897 Ry

     The total energy is F=E-TS. E is the sum of the following terms:
     one-electron contribution =  -94749.38050125 Ry
     hartree contribution      =   47959.15281388 Ry
     xc contribution           =   -2177.37201056 Ry
     ewald contribution        =   40890.83362851 Ry
     Dispersion Correction     =      -1.77039596 Ry
     electric field correction =       0.00001640 Ry

     total magnetization       =    97.11 Bohr mag/cell
     absolute magnetization    =    98.32 Bohr mag/cell

     convergence has been achieved in  59 iterations

     negative rho (up, down):  1.167E-03 6.274E-04

     Forces acting on atoms (cartesian axes, Ry/au):

     atom    1 type  1   force =     0.02409534   -0.01776680    0.01981798
     atom    2 type  1   force =    -0.00193367    0.00006511   -0.00556380
     atom    3 type  2   force =    -0.03023244   -0.01543105   -0.00863331
     atom    4 type  1   force =     0.00191067   -0.00321947   -0.00454323
     atom    5 type  1   force =    -0.00380253    0.00213333   -0.00186948
     atom    6 type  1   force =     0.00244203    0.00751839   -0.00422713
     atom    7 type  1   force =     0.03184470   -0.01959928    0.01766507
     atom    8 type  2   force =    -0.00194757    0.00003680   -0.00907743
     atom    9 type  2   force =    -0.02884244   -0.01509374   -0.00867864
     atom   10 type  1   force =     0.00195990   -0.00291887   -0.00426553
     atom   11 type  1   force =    -0.00334424    0.00250416   -0.00102793
     atom   12 type  1   force =     0.00368730    0.00693744   -0.00372888
     atom   13 type  3   force =     0.00211626    0.00070814   -0.00756995
     atom   14 type  3   force =    -0.02976850    0.04992798   -0.06594510
     atom   15 type  3   force =     0.03466864    0.03760980   -0.05981546
     atom   16 type  3   force =    -0.00432217    0.00309753   -0.00092930
     atom   17 type  4   force =    -0.00199885    0.00134766    0.00279611
     atom   18 type  4   force =    -0.00159467   -0.00518321    0.02733697
     atom   19 type  4   force =     0.00398853    0.00284440    0.02952131
     atom   20 type  4   force =     0.00005012   -0.00269609   -0.00480233
     atom   21 type  4   force =    -0.00302617   -0.00229839    0.00336768
     atom   22 type  4   force =     0.00474635   -0.00332259    0.03433116
     atom   23 type  4   force =    -0.00598520   -0.00108652    0.03249079
     atom   24 type  4   force =     0.00064503   -0.00094282    0.00005156
     atom   25 type  4   force =    -0.00136623    0.00076323    0.00219753
     atom   26 type  4   force =    -0.01451769   -0.02273578   -0.00180819
     atom   27 type  4   force =     0.00183786   -0.00069319    0.00120975
     atom   28 type  4   force =    -0.01767773    0.00340464    0.00120715
     atom   29 type  4   force =     0.02062090   -0.00458458    0.00831204
     atom   30 type  4   force =     0.01243897   -0.03407138    0.00116425
     atom   31 type  4   force =     0.00049854    0.00098388    0.00234496
     atom   32 type  4   force =    -0.00210009    0.00004710    0.00268156
     atom   33 type  3   force =    -0.00052631   -0.00171013   -0.00505147
     atom   34 type  3   force =    -0.03022429    0.05983454   -0.08313346
     atom   35 type  3   force =     0.03458310    0.03337170   -0.05930589
     atom   36 type  3   force =    -0.00393136    0.00478118   -0.00066880
     atom   37 type  4   force =    -0.00105381    0.00135344    0.00309770
     atom   38 type  4   force =    -0.00306271   -0.00559501    0.03292908
     atom   39 type  4   force =     0.00442775    0.00397996    0.02933341
     atom   40 type  4   force =     0.00031826   -0.00331029   -0.00485145
     atom   41 type  4   force =    -0.00003345    0.00005940    0.00354910
     atom   42 type  4   force =     0.00544804    0.00024370    0.02006642
     atom   43 type  4   force =    -0.00178987    0.00037683    0.03459559
     atom   44 type  4   force =     0.00096918   -0.00086274    0.00001035
     atom   45 type  4   force =    -0.00020986   -0.00276574    0.00128830
     atom   46 type  4   force =    -0.01511439   -0.02036225   -0.00045777
     atom   47 type  4   force =     0.00186747   -0.00061940    0.00129875
     atom   48 type  4   force =    -0.01800368    0.00403962    0.00165026
     atom   49 type  4   force =     0.01643429   -0.00276538    0.00502953
     atom   50 type  4   force =     0.01180990   -0.03675123    0.00439947
     atom   51 type  4   force =     0.00104701    0.00104614    0.00174054
     atom   52 type  4   force =     0.00097772   -0.00222437    0.00364519
     atom   53 type  1   force =     0.00151572    0.00027042   -0.00085806
     atom   54 type  1   force =     0.00138195    0.00048522   -0.00047993
     atom   55 type  2   force =    -0.00017300   -0.00024708   -0.00039477
     atom   56 type  1   force =    -0.00082530    0.00149333    0.00018378
     atom   57 type  1   force =    -0.00018874    0.00028893    0.00014972
     atom   58 type  1   force =     0.00030407   -0.00027396    0.00018872
     atom   59 type  1   force =     0.00041133    0.00068046   -0.00086066
     atom   60 type  2   force =    -0.00169971   -0.00166630    0.00597701
     atom   61 type  2   force =    -0.00013404    0.00008460   -0.00009371
     atom   62 type  1   force =     0.00050363    0.00014724    0.00136915
     atom   63 type  1   force =     0.00006467    0.00035812    0.00038261
     atom   64 type  1   force =     0.00008473   -0.00062794   -0.00002827
     atom   65 type  3   force =     0.00030144    0.00046105    0.00040783
     atom   66 type  3   force =     0.00010351   -0.00031176   -0.00172506
     atom   67 type  3   force =     0.00041393    0.00053426   -0.00130801
     atom   68 type  3   force =    -0.00143608   -0.00157620    0.00328413
     atom   69 type  4   force =    -0.00063552    0.00026702   -0.00022263
     atom   70 type  4   force =    -0.00013382    0.00009064    0.00041092
     atom   71 type  4   force =     0.00002980   -0.00023635    0.00037723
     atom   72 type  4   force =     0.00055559   -0.00031611   -0.00140460
     atom   73 type  4   force =    -0.00004610    0.00069358   -0.00039696
     atom   74 type  4   force =    -0.00019071   -0.00064737    0.00192294
     atom   75 type  4   force =    -0.00008256   -0.00001642    0.00052321
     atom   76 type  4   force =    -0.00137403   -0.00108816    0.00241100
     atom   77 type  4   force =    -0.00100321    0.00124768    0.00008066
     atom   78 type  4   force =    -0.00040879    0.00002766    0.00037689
     atom   79 type  4   force =     0.00026576    0.00129902   -0.00194217
     atom   80 type  4   force =     0.00007843    0.00056044    0.00033103
     atom   81 type  4   force =    -0.00041308   -0.00025382    0.00043888
     atom   82 type  4   force =     0.00013444    0.00005054    0.00001551
     atom   83 type  4   force =     0.00086375    0.00022407    0.00074112
     atom   84 type  4   force =    -0.00091668    0.00000566   -0.00052116
     atom   85 type  3   force =     0.00040882    0.00219940    0.00149228
     atom   86 type  3   force =     0.00048616   -0.00064386   -0.00052025
     atom   87 type  3   force =    -0.00023277    0.00022066   -0.00039704
     atom   88 type  3   force =    -0.00062225   -0.00218873    0.00030251
     atom   89 type  4   force =    -0.00028165   -0.00041567   -0.00021037
     atom   90 type  4   force =     0.00008159   -0.00047559    0.00159213
     atom   91 type  4   force =     0.00036164   -0.00011995   -0.00007789
     atom   92 type  4   force =    -0.00048530    0.00059586   -0.00155562
     atom   93 type  4   force =     0.00084638   -0.00022578    0.00064089
     atom   94 type  4   force =    -0.00023251    0.00001239    0.00145548
     atom   95 type  4   force =     0.00024017    0.00024920    0.00024633
     atom   96 type  4   force =    -0.00115655    0.00013975   -0.00018369
     atom   97 type  4   force =     0.00037076    0.00024529   -0.00070738
     atom   98 type  4   force =    -0.00050297   -0.00026336    0.00032878
     atom   99 type  4   force =     0.00095050    0.00167340   -0.00154088
     atom  100 type  4   force =     0.00048047    0.00036083    0.00036619
     atom  101 type  4   force =    -0.00040932   -0.00009764    0.00050567
     atom  102 type  4   force =     0.00093544   -0.00024233    0.00043081
     atom  103 type  4   force =     0.00078488   -0.00122921   -0.00027251
     atom  104 type  4   force =    -0.00032375   -0.00118503    0.00030148
     atom  105 type  1   force =     0.00004215   -0.00010801   -0.00010052
     atom  106 type  1   force =    -0.00022028   -0.00069410   -0.00012573
     atom  107 type  2   force =     0.00030831    0.00008658    0.00041398
     atom  108 type  1   force =    -0.00025231    0.00002838    0.00065556
     atom  109 type  1   force =     0.00062534   -0.00017103   -0.00030471
     atom  110 type  1   force =     0.00052212    0.00003262    0.00052758
     atom  111 type  1   force =    -0.00039784   -0.00004144    0.00037089
     atom  112 type  2   force =     0.00007811   -0.00068588    0.00047198
     atom  113 type  2   force =    -0.00014912    0.00044395   -0.00011164
     atom  114 type  1   force =     0.00239471   -0.00176274    0.00305563
     atom  115 type  1   force =    -0.00058788    0.00059467   -0.00028684
     atom  116 type  1   force =    -0.00049741   -0.00054817    0.00036793
     atom  117 type  3   force =    -0.00020432   -0.00031576    0.00017732
     atom  118 type  3   force =    -0.00049847    0.00000013    0.00004976
     atom  119 type  3   force =     0.00010797    0.00025382   -0.00002748
     atom  120 type  3   force =     0.00036927   -0.00021437    0.00029257
     atom  121 type  4   force =    -0.00007876   -0.00013221   -0.00028557
     atom  122 type  4   force =    -0.00037546   -0.00014700    0.00019577
     atom  123 type  4   force =     0.00040312    0.00002406    0.00028783
     atom  124 type  4   force =     0.00032775   -0.00046455   -0.00014272
     atom  125 type  4   force =     0.00050389   -0.00008589    0.00013991
     atom  126 type  4   force =     0.00013038   -0.00020358    0.00037860
     atom  127 type  4   force =     0.00006501   -0.00002258   -0.00023343
     atom  128 type  4   force =     0.00019557    0.00054843   -0.00025383
     atom  129 type  4   force =     0.00001193    0.00064885   -0.00013875
     atom  130 type  4   force =     0.00055308   -0.00004751    0.00027464
     atom  131 type  4   force =     0.00010753    0.00019193   -0.00023574
     atom  132 type  4   force =     0.00025299   -0.00026858   -0.00010178
     atom  133 type  4   force =    -0.00008398   -0.00035574    0.00026603
     atom  134 type  4   force =    -0.00007209   -0.00018776    0.00024833
     atom  135 type  4   force =    -0.00014343   -0.00028260   -0.00028966
     atom  136 type  4   force =     0.00070942   -0.00008691    0.00023233
     atom  137 type  3   force =     0.00006857   -0.00040176   -0.00003748
     atom  138 type  3   force =     0.00012776   -0.00009355    0.00002799
     atom  139 type  3   force =     0.00020559    0.00007622    0.00013630
     atom  140 type  3   force =     0.00018430   -0.00019313    0.00008112
     atom  141 type  4   force =     0.00051352    0.00046037   -0.00074746
     atom  142 type  4   force =    -0.00000159    0.00013262    0.00008488
     atom  143 type  4   force =     0.00030998   -0.00006596    0.00010526
     atom  144 type  4   force =    -0.00021342    0.00065667   -0.00062822
     atom  145 type  4   force =     0.00014509    0.00028760    0.00102036
     atom  146 type  4   force =     0.00000366   -0.00003915   -0.00002603
     atom  147 type  4   force =    -0.00033686    0.00029644   -0.00029058
     atom  148 type  4   force =     0.00024226   -0.00003198    0.00009276
     atom  149 type  4   force =    -0.00011288    0.00009858   -0.00014281
     atom  150 type  4   force =    -0.00013004   -0.00010518   -0.00014607
     atom  151 type  4   force =     0.00028439   -0.00018915    0.00015010
     atom  152 type  4   force =    -0.00010519   -0.00025136    0.00023232
     atom  153 type  4   force =     0.00018772    0.00041190    0.00006653
     atom  154 type  4   force =    -0.00021099   -0.00037659    0.00020284
     atom  155 type  4   force =     0.00042375    0.00004340    0.00067690
     atom  156 type  4   force =     0.00008722    0.00049024   -0.00003682
     atom  157 type  4   force =    -0.01450942   -0.00652767   -0.00525892
     atom  158 type  5   force =     0.01061423    0.00827051    0.00396047

     Total force =     0.226344     Total SCF correction =     0.003698
 
     init_run     :      8.65s CPU      9.47s WALL (       1 calls)
     electrons    :    969.21s CPU   1017.42s WALL (       1 calls)
     forces       :      4.99s CPU      5.40s WALL (       1 calls)
     force_london :      0.11s CPU      0.11s WALL (       1 calls)

     Called by init_run:
     wfcinit      :      4.95s CPU      5.17s WALL (       1 calls)
     potinit      :      0.67s CPU      0.88s WALL (       1 calls)
     hinit0       :      1.19s CPU      1.31s WALL (       1 calls)

     Called by electrons:
     c_bands      :    776.34s CPU    804.01s WALL (      59 calls)
     sum_band     :    121.54s CPU    132.27s WALL (      59 calls)
     v_of_rho     :     18.04s CPU     19.00s WALL (      60 calls)
     newd         :     34.91s CPU     43.65s WALL (      60 calls)
     mix_rho      :     17.73s CPU     18.05s WALL (      59 calls)
     energy_londo :      0.09s CPU      0.09s WALL (       1 calls)

     Called by c_bands:
     init_us_2    :      2.25s CPU      2.30s WALL (     240 calls)
     init_us_2:cp :      2.25s CPU      2.30s WALL (     240 calls)
     regterg      :    762.67s CPU    790.10s WALL (     122 calls)

     Called by *egterg:
     rdiaghg      :    228.34s CPU    242.87s WALL (     632 calls)
     h_psi        :    291.00s CPU    296.56s WALL (     634 calls)
     s_psi        :     49.99s CPU     50.06s WALL (     634 calls)
     g_psi        :      0.35s CPU      0.36s WALL (     510 calls)

     Called by h_psi:
     h_psi:calbec :     71.46s CPU     75.82s WALL (     634 calls)
     vloc_psi     :    168.00s CPU    168.63s WALL (     634 calls)
     add_vuspsi   :     50.80s CPU     51.34s WALL (     634 calls)

     General routines
     calbec       :    104.75s CPU    111.19s WALL (     760 calls)
     fft          :     19.65s CPU     21.17s WALL (    1093 calls)
     ffts         :     10.79s CPU     10.83s WALL (    7313 calls)
     fftw         :    187.19s CPU    187.88s WALL (  209716 calls)
     interpolate  :      1.47s CPU      1.57s WALL (     120 calls)
 
     Parallel routines
 
     PWSCF        :  16m24.90s CPU  17m14.68s WALL

 
   This run was terminated on:  20:46:39  17Nov2025            

=------------------------------------------------------------------------------=
   JOB DONE.
=------------------------------------------------------------------------------=
