
     Program PWSCF v.7.2 starts on 17Nov2025 at 21: 3: 5 

     This program is part of the open-source Quantum ESPRESSO suite
     for quantum simulation of materials; please cite
         "P. Giannozzi et al., J. Phys.:Condens. Matter 21 395502 (2009);
         "P. Giannozzi et al., J. Phys.:Condens. Matter 29 465901 (2017);
         "P. Giannozzi et al., J. Chem. Phys. 152 154105 (2020);
          URL http://www.quantum-espresso.org", 
     in publications or presentations arising from this work. More details at
     http://www.quantum-espresso.org/quote

     Parallel version (MPI), running on    64 processors

     MPI processes distributed on     4 nodes
     380460 MiB available memory on the printing compute node when the environment starts
 
     Reading input from PWINPUT_atm157_yp

     Current dimensions of program PWSCF are:
     Max number of different atomic species (ntypx) = 10
     Max number of k-points (npk) =  40000
     Max angular momentum in pseudopotentials (lmaxx) =  4
     Presently no symmetry can be used with electric field

     file Ni.pbe-n-rrkjus_psl.1.0.0.UPF: wavefunction(s)  3D renormalized
     file Mn.pbe-spn-rrkjus_psl.0.3.1.UPF: wavefunction(s)  3D renormalized
     file O.pbe-rrkjus.UPF: wavefunction(s)  2S renormalized
     file H.pbe-rrkjus.UPF: wavefunction(s)  1S renormalized

     gamma-point specific algorithms are used
 
     R & G space division:  proc/nbgrp/npool/nimage =      64
     Subspace diagonalization in iterative solution of the eigenvalue problem:
     one sub-group per band group will be used
     custom distributed-memory algorithm (size of sub-group:  7*  7 procs)

 
     Parallelization info
     --------------------
     sticks:   dense  smooth     PW     G-vecs:    dense   smooth      PW
     Min         214      85     20                61830    15614    1928
     Max         216      86     22                61864    15658    1982
     Sum       13727    5503   1375              3958051  1001255  125211
 
     Using Slab Decomposition
 


     bravais-lattice index     =            0
     lattice parameter (alat)  =      17.8532  a.u.
     unit-cell volume          =   20962.6682 (a.u.)^3
     number of atoms/cell      =          158
     number of atomic types    =            5
     number of electrons       =      1108.00
     number of Kohn-Sham states=          665
     kinetic-energy cutoff     =      50.0000  Ry
     charge density cutoff     =     500.0000  Ry
     scf convergence threshold =      1.0E-06
     mixing beta               =       0.1000
     number of iterations used =            8  local-TF  mixing
     Exchange-correlation=  SLA  PW   PBE  PBE
                           (   1   4   3   4   0   0   0)

     celldm(1)=  17.853155  celldm(2)=   0.000000  celldm(3)=   0.000000
     celldm(4)=   0.000000  celldm(5)=   0.000000  celldm(6)=   0.000000

     crystal axes: (cart. coord. in units of alat)
               a(1) = (   1.000000   0.000000   0.000000 )  
               a(2) = (   0.003237   1.081997   0.000000 )  
               a(3) = (   0.000000   0.000000   3.404673 )  

     reciprocal axes: (cart. coord. in units 2 pi/alat)
               b(1) = (  1.000000 -0.002992  0.000000 )  
               b(2) = (  0.000000  0.924217  0.000000 )  
               b(3) = (  0.000000  0.000000  0.293714 )  


     PseudoPot. # 1 for Ni read from file:
     ~/PSEUDO/Ni.pbe-n-rrkjus_psl.1.0.0.UPF
     MD5 check sum: Not computed, couldn't open file
     Pseudo is Ultrasoft + core correction, Zval = 10.0
     Generated using "atomic" code by A. Dal Corso  v.5.1.2
     Using radial grid of 1195 points,  6 beta functions with: 
                l(1) =   0
                l(2) =   0
                l(3) =   1
                l(4) =   1
                l(5) =   2
                l(6) =   2
     Q(r) pseudized with 0 coefficients 


     PseudoPot. # 2 for Mn read from file:
     ~/PSEUDO/Mn.pbe-spn-rrkjus_psl.0.3.1.UPF
     MD5 check sum: Not computed, couldn't open file
     Pseudo is Ultrasoft + core correction, Zval = 15.0
     Generated using &quot;atomic&quot; code by A. Dal Corso  v.6.2.2
     Using radial grid of 1187 points,  6 beta functions with: 
                l(1) =   0
                l(2) =   0
                l(3) =   1
                l(4) =   1
                l(5) =   2
                l(6) =   2
     Q(r) pseudized with 0 coefficients 


     PseudoPot. # 3 for P  read from file:
     ~/PSEUDO/P.pbe-n-rrkjus_psl.1.0.0.UPF
     MD5 check sum: Not computed, couldn't open file
     Pseudo is Ultrasoft + core correction, Zval =  5.0
     Generated using "atomic" code by A. Dal Corso  v.5.1
     Using radial grid of 1147 points,  6 beta functions with: 
                l(1) =   0
                l(2) =   0
                l(3) =   1
                l(4) =   1
                l(5) =   2
                l(6) =   2
     Q(r) pseudized with 0 coefficients 


     PseudoPot. # 4 for O  read from file:
     ~/PSEUDO/O.pbe-rrkjus.UPF
     MD5 check sum: Not computed, couldn't open file
     Pseudo is Ultrasoft, Zval =  6.0
     Generated by new atomic code, or converted to UPF format
     Using radial grid of 1269 points,  4 beta functions with: 
                l(1) =   0
                l(2) =   0
                l(3) =   1
                l(4) =   1
     Q(r) pseudized with 0 coefficients 


     PseudoPot. # 5 for H  read from file:
     ~/PSEUDO/H.pbe-rrkjus.UPF
     MD5 check sum: Not computed, couldn't open file
     Pseudo is Ultrasoft, Zval =  1.0
     Generated by new atomic code, or converted to UPF format
     Using radial grid of 1061 points,  2 beta functions with: 
                l(1) =   0
                l(2) =   0
     Q(r) pseudized with 0 coefficients 


     atomic species   valence    mass     pseudopotential
     Ni               10.00    58.69300     Ni( 1.00)
     Mn               15.00    54.93800     Mn( 1.00)
     P                 5.00    30.97300     P ( 1.00)
     O                 6.00    15.99900     O ( 1.00)
     H                 1.00     1.00790     H ( 1.00)

     Starting magnetic structure 
     atomic species   magnetization
     Ni              1.000
     Mn              1.000
     P               1.000
     O               1.000
     H               0.000

     No symmetry found



   Cartesian axes

     site n.     atom                  positions (alat units)
         1        Ni     tau(   1) = (   0.2448189   0.8359134   0.1216996  )
         2        Ni     tau(   2) = (   0.4920952   0.7731948   0.4438949  )
         3        Mn     tau(   3) = (   0.0113021   0.2918949   0.1160512  )
         4        Ni     tau(   4) = (   0.2586115   0.2268566   0.4417628  )
         5        Ni     tau(   5) = (   1.0019827   1.0705803   0.2835623  )
         6        Ni     tau(   6) = (   0.2518099   0.5339061   0.2823483  )
         7        Ni     tau(   7) = (   0.7400999   0.8349186   0.1225624  )
         8        Mn     tau(   8) = (   0.9886961   0.7700845   0.4492175  )
         9        Mn     tau(   9) = (   0.5113421   0.2944667   0.1158892  )
        10        Ni     tau(  10) = (   0.7560857   0.2263843   0.4422798  )
        11        Ni     tau(  11) = (   0.5009386   1.0712238   0.2822610  )
        12        Ni     tau(  12) = (   0.7496978   0.5336600   0.2834396  )
        13        P      tau(  13) = (   0.2147792   0.9686896   0.4382665  )
        14        P      tau(  14) = (   0.4607377   0.6441916   0.1265334  )
        15        P      tau(  15) = (   0.2883218   0.0913464   0.1265752  )
        16        P      tau(  16) = (   0.0408981   0.4221836   0.4354960  )
        17        O      tau(  17) = (   0.1380864   0.9007819   0.3023220  )
        18        O      tau(  18) = (   0.3817439   0.7113683   0.2624610  )
        19        O      tau(  19) = (   0.3638364   0.1608547   0.2624417  )
        20        O      tau(  20) = (   0.1207568   0.3545755   0.3021219  )
        21        O      tau(  21) = (   0.1552194   0.8797563   0.5625160  )
        22        O      tau(  22) = (   0.4022820   0.7317969   0.0010585  )
        23        O      tau(  23) = (   0.3454844   0.1823965   0.0026336  )
        24        O      tau(  24) = (   0.1017019   0.3344979   0.5594858  )
        25        O      tau(  25) = (   0.0970074   0.5770714   0.4346455  )
        26        O      tau(  26) = (   0.3534166   1.0203677   0.1270707  )
        27        O      tau(  27) = (   0.3778024   0.4172402   0.4261028  )
        28        O      tau(  28) = (   0.1256171   0.0954063   0.1372153  )
        29        O      tau(  29) = (   0.1232168   0.6482422   0.1385172  )
        30        O      tau(  30) = (   0.4028533   0.4897833   0.1289718  )
        31        O      tau(  31) = (   0.1511050   0.0405554   0.4369979  )
        32        O      tau(  32) = (   0.3776556   0.9624293   0.4288159  )
        33        P      tau(  33) = (   0.7084770   0.9682119   0.4394551  )
        34        P      tau(  34) = (   0.9603154   0.6409658   0.1292469  )
        35        P      tau(  35) = (   0.7875734   0.0899770   0.1274098  )
        36        P      tau(  36) = (   0.5405152   0.4272620   0.4364455  )
        37        O      tau(  37) = (   0.6323583   0.8977630   0.3036670  )
        38        O      tau(  38) = (   0.8809646   0.7091921   0.2627111  )
        39        O      tau(  39) = (   0.8631054   0.1587239   0.2636487  )
        40        O      tau(  40) = (   0.6202581   0.3578380   0.3034239  )
        41        O      tau(  41) = (   0.6499160   0.8772596   0.5630912  )
        42        O      tau(  42) = (   0.8990171   0.7283464   0.0054426  )
        43        O      tau(  43) = (   0.8448361   0.1806154   0.0030658  )
        44        O      tau(  44) = (   0.6023096   0.3392612   0.5600469  )
        45        O      tau(  45) = (   0.5960222   0.5826131   0.4346340  )
        46        O      tau(  46) = (   0.8515023   1.0184215   0.1281632  )
        47        O      tau(  47) = (   0.8779640   0.4148900   0.4260983  )
        48        O      tau(  48) = (   0.6251159   0.0957170   0.1376895  )
        49        O      tau(  49) = (   0.6237654   0.6481585   0.1378370  )
        50        O      tau(  50) = (   0.9038046   0.4863338   0.1307354  )
        51        O      tau(  51) = (   0.6458737   0.0402574   0.4377979  )
        52        O      tau(  52) = (   0.8712434   0.9635255   0.4285638  )
        53        Ni     tau(  53) = (   0.2420320   0.8169913   0.7491577  )
        54        Ni     tau(  54) = (   0.4893084   0.7542727   1.0713530  )
        55        Mn     tau(  55) = (   0.0085152   0.2729728   0.7435093  )
        56        Ni     tau(  56) = (   0.2558246   0.2079345   1.0692209  )
        57        Ni     tau(  57) = (   0.9991959   1.0516583   0.9110204  )
        58        Ni     tau(  58) = (   0.2490231   0.5149840   0.9098064  )
        59        Ni     tau(  59) = (   0.7373131   0.8159965   0.7500205  )
        60        Mn     tau(  60) = (   0.9859093   0.7511625   1.0766756  )
        61        Mn     tau(  61) = (   0.5085552   0.2755447   0.7433473  )
        62        Ni     tau(  62) = (   0.7532989   0.2074622   1.0697379  )
        63        Ni     tau(  63) = (   0.4981517   1.0523018   0.9097191  )
        64        Ni     tau(  64) = (   0.7469109   0.5147379   0.9108977  )
        65        P      tau(  65) = (   0.2119924   0.9497675   1.0657246  )
        66        P      tau(  66) = (   0.4579509   0.6252695   0.7539915  )
        67        P      tau(  67) = (   0.2855349   0.0724244   0.7540333  )
        68        P      tau(  68) = (   0.0381112   0.4032615   1.0629541  )
        69        O      tau(  69) = (   0.1352995   0.8818598   0.9297801  )
        70        O      tau(  70) = (   0.3789570   0.6924463   0.8899191  )
        71        O      tau(  71) = (   0.3610496   0.1419327   0.8898998  )
        72        O      tau(  72) = (   0.1179700   0.3356534   0.9295800  )
        73        O      tau(  73) = (   0.1524325   0.8608343   1.1899741  )
        74        O      tau(  74) = (   0.3994952   0.7128748   0.6285166  )
        75        O      tau(  75) = (   0.3426976   0.1634744   0.6300917  )
        76        O      tau(  76) = (   0.0989151   0.3155758   1.1869439  )
        77        O      tau(  77) = (   0.0942206   0.5581494   1.0621036  )
        78        O      tau(  78) = (   0.3506297   1.0014456   0.7545288  )
        79        O      tau(  79) = (   0.3750155   0.3983181   1.0535609  )
        80        O      tau(  80) = (   0.1228303   0.0764842   0.7646734  )
        81        O      tau(  81) = (   0.1204299   0.6293201   0.7659753  )
        82        O      tau(  82) = (   0.4000664   0.4708612   0.7564299  )
        83        O      tau(  83) = (   0.1483182   0.0216333   1.0644560  )
        84        O      tau(  84) = (   0.3748687   0.9435072   1.0562740  )
        85        P      tau(  85) = (   0.7056901   0.9492898   1.0669132  )
        86        P      tau(  86) = (   0.9575286   0.6220438   0.7567050  )
        87        P      tau(  87) = (   0.7847866   0.0710549   0.7548679  )
        88        P      tau(  88) = (   0.5377283   0.4083400   1.0639036  )
        89        O      tau(  89) = (   0.6295714   0.8788409   0.9311251  )
        90        O      tau(  90) = (   0.8781778   0.6902700   0.8901692  )
        91        O      tau(  91) = (   0.8603186   0.1398018   0.8911068  )
        92        O      tau(  92) = (   0.6174712   0.3389159   0.9308820  )
        93        O      tau(  93) = (   0.6471291   0.8583376   1.1905493  )
        94        O      tau(  94) = (   0.8962302   0.7094244   0.6329007  )
        95        O      tau(  95) = (   0.8420493   0.1616933   0.6305239  )
        96        O      tau(  96) = (   0.5995227   0.3203391   1.1875050  )
        97        O      tau(  97) = (   0.5932354   0.5636910   1.0620921  )
        98        O      tau(  98) = (   0.8487155   0.9994995   0.7556213  )
        99        O      tau(  99) = (   0.8751772   0.3959680   1.0535564  )
       100        O      tau( 100) = (   0.6223291   0.0767949   0.7651476  )
       101        O      tau( 101) = (   0.6209785   0.6292365   0.7652951  )
       102        O      tau( 102) = (   0.9010178   0.4674118   0.7581935  )
       103        O      tau( 103) = (   0.6430869   0.0213354   1.0652560  )
       104        O      tau( 104) = (   0.8684566   0.9446034   1.0560219  )
       105        Ni     tau( 105) = (   0.2412023   0.8004481   1.3761697  )
       106        Ni     tau( 106) = (   0.4986735   0.7355768   1.6794178  )
       107        Mn     tau( 107) = (   0.0058178   0.2579714   1.3748439  )
       108        Ni     tau( 108) = (   0.2445030   0.1966672   1.6827613  )
       109        Ni     tau( 109) = (   0.9973019   1.0372672   1.5419400  )
       110        Ni     tau( 110) = (   0.2442193   0.4988167   1.5412053  )
       111        Ni     tau( 111) = (   0.7355958   0.7989306   1.3771896  )
       112        Mn     tau( 112) = (   0.9955940   0.7374460   1.6981170  )
       113        Mn     tau( 113) = (   0.5084073   0.2597986   1.3740649  )
       114        Ni     tau( 114) = (   0.7506413   0.1876866   1.7157338  )
       115        Ni     tau( 115) = (   0.4999815   1.0354405   1.5368422  )
       116        Ni     tau( 116) = (   0.7421734   0.4941468   1.5447217  )
       117        P      tau( 117) = (   0.2134520   0.9305608   1.6928748  )
       118        P      tau( 118) = (   0.4552265   0.6038409   1.3792233  )
       119        P      tau( 119) = (   0.2846976   0.0570133   1.3802773  )
       120        P      tau( 120) = (   0.0325224   0.3864354   1.7029347  )
       121        O      tau( 121) = (   0.1349751   0.8706564   1.5506288  )
       122        O      tau( 122) = (   0.3764107   0.6721600   1.5149202  )
       123        O      tau( 123) = (   0.3606206   0.1260236   1.5156957  )
       124        O      tau( 124) = (   0.1092748   0.3280951   1.5591652  )
       125        O      tau( 125) = (   0.1511793   0.8339695   1.8079082  )
       126        O      tau( 126) = (   0.3964659   0.6926639   1.2544695  )
       127        O      tau( 127) = (   0.3425042   0.1476694   1.2561401  )
       128        O      tau( 128) = (   0.0960478   0.2915149   1.8172940  )
       129        O      tau( 129) = (   0.0879065   0.5436709   1.7030381  )
       130        O      tau( 130) = (   0.3488342   0.9858816   1.3801817  )
       131        O      tau( 131) = (   0.3671736   0.3798408   1.6812659  )
       132        O      tau( 132) = (   0.1219276   0.0647475   1.3934455  )
       133        O      tau( 133) = (   0.1179523   0.6112524   1.3972003  )
       134        O      tau( 134) = (   0.3951101   0.4502108   1.3814183  )
       135        O      tau( 135) = (   0.1554058   0.0046046   1.6969583  )
       136        O      tau( 136) = (   0.3765182   0.9212570   1.6810882  )
       137        P      tau( 137) = (   0.7067285   0.9241104   1.6956373  )
       138        P      tau( 138) = (   0.9550835   0.6030567   1.3877912  )
       139        P      tau( 139) = (   0.7840039   0.0566892   1.3823828  )
       140        P      tau( 140) = (   0.5313930   0.3840217   1.6968505  )
       141        O      tau( 141) = (   0.6301565   0.8631087   1.5500589  )
       142        O      tau( 142) = (   0.8781540   0.6680547   1.5246654  )
       143        O      tau( 143) = (   0.8584090   0.1266911   1.5169273  )
       144        O      tau( 144) = (   0.6101434   0.3244037   1.5563583  )
       145        O      tau( 145) = (   0.6497044   0.8229155   1.8076390  )
       146        O      tau( 146) = (   0.8952346   0.6931503   1.2649845  )
       147        O      tau( 147) = (   0.8417833   0.1457064   1.2563858  )
       148        O      tau( 148) = (   0.5882982   0.2884097   1.8138105  )
       149        O      tau( 149) = (   0.5857986   0.5416269   1.6967524  )
       150        O      tau( 150) = (   0.8463249   0.9844929   1.3834097  )
       151        O      tau( 151) = (   0.8691606   0.3830520   1.6896730  )
       152        O      tau( 152) = (   0.6208256   0.0636157   1.3908489  )
       153        O      tau( 153) = (   0.6179180   0.6081228   1.3928659  )
       154        O      tau( 154) = (   0.8974059   0.4489532   1.3860662  )
       155        O      tau( 155) = (   0.6446735  -0.0036875   1.6925588  )
       156        O      tau( 156) = (   0.8709253   0.9175257   1.6809245  )
       157        O      tau( 157) = (   0.8700644   0.1011297   1.8382274  )
       158        H      tau( 158) = (   0.9531421   0.1587224   1.8633884  )

     -------------------------------------------------
     Parameters for Dispersion (Grimme-D2) Correction:
     -------------------------------------------------
       atom      VdW radius       C_6     

        Ni         2.952        374.666
        Mn         2.952        374.666
        P          3.222        271.980
        O          2.536         24.284
        H          1.892          4.857

     number of k points=     1  Gaussian smearing, width (Ry)=  0.0100
                       cart. coord. in units 2pi/alat
        k(    1) = (   0.0000000   0.0000000   0.0000000), wk =   1.0000000

     Dense  grid:  1979026 G-vectors     FFT dimensions: ( 128, 144, 450)

     Smooth grid:   500628 G-vectors     FFT dimensions: (  81,  90, 288)

     Estimated max dynamical RAM per process >     333.40 MB

     Estimated total dynamical RAM >      20.84 GB

     Check: negative core charge=   -0.000002
     Generating pointlists ...
     new r_m :   0.0791 (alat units)  1.4119 (a.u.) for type    1
     new r_m :   0.0881 (alat units)  1.5722 (a.u.) for type    2
     new r_m :   0.0666 (alat units)  1.1883 (a.u.) for type    3
     new r_m :   0.0430 (alat units)  0.7672 (a.u.) for type    4
     new r_m :   0.0430 (alat units)  0.7672 (a.u.) for type    5

     Initial potential from superposition of free atoms

     starting charge    1107.8886, renormalised to    1108.0000

     negative rho (up, down):  1.534E-03 4.697E-04
 
     Adding external electric field

     Computed dipole along edir(3) : 
        Dipole                1.6284 Ry au,          4.1391 Debye
        Dipole field          0.0010 Ry au, 
 
        Potential amp.       -0.1068 Ry
        Total length         54.7057 bohr
 
 
     Adding external electric field

     Computed dipole along edir(3) : 
        Dipole                1.6284 Ry au,          4.1391 Debye
        Dipole field          0.0010 Ry au, 
 
        Potential amp.       -0.1068 Ry
        Total length         54.7057 bohr
 
     Starting wfcs are  818 randomized atomic wfcs

     total cpu time spent up to now is       12.2 secs

     Self-consistent Calculation

     iteration #  1     ecut=    50.00 Ry     beta= 0.10
     Davidson diagonalization with overlap
     ethr =  1.00E-02,  avg # of iterations =  5.5

     negative rho (up, down):  4.585E-01 8.779E-07
 
     Adding external electric field

     Computed dipole along edir(3) : 
        Dipole               -3.0463 Ry au,         -7.7428 Debye
        Dipole field         -0.0018 Ry au, 
 
        Potential amp.        0.1998 Ry
        Total length         54.7057 bohr
 
 
     Adding external electric field

     Computed dipole along edir(3) : 
        Dipole               -3.0463 Ry au,         -7.7428 Debye
        Dipole field         -0.0018 Ry au, 
 
        Potential amp.        0.1998 Ry
        Total length         54.7057 bohr
 

     total cpu time spent up to now is       46.8 secs

     total energy              =   -7860.59936353 Ry
     estimated scf accuracy    <     732.49097620 Ry

     total magnetization       =   222.00 Bohr mag/cell
     absolute magnetization    =   319.82 Bohr mag/cell

     iteration #  2     ecut=    50.00 Ry     beta= 0.10
     Davidson diagonalization with overlap
     ethr =  1.00E-02,  avg # of iterations =  2.0

     negative rho (up, down):  4.126E-01 6.154E-07
 
     Adding external electric field

     Computed dipole along edir(3) : 
        Dipole               -2.4524 Ry au,         -6.2334 Debye
        Dipole field         -0.0015 Ry au, 
 
        Potential amp.        0.1608 Ry
        Total length         54.7057 bohr
 
 
     Adding external electric field

     Computed dipole along edir(3) : 
        Dipole               -2.4524 Ry au,         -6.2334 Debye
        Dipole field         -0.0015 Ry au, 
 
        Potential amp.        0.1608 Ry
        Total length         54.7057 bohr
 

     total cpu time spent up to now is       66.7 secs

     total energy              =   -7943.89795626 Ry
     estimated scf accuracy    <     135.40553343 Ry

     total magnetization       =   158.27 Bohr mag/cell
     absolute magnetization    =   208.19 Bohr mag/cell

     iteration #  3     ecut=    50.00 Ry     beta= 0.10
     Davidson diagonalization with overlap
     ethr =  1.00E-02,  avg # of iterations =  1.0

     negative rho (up, down):  3.540E-01 5.004E-07
 
     Adding external electric field

     Computed dipole along edir(3) : 
        Dipole               -1.9889 Ry au,         -5.0552 Debye
        Dipole field         -0.0012 Ry au, 
 
        Potential amp.        0.1304 Ry
        Total length         54.7057 bohr
 
 
     Adding external electric field

     Computed dipole along edir(3) : 
        Dipole               -1.9889 Ry au,         -5.0552 Debye
        Dipole field         -0.0012 Ry au, 
 
        Potential amp.        0.1304 Ry
        Total length         54.7057 bohr
 

     total cpu time spent up to now is       81.5 secs

     total energy              =   -7978.72947401 Ry
     estimated scf accuracy    <     100.78519136 Ry

     total magnetization       =   137.75 Bohr mag/cell
     absolute magnetization    =   188.54 Bohr mag/cell

     iteration #  4     ecut=    50.00 Ry     beta= 0.10
     Davidson diagonalization with overlap
     ethr =  9.10E-03,  avg # of iterations =  1.0

     negative rho (up, down):  2.714E-01 2.213E-08
 
     Adding external electric field

     Computed dipole along edir(3) : 
        Dipole               -1.9073 Ry au,         -4.8478 Debye
        Dipole field         -0.0011 Ry au, 
 
        Potential amp.        0.1251 Ry
        Total length         54.7057 bohr
 
 
     Adding external electric field

     Computed dipole along edir(3) : 
        Dipole               -1.9073 Ry au,         -4.8478 Debye
        Dipole field         -0.0011 Ry au, 
 
        Potential amp.        0.1251 Ry
        Total length         54.7057 bohr
 

     total cpu time spent up to now is       95.6 secs

     total energy              =   -8010.99326967 Ry
     estimated scf accuracy    <      79.56151221 Ry

     total magnetization       =   119.18 Bohr mag/cell
     absolute magnetization    =   173.07 Bohr mag/cell

     iteration #  5     ecut=    50.00 Ry     beta= 0.10
     Davidson diagonalization with overlap
     ethr =  7.18E-03,  avg # of iterations =  1.0

     negative rho (up, down):  2.471E-03 1.950E-09
 
     Adding external electric field

     Computed dipole along edir(3) : 
        Dipole               -1.1782 Ry au,         -2.9947 Debye
        Dipole field         -0.0007 Ry au, 
 
        Potential amp.        0.0773 Ry
        Total length         54.7057 bohr
 
 
     Adding external electric field

     Computed dipole along edir(3) : 
        Dipole               -1.1782 Ry au,         -2.9947 Debye
        Dipole field         -0.0007 Ry au, 
 
        Potential amp.        0.0773 Ry
        Total length         54.7057 bohr
 

     total cpu time spent up to now is      164.1 secs

     total energy              =   -8070.61369584 Ry
     estimated scf accuracy    <      60.50888960 Ry

     total magnetization       =   106.00 Bohr mag/cell
     absolute magnetization    =   157.31 Bohr mag/cell

     iteration #  6     ecut=    50.00 Ry     beta= 0.10
     Davidson diagonalization with overlap
     ethr =  5.46E-03,  avg # of iterations =  1.0

     negative rho (up, down):  7.418E-05 1.838E-04
 
     Adding external electric field

     Computed dipole along edir(3) : 
        Dipole               -0.8457 Ry au,         -2.1496 Debye
        Dipole field         -0.0005 Ry au, 
 
        Potential amp.        0.0555 Ry
        Total length         54.7057 bohr
 
 
     Adding external electric field

     Computed dipole along edir(3) : 
        Dipole               -0.8457 Ry au,         -2.1496 Debye
        Dipole field         -0.0005 Ry au, 
 
        Potential amp.        0.0555 Ry
        Total length         54.7057 bohr
 

     total cpu time spent up to now is      179.5 secs

     total energy              =   -8077.01191996 Ry
     estimated scf accuracy    <       9.10742332 Ry

     total magnetization       =    93.89 Bohr mag/cell
     absolute magnetization    =   120.84 Bohr mag/cell

     iteration #  7     ecut=    50.00 Ry     beta= 0.10
     Davidson diagonalization with overlap
     ethr =  8.22E-04,  avg # of iterations =  5.0

     negative rho (up, down):  5.443E-05 1.422E-04
 
     Adding external electric field

     Computed dipole along edir(3) : 
        Dipole               -0.8666 Ry au,         -2.2026 Debye
        Dipole field         -0.0005 Ry au, 
 
        Potential amp.        0.0568 Ry
        Total length         54.7057 bohr
 
 
     Adding external electric field

     Computed dipole along edir(3) : 
        Dipole               -0.8666 Ry au,         -2.2026 Debye
        Dipole field         -0.0005 Ry au, 
 
        Potential amp.        0.0568 Ry
        Total length         54.7057 bohr
 

     total cpu time spent up to now is      205.8 secs

     total energy              =   -8078.74873270 Ry
     estimated scf accuracy    <      24.46234989 Ry

     total magnetization       =    70.08 Bohr mag/cell
     absolute magnetization    =    88.18 Bohr mag/cell

     iteration #  8     ecut=    50.00 Ry     beta= 0.10
     Davidson diagonalization with overlap
     ethr =  8.22E-04,  avg # of iterations =  1.0

     negative rho (up, down):  5.918E-05 1.394E-04
 
     Adding external electric field

     Computed dipole along edir(3) : 
        Dipole               -0.8925 Ry au,         -2.2686 Debye
        Dipole field         -0.0005 Ry au, 
 
        Potential amp.        0.0585 Ry
        Total length         54.7057 bohr
 
 
     Adding external electric field

     Computed dipole along edir(3) : 
        Dipole               -0.8925 Ry au,         -2.2686 Debye
        Dipole field         -0.0005 Ry au, 
 
        Potential amp.        0.0585 Ry
        Total length         54.7057 bohr
 

     total cpu time spent up to now is      221.2 secs

     total energy              =   -8078.46811654 Ry
     estimated scf accuracy    <      26.87845867 Ry

     total magnetization       =    69.97 Bohr mag/cell
     absolute magnetization    =    87.76 Bohr mag/cell

     iteration #  9     ecut=    50.00 Ry     beta= 0.10
     Davidson diagonalization with overlap
     ethr =  8.22E-04,  avg # of iterations =  1.0

     negative rho (up, down):  1.034E-04 2.000E-04
 
     Adding external electric field

     Computed dipole along edir(3) : 
        Dipole               -1.0852 Ry au,         -2.7584 Debye
        Dipole field         -0.0007 Ry au, 
 
        Potential amp.        0.0712 Ry
        Total length         54.7057 bohr
 
 
     Adding external electric field

     Computed dipole along edir(3) : 
        Dipole               -1.0852 Ry au,         -2.7584 Debye
        Dipole field         -0.0007 Ry au, 
 
        Potential amp.        0.0712 Ry
        Total length         54.7057 bohr
 

     total cpu time spent up to now is      236.5 secs

     total energy              =   -8076.95866893 Ry
     estimated scf accuracy    <      23.28215558 Ry

     total magnetization       =    70.84 Bohr mag/cell
     absolute magnetization    =    87.86 Bohr mag/cell

     iteration # 10     ecut=    50.00 Ry     beta= 0.10
     Davidson diagonalization with overlap
     ethr =  8.22E-04,  avg # of iterations =  2.0

     negative rho (up, down):  5.477E-05 1.042E-04
 
     Adding external electric field

     Computed dipole along edir(3) : 
        Dipole               -1.0705 Ry au,         -2.7210 Debye
        Dipole field         -0.0006 Ry au, 
 
        Potential amp.        0.0702 Ry
        Total length         54.7057 bohr
 
 
     Adding external electric field

     Computed dipole along edir(3) : 
        Dipole               -1.0705 Ry au,         -2.7210 Debye
        Dipole field         -0.0006 Ry au, 
 
        Potential amp.        0.0702 Ry
        Total length         54.7057 bohr
 

     total cpu time spent up to now is      252.7 secs

     total energy              =   -8078.13862610 Ry
     estimated scf accuracy    <       1.59403104 Ry

     total magnetization       =    98.20 Bohr mag/cell
     absolute magnetization    =   109.36 Bohr mag/cell

     iteration # 11     ecut=    50.00 Ry     beta= 0.10
     Davidson diagonalization with overlap
     ethr =  1.44E-04,  avg # of iterations = 12.0

     negative rho (up, down):  3.764E-07 2.509E-06
 
     Adding external electric field

     Computed dipole along edir(3) : 
        Dipole               -1.0017 Ry au,         -2.5460 Debye
        Dipole field         -0.0006 Ry au, 
 
        Potential amp.        0.0657 Ry
        Total length         54.7057 bohr
 
 
     Adding external electric field

     Computed dipole along edir(3) : 
        Dipole               -1.0017 Ry au,         -2.5460 Debye
        Dipole field         -0.0006 Ry au, 
 
        Potential amp.        0.0657 Ry
        Total length         54.7057 bohr
 

     total cpu time spent up to now is      282.4 secs

     total energy              =   -8078.21924945 Ry
     estimated scf accuracy    <       1.30169844 Ry

     total magnetization       =    98.13 Bohr mag/cell
     absolute magnetization    =   108.34 Bohr mag/cell

     iteration # 12     ecut=    50.00 Ry     beta= 0.10
     Davidson diagonalization with overlap
     ethr =  1.17E-04,  avg # of iterations =  2.0

     negative rho (up, down):  3.984E-07 4.260E-06
 
     Adding external electric field

     Computed dipole along edir(3) : 
        Dipole               -0.9699 Ry au,         -2.4652 Debye
        Dipole field         -0.0006 Ry au, 
 
        Potential amp.        0.0636 Ry
        Total length         54.7057 bohr
 
 
     Adding external electric field

     Computed dipole along edir(3) : 
        Dipole               -0.9699 Ry au,         -2.4652 Debye
        Dipole field         -0.0006 Ry au, 
 
        Potential amp.        0.0636 Ry
        Total length         54.7057 bohr
 

     total cpu time spent up to now is      300.1 secs

     total energy              =   -8078.36094432 Ry
     estimated scf accuracy    <       3.16430992 Ry

     total magnetization       =    90.96 Bohr mag/cell
     absolute magnetization    =    99.88 Bohr mag/cell

     iteration # 13     ecut=    50.00 Ry     beta= 0.10
     Davidson diagonalization with overlap
     ethr =  1.17E-04,  avg # of iterations =  1.5

     negative rho (up, down):  3.452E-07 6.139E-06
 
     Adding external electric field

     Computed dipole along edir(3) : 
        Dipole               -0.9914 Ry au,         -2.5199 Debye
        Dipole field         -0.0006 Ry au, 
 
        Potential amp.        0.0650 Ry
        Total length         54.7057 bohr
 
 
     Adding external electric field

     Computed dipole along edir(3) : 
        Dipole               -0.9914 Ry au,         -2.5199 Debye
        Dipole field         -0.0006 Ry au, 
 
        Potential amp.        0.0650 Ry
        Total length         54.7057 bohr
 

     total cpu time spent up to now is      316.4 secs

     total energy              =   -8078.33501993 Ry
     estimated scf accuracy    <       6.47315117 Ry

     total magnetization       =    85.63 Bohr mag/cell
     absolute magnetization    =    95.18 Bohr mag/cell

     iteration # 14     ecut=    50.00 Ry     beta= 0.10
     Davidson diagonalization with overlap
     ethr =  1.17E-04,  avg # of iterations =  1.5

     negative rho (up, down):  3.349E-07 3.119E-06
 
     Adding external electric field

     Computed dipole along edir(3) : 
        Dipole               -1.0027 Ry au,         -2.5486 Debye
        Dipole field         -0.0006 Ry au, 
 
        Potential amp.        0.0658 Ry
        Total length         54.7057 bohr
 
 
     Adding external electric field

     Computed dipole along edir(3) : 
        Dipole               -1.0027 Ry au,         -2.5486 Debye
        Dipole field         -0.0006 Ry au, 
 
        Potential amp.        0.0658 Ry
        Total length         54.7057 bohr
 

     total cpu time spent up to now is      332.8 secs

     total energy              =   -8078.33634720 Ry
     estimated scf accuracy    <       4.62999119 Ry

     total magnetization       =    88.03 Bohr mag/cell
     absolute magnetization    =    96.98 Bohr mag/cell

     iteration # 15     ecut=    50.00 Ry     beta= 0.10
     Davidson diagonalization with overlap
     ethr =  1.17E-04,  avg # of iterations =  1.0

     negative rho (up, down):  1.453E-06 1.862E-06
 
     Adding external electric field

     Computed dipole along edir(3) : 
        Dipole               -1.0310 Ry au,         -2.6205 Debye
        Dipole field         -0.0006 Ry au, 
 
        Potential amp.        0.0676 Ry
        Total length         54.7057 bohr
 
 
     Adding external electric field

     Computed dipole along edir(3) : 
        Dipole               -1.0310 Ry au,         -2.6205 Debye
        Dipole field         -0.0006 Ry au, 
 
        Potential amp.        0.0676 Ry
        Total length         54.7057 bohr
 

     total cpu time spent up to now is      348.2 secs

     total energy              =   -8078.26885136 Ry
     estimated scf accuracy    <       3.93035070 Ry

     total magnetization       =    89.45 Bohr mag/cell
     absolute magnetization    =    98.12 Bohr mag/cell

     iteration # 16     ecut=    50.00 Ry     beta= 0.10
     Davidson diagonalization with overlap
     ethr =  1.17E-04,  avg # of iterations =  1.5

     negative rho (up, down):  5.633E-06 6.550E-06
 
     Adding external electric field

     Computed dipole along edir(3) : 
        Dipole               -1.0578 Ry au,         -2.6887 Debye
        Dipole field         -0.0006 Ry au, 
 
        Potential amp.        0.0694 Ry
        Total length         54.7057 bohr
 
 
     Adding external electric field

     Computed dipole along edir(3) : 
        Dipole               -1.0578 Ry au,         -2.6887 Debye
        Dipole field         -0.0006 Ry au, 
 
        Potential amp.        0.0694 Ry
        Total length         54.7057 bohr
 

     total cpu time spent up to now is      364.8 secs

     total energy              =   -8078.30665755 Ry
     estimated scf accuracy    <       1.55392906 Ry

     total magnetization       =    94.00 Bohr mag/cell
     absolute magnetization    =   102.38 Bohr mag/cell

     iteration # 17     ecut=    50.00 Ry     beta= 0.10
     Davidson diagonalization with overlap
     ethr =  1.17E-04,  avg # of iterations =  1.0

     negative rho (up, down):  6.065E-05 2.090E-04
 
     Adding external electric field

     Computed dipole along edir(3) : 
        Dipole               -1.0517 Ry au,         -2.6731 Debye
        Dipole field         -0.0006 Ry au, 
 
        Potential amp.        0.0690 Ry
        Total length         54.7057 bohr
 
 
     Adding external electric field

     Computed dipole along edir(3) : 
        Dipole               -1.0517 Ry au,         -2.6731 Debye
        Dipole field         -0.0006 Ry au, 
 
        Potential amp.        0.0690 Ry
        Total length         54.7057 bohr
 

     total cpu time spent up to now is      381.4 secs

     total energy              =   -8078.46580965 Ry
     estimated scf accuracy    <       0.63401109 Ry

     total magnetization       =    96.83 Bohr mag/cell
     absolute magnetization    =   104.42 Bohr mag/cell

     iteration # 18     ecut=    50.00 Ry     beta= 0.10
     Davidson diagonalization with overlap
     ethr =  5.72E-05,  avg # of iterations =  2.5

     negative rho (up, down):  5.754E-05 4.172E-04
 
     Adding external electric field

     Computed dipole along edir(3) : 
        Dipole               -1.0123 Ry au,         -2.5730 Debye
        Dipole field         -0.0006 Ry au, 
 
        Potential amp.        0.0664 Ry
        Total length         54.7057 bohr
 
 
     Adding external electric field

     Computed dipole along edir(3) : 
        Dipole               -1.0123 Ry au,         -2.5730 Debye
        Dipole field         -0.0006 Ry au, 
 
        Potential amp.        0.0664 Ry
        Total length         54.7057 bohr
 

     total cpu time spent up to now is      400.2 secs

     total energy              =   -8078.51605068 Ry
     estimated scf accuracy    <       0.67658065 Ry

     total magnetization       =    95.90 Bohr mag/cell
     absolute magnetization    =   100.39 Bohr mag/cell

     iteration # 19     ecut=    50.00 Ry     beta= 0.10
     Davidson diagonalization with overlap
     ethr =  5.72E-05,  avg # of iterations =  1.0

     negative rho (up, down):  1.078E-04 4.602E-04
 
     Adding external electric field

     Computed dipole along edir(3) : 
        Dipole               -0.9714 Ry au,         -2.4690 Debye
        Dipole field         -0.0006 Ry au, 
 
        Potential amp.        0.0637 Ry
        Total length         54.7057 bohr
 
 
     Adding external electric field

     Computed dipole along edir(3) : 
        Dipole               -0.9714 Ry au,         -2.4690 Debye
        Dipole field         -0.0006 Ry au, 
 
        Potential amp.        0.0637 Ry
        Total length         54.7057 bohr
 

     total cpu time spent up to now is      416.0 secs

     total energy              =   -8078.55105668 Ry
     estimated scf accuracy    <       0.81016539 Ry

     total magnetization       =    95.17 Bohr mag/cell
     absolute magnetization    =    98.68 Bohr mag/cell

     iteration # 20     ecut=    50.00 Ry     beta= 0.10
     Davidson diagonalization with overlap
     ethr =  5.72E-05,  avg # of iterations =  2.0

     negative rho (up, down):  1.935E-04 4.797E-04
 
     Adding external electric field

     Computed dipole along edir(3) : 
        Dipole               -0.9053 Ry au,         -2.3010 Debye
        Dipole field         -0.0005 Ry au, 
 
        Potential amp.        0.0594 Ry
        Total length         54.7057 bohr
 
 
     Adding external electric field

     Computed dipole along edir(3) : 
        Dipole               -0.9053 Ry au,         -2.3010 Debye
        Dipole field         -0.0005 Ry au, 
 
        Potential amp.        0.0594 Ry
        Total length         54.7057 bohr
 

     total cpu time spent up to now is      433.5 secs

     total energy              =   -8078.57993567 Ry
     estimated scf accuracy    <       0.68579325 Ry

     total magnetization       =    95.45 Bohr mag/cell
     absolute magnetization    =    98.37 Bohr mag/cell

     iteration # 21     ecut=    50.00 Ry     beta= 0.10
     Davidson diagonalization with overlap
     ethr =  5.72E-05,  avg # of iterations =  1.0

     negative rho (up, down):  2.245E-04 5.035E-04
 
     Adding external electric field

     Computed dipole along edir(3) : 
        Dipole               -0.9024 Ry au,         -2.2937 Debye
        Dipole field         -0.0005 Ry au, 
 
        Potential amp.        0.0592 Ry
        Total length         54.7057 bohr
 
 
     Adding external electric field

     Computed dipole along edir(3) : 
        Dipole               -0.9024 Ry au,         -2.2937 Debye
        Dipole field         -0.0005 Ry au, 
 
        Potential amp.        0.0592 Ry
        Total length         54.7057 bohr
 

     total cpu time spent up to now is      449.3 secs

     total energy              =   -8078.58849675 Ry
     estimated scf accuracy    <       0.53842915 Ry

     total magnetization       =    96.06 Bohr mag/cell
     absolute magnetization    =    98.27 Bohr mag/cell

     iteration # 22     ecut=    50.00 Ry     beta= 0.10
     Davidson diagonalization with overlap
     ethr =  4.86E-05,  avg # of iterations =  1.0

     negative rho (up, down):  1.729E-04 5.258E-04
 
     Adding external electric field

     Computed dipole along edir(3) : 
        Dipole               -0.8362 Ry au,         -2.1253 Debye
        Dipole field         -0.0005 Ry au, 
 
        Potential amp.        0.0548 Ry
        Total length         54.7057 bohr
 
 
     Adding external electric field

     Computed dipole along edir(3) : 
        Dipole               -0.8362 Ry au,         -2.1253 Debye
        Dipole field         -0.0005 Ry au, 
 
        Potential amp.        0.0548 Ry
        Total length         54.7057 bohr
 

     total cpu time spent up to now is      466.2 secs

     total energy              =   -8078.58315768 Ry
     estimated scf accuracy    <       0.51376379 Ry

     total magnetization       =    96.26 Bohr mag/cell
     absolute magnetization    =    98.38 Bohr mag/cell

     iteration # 23     ecut=    50.00 Ry     beta= 0.10
     Davidson diagonalization with overlap
     ethr =  4.64E-05,  avg # of iterations =  2.0

     negative rho (up, down):  1.431E-04 3.630E-04
 
     Adding external electric field

     Computed dipole along edir(3) : 
        Dipole               -0.7760 Ry au,         -1.9724 Debye
        Dipole field         -0.0005 Ry au, 
 
        Potential amp.        0.0509 Ry
        Total length         54.7057 bohr
 
 
     Adding external electric field

     Computed dipole along edir(3) : 
        Dipole               -0.7760 Ry au,         -1.9724 Debye
        Dipole field         -0.0005 Ry au, 
 
        Potential amp.        0.0509 Ry
        Total length         54.7057 bohr
 

     total cpu time spent up to now is      483.3 secs

     total energy              =   -8078.58650711 Ry
     estimated scf accuracy    <       0.44175594 Ry

     total magnetization       =    96.69 Bohr mag/cell
     absolute magnetization    =    98.59 Bohr mag/cell

     iteration # 24     ecut=    50.00 Ry     beta= 0.10
     Davidson diagonalization with overlap
     ethr =  3.99E-05,  avg # of iterations =  2.0

     negative rho (up, down):  7.237E-05 7.134E-05
 
     Adding external electric field

     Computed dipole along edir(3) : 
        Dipole               -0.6465 Ry au,         -1.6432 Debye
        Dipole field         -0.0004 Ry au, 
 
        Potential amp.        0.0424 Ry
        Total length         54.7057 bohr
 
 
     Adding external electric field

     Computed dipole along edir(3) : 
        Dipole               -0.6465 Ry au,         -1.6432 Debye
        Dipole field         -0.0004 Ry au, 
 
        Potential amp.        0.0424 Ry
        Total length         54.7057 bohr
 

     total cpu time spent up to now is      499.5 secs

     total energy              =   -8078.57584081 Ry
     estimated scf accuracy    <       0.39728845 Ry

     total magnetization       =    97.09 Bohr mag/cell
     absolute magnetization    =    98.96 Bohr mag/cell

     iteration # 25     ecut=    50.00 Ry     beta= 0.10
     Davidson diagonalization with overlap
     ethr =  3.59E-05,  avg # of iterations =  2.0

     negative rho (up, down):  3.880E-05 2.961E-05
 
     Adding external electric field

     Computed dipole along edir(3) : 
        Dipole               -0.5913 Ry au,         -1.5028 Debye
        Dipole field         -0.0004 Ry au, 
 
        Potential amp.        0.0388 Ry
        Total length         54.7057 bohr
 
 
     Adding external electric field

     Computed dipole along edir(3) : 
        Dipole               -0.5913 Ry au,         -1.5028 Debye
        Dipole field         -0.0004 Ry au, 
 
        Potential amp.        0.0388 Ry
        Total length         54.7057 bohr
 

     total cpu time spent up to now is      516.0 secs

     total energy              =   -8078.57538227 Ry
     estimated scf accuracy    <       0.26453439 Ry

     total magnetization       =    97.76 Bohr mag/cell
     absolute magnetization    =    99.56 Bohr mag/cell

     iteration # 26     ecut=    50.00 Ry     beta= 0.10
     Davidson diagonalization with overlap
     ethr =  2.39E-05,  avg # of iterations = 12.5

     negative rho (up, down):  1.348E-05 1.064E-05
 
     Adding external electric field

     Computed dipole along edir(3) : 
        Dipole               -0.6175 Ry au,         -1.5696 Debye
        Dipole field         -0.0004 Ry au, 
 
        Potential amp.        0.0405 Ry
        Total length         54.7057 bohr
 
 
     Adding external electric field

     Computed dipole along edir(3) : 
        Dipole               -0.6175 Ry au,         -1.5696 Debye
        Dipole field         -0.0004 Ry au, 
 
        Potential amp.        0.0405 Ry
        Total length         54.7057 bohr
 

     total cpu time spent up to now is      546.9 secs

     total energy              =   -8078.57107789 Ry
     estimated scf accuracy    <       0.23461277 Ry

     total magnetization       =    97.49 Bohr mag/cell
     absolute magnetization    =    98.98 Bohr mag/cell

     iteration # 27     ecut=    50.00 Ry     beta= 0.10
     Davidson diagonalization with overlap
     ethr =  2.12E-05,  avg # of iterations = 12.5

     negative rho (up, down):  2.458E-06 7.374E-06
 
     Adding external electric field

     Computed dipole along edir(3) : 
        Dipole               -0.6120 Ry au,         -1.5557 Debye
        Dipole field         -0.0004 Ry au, 
 
        Potential amp.        0.0401 Ry
        Total length         54.7057 bohr
 
 
     Adding external electric field

     Computed dipole along edir(3) : 
        Dipole               -0.6120 Ry au,         -1.5557 Debye
        Dipole field         -0.0004 Ry au, 
 
        Potential amp.        0.0401 Ry
        Total length         54.7057 bohr
 

     total cpu time spent up to now is      578.9 secs

     total energy              =   -8078.56503708 Ry
     estimated scf accuracy    <       0.15934750 Ry

     total magnetization       =    97.12 Bohr mag/cell
     absolute magnetization    =    98.61 Bohr mag/cell

     iteration # 28     ecut=    50.00 Ry     beta= 0.10
     Davidson diagonalization with overlap
     ethr =  1.44E-05,  avg # of iterations =  3.0

     negative rho (up, down):  8.622E-07 8.159E-06
 
     Adding external electric field

     Computed dipole along edir(3) : 
        Dipole               -0.6399 Ry au,         -1.6265 Debye
        Dipole field         -0.0004 Ry au, 
 
        Potential amp.        0.0420 Ry
        Total length         54.7057 bohr
 
 
     Adding external electric field

     Computed dipole along edir(3) : 
        Dipole               -0.6399 Ry au,         -1.6265 Debye
        Dipole field         -0.0004 Ry au, 
 
        Potential amp.        0.0420 Ry
        Total length         54.7057 bohr
 

     total cpu time spent up to now is      596.6 secs

     total energy              =   -8078.55444722 Ry
     estimated scf accuracy    <       0.08925805 Ry

     total magnetization       =    96.98 Bohr mag/cell
     absolute magnetization    =    98.59 Bohr mag/cell

     iteration # 29     ecut=    50.00 Ry     beta= 0.10
     Davidson diagonalization with overlap
     c_bands:  1 eigenvalues not converged
     ethr =  8.06E-06,  avg # of iterations = 12.5

     negative rho (up, down):  1.220E-06 1.048E-05
 
     Adding external electric field

     Computed dipole along edir(3) : 
        Dipole               -0.6350 Ry au,         -1.6141 Debye
        Dipole field         -0.0004 Ry au, 
 
        Potential amp.        0.0417 Ry
        Total length         54.7057 bohr
 
 
     Adding external electric field

     Computed dipole along edir(3) : 
        Dipole               -0.6350 Ry au,         -1.6141 Debye
        Dipole field         -0.0004 Ry au, 
 
        Potential amp.        0.0417 Ry
        Total length         54.7057 bohr
 

     total cpu time spent up to now is      620.0 secs

     total energy              =   -8078.55762093 Ry
     estimated scf accuracy    <       0.10447088 Ry

     total magnetization       =    97.10 Bohr mag/cell
     absolute magnetization    =    98.93 Bohr mag/cell

     iteration # 30     ecut=    50.00 Ry     beta= 0.10
     Davidson diagonalization with overlap
     ethr =  8.06E-06,  avg # of iterations = 18.5

     negative rho (up, down):  2.975E-06 1.157E-05
 
     Adding external electric field

     Computed dipole along edir(3) : 
        Dipole               -0.5476 Ry au,         -1.3918 Debye
        Dipole field         -0.0003 Ry au, 
 
        Potential amp.        0.0359 Ry
        Total length         54.7057 bohr
 
 
     Adding external electric field

     Computed dipole along edir(3) : 
        Dipole               -0.5476 Ry au,         -1.3918 Debye
        Dipole field         -0.0003 Ry au, 
 
        Potential amp.        0.0359 Ry
        Total length         54.7057 bohr
 

     total cpu time spent up to now is      653.7 secs

     total energy              =   -8078.56351556 Ry
     estimated scf accuracy    <       0.10403637 Ry

     total magnetization       =    97.14 Bohr mag/cell
     absolute magnetization    =    98.95 Bohr mag/cell

     iteration # 31     ecut=    50.00 Ry     beta= 0.10
     Davidson diagonalization with overlap
     ethr =  8.06E-06,  avg # of iterations =  2.0

     negative rho (up, down):  6.762E-06 2.868E-05
 
     Adding external electric field

     Computed dipole along edir(3) : 
        Dipole               -0.5197 Ry au,         -1.3209 Debye
        Dipole field         -0.0003 Ry au, 
 
        Potential amp.        0.0341 Ry
        Total length         54.7057 bohr
 
 
     Adding external electric field

     Computed dipole along edir(3) : 
        Dipole               -0.5197 Ry au,         -1.3209 Debye
        Dipole field         -0.0003 Ry au, 
 
        Potential amp.        0.0341 Ry
        Total length         54.7057 bohr
 

     total cpu time spent up to now is      670.6 secs

     total energy              =   -8078.56563139 Ry
     estimated scf accuracy    <       0.08528978 Ry

     total magnetization       =    97.23 Bohr mag/cell
     absolute magnetization    =    98.68 Bohr mag/cell

     iteration # 32     ecut=    50.00 Ry     beta= 0.10
     Davidson diagonalization with overlap
     ethr =  7.70E-06,  avg # of iterations =  1.5

     negative rho (up, down):  6.402E-06 1.484E-05
 
     Adding external electric field

     Computed dipole along edir(3) : 
        Dipole               -0.5329 Ry au,         -1.3546 Debye
        Dipole field         -0.0003 Ry au, 
 
        Potential amp.        0.0350 Ry
        Total length         54.7057 bohr
 
 
     Adding external electric field

     Computed dipole along edir(3) : 
        Dipole               -0.5329 Ry au,         -1.3546 Debye
        Dipole field         -0.0003 Ry au, 
 
        Potential amp.        0.0350 Ry
        Total length         54.7057 bohr
 

     total cpu time spent up to now is      686.2 secs

     total energy              =   -8078.56583158 Ry
     estimated scf accuracy    <       0.07982229 Ry

     total magnetization       =    97.16 Bohr mag/cell
     absolute magnetization    =    98.49 Bohr mag/cell

     iteration # 33     ecut=    50.00 Ry     beta= 0.10
     Davidson diagonalization with overlap
     ethr =  7.20E-06,  avg # of iterations =  2.0

     negative rho (up, down):  6.661E-06 1.408E-05
 
     Adding external electric field

     Computed dipole along edir(3) : 
        Dipole               -0.5294 Ry au,         -1.3456 Debye
        Dipole field         -0.0003 Ry au, 
 
        Potential amp.        0.0347 Ry
        Total length         54.7057 bohr
 
 
     Adding external electric field

     Computed dipole along edir(3) : 
        Dipole               -0.5294 Ry au,         -1.3456 Debye
        Dipole field         -0.0003 Ry au, 
 
        Potential amp.        0.0347 Ry
        Total length         54.7057 bohr
 

     total cpu time spent up to now is      703.4 secs

     total energy              =   -8078.56626546 Ry
     estimated scf accuracy    <       0.07158894 Ry

     total magnetization       =    97.02 Bohr mag/cell
     absolute magnetization    =    98.38 Bohr mag/cell

     iteration # 34     ecut=    50.00 Ry     beta= 0.10
     Davidson diagonalization with overlap
     ethr =  6.46E-06,  avg # of iterations =  1.5

     negative rho (up, down):  7.664E-06 2.363E-05
 
     Adding external electric field

     Computed dipole along edir(3) : 
        Dipole               -0.5433 Ry au,         -1.3808 Debye
        Dipole field         -0.0003 Ry au, 
 
        Potential amp.        0.0356 Ry
        Total length         54.7057 bohr
 
 
     Adding external electric field

     Computed dipole along edir(3) : 
        Dipole               -0.5433 Ry au,         -1.3808 Debye
        Dipole field         -0.0003 Ry au, 
 
        Potential amp.        0.0356 Ry
        Total length         54.7057 bohr
 

     total cpu time spent up to now is      719.2 secs

     total energy              =   -8078.56506483 Ry
     estimated scf accuracy    <       0.07703688 Ry

     total magnetization       =    97.00 Bohr mag/cell
     absolute magnetization    =    98.38 Bohr mag/cell

     iteration # 35     ecut=    50.00 Ry     beta= 0.10
     Davidson diagonalization with overlap
     ethr =  6.46E-06,  avg # of iterations =  3.5

     negative rho (up, down):  8.602E-06 3.597E-05
 
     Adding external electric field

     Computed dipole along edir(3) : 
        Dipole               -0.5383 Ry au,         -1.3683 Debye
        Dipole field         -0.0003 Ry au, 
 
        Potential amp.        0.0353 Ry
        Total length         54.7057 bohr
 
 
     Adding external electric field

     Computed dipole along edir(3) : 
        Dipole               -0.5383 Ry au,         -1.3683 Debye
        Dipole field         -0.0003 Ry au, 
 
        Potential amp.        0.0353 Ry
        Total length         54.7057 bohr
 

     total cpu time spent up to now is      736.6 secs

     total energy              =   -8078.56472110 Ry
     estimated scf accuracy    <       0.04500693 Ry

     total magnetization       =    97.03 Bohr mag/cell
     absolute magnetization    =    98.30 Bohr mag/cell

     iteration # 36     ecut=    50.00 Ry     beta= 0.10
     Davidson diagonalization with overlap
     ethr =  4.06E-06,  avg # of iterations =  2.0

     negative rho (up, down):  1.321E-05 4.659E-05
 
     Adding external electric field

     Computed dipole along edir(3) : 
        Dipole               -0.5252 Ry au,         -1.3350 Debye
        Dipole field         -0.0003 Ry au, 
 
        Potential amp.        0.0344 Ry
        Total length         54.7057 bohr
 
 
     Adding external electric field

     Computed dipole along edir(3) : 
        Dipole               -0.5252 Ry au,         -1.3350 Debye
        Dipole field         -0.0003 Ry au, 
 
        Potential amp.        0.0344 Ry
        Total length         54.7057 bohr
 

     total cpu time spent up to now is      753.4 secs

     total energy              =   -8078.56425983 Ry
     estimated scf accuracy    <       0.04199175 Ry

     total magnetization       =    97.02 Bohr mag/cell
     absolute magnetization    =    98.22 Bohr mag/cell

     iteration # 37     ecut=    50.00 Ry     beta= 0.10
     Davidson diagonalization with overlap
     ethr =  3.79E-06,  avg # of iterations = 18.0

     negative rho (up, down):  1.938E-05 3.783E-05
 
     Adding external electric field

     Computed dipole along edir(3) : 
        Dipole               -0.5282 Ry au,         -1.3425 Debye
        Dipole field         -0.0003 Ry au, 
 
        Potential amp.        0.0346 Ry
        Total length         54.7057 bohr
 
 
     Adding external electric field

     Computed dipole along edir(3) : 
        Dipole               -0.5282 Ry au,         -1.3425 Debye
        Dipole field         -0.0003 Ry au, 
 
        Potential amp.        0.0346 Ry
        Total length         54.7057 bohr
 

     total cpu time spent up to now is      789.4 secs

     total energy              =   -8078.56434332 Ry
     estimated scf accuracy    <       0.03923274 Ry

     total magnetization       =    97.02 Bohr mag/cell
     absolute magnetization    =    98.17 Bohr mag/cell

     iteration # 38     ecut=    50.00 Ry     beta= 0.10
     Davidson diagonalization with overlap
     ethr =  3.54E-06,  avg # of iterations =  2.0

     negative rho (up, down):  6.151E-05 5.575E-05
 
     Adding external electric field

     Computed dipole along edir(3) : 
        Dipole               -0.5313 Ry au,         -1.3504 Debye
        Dipole field         -0.0003 Ry au, 
 
        Potential amp.        0.0348 Ry
        Total length         54.7057 bohr
 
 
     Adding external electric field

     Computed dipole along edir(3) : 
        Dipole               -0.5313 Ry au,         -1.3504 Debye
        Dipole field         -0.0003 Ry au, 
 
        Potential amp.        0.0348 Ry
        Total length         54.7057 bohr
 

     total cpu time spent up to now is      805.9 secs

     total energy              =   -8078.56393976 Ry
     estimated scf accuracy    <       0.03497182 Ry

     total magnetization       =    97.06 Bohr mag/cell
     absolute magnetization    =    98.23 Bohr mag/cell

     iteration # 39     ecut=    50.00 Ry     beta= 0.10
     Davidson diagonalization with overlap
     ethr =  3.16E-06,  avg # of iterations =  2.0

     negative rho (up, down):  7.851E-05 6.232E-05
 
     Adding external electric field

     Computed dipole along edir(3) : 
        Dipole               -0.5313 Ry au,         -1.3503 Debye
        Dipole field         -0.0003 Ry au, 
 
        Potential amp.        0.0348 Ry
        Total length         54.7057 bohr
 
 
     Adding external electric field

     Computed dipole along edir(3) : 
        Dipole               -0.5313 Ry au,         -1.3503 Debye
        Dipole field         -0.0003 Ry au, 
 
        Potential amp.        0.0348 Ry
        Total length         54.7057 bohr
 

     total cpu time spent up to now is      823.4 secs

     total energy              =   -8078.56392926 Ry
     estimated scf accuracy    <       0.03135521 Ry

     total magnetization       =    97.03 Bohr mag/cell
     absolute magnetization    =    98.21 Bohr mag/cell

     iteration # 40     ecut=    50.00 Ry     beta= 0.10
     Davidson diagonalization with overlap
     ethr =  2.83E-06,  avg # of iterations =  2.0

     negative rho (up, down):  1.087E-04 1.246E-04
 
     Adding external electric field

     Computed dipole along edir(3) : 
        Dipole               -0.5322 Ry au,         -1.3528 Debye
        Dipole field         -0.0003 Ry au, 
 
        Potential amp.        0.0349 Ry
        Total length         54.7057 bohr
 
 
     Adding external electric field

     Computed dipole along edir(3) : 
        Dipole               -0.5322 Ry au,         -1.3528 Debye
        Dipole field         -0.0003 Ry au, 
 
        Potential amp.        0.0349 Ry
        Total length         54.7057 bohr
 

     total cpu time spent up to now is      840.2 secs

     total energy              =   -8078.56321048 Ry
     estimated scf accuracy    <       0.03018715 Ry

     total magnetization       =    97.00 Bohr mag/cell
     absolute magnetization    =    98.17 Bohr mag/cell

     iteration # 41     ecut=    50.00 Ry     beta= 0.10
     Davidson diagonalization with overlap
     c_bands:  5 eigenvalues not converged
     ethr =  2.72E-06,  avg # of iterations = 11.0

     negative rho (up, down):  1.103E-04 1.032E-04
 
     Adding external electric field

     Computed dipole along edir(3) : 
        Dipole               -0.5292 Ry au,         -1.3451 Debye
        Dipole field         -0.0003 Ry au, 
 
        Potential amp.        0.0347 Ry
        Total length         54.7057 bohr
 
 
     Adding external electric field

     Computed dipole along edir(3) : 
        Dipole               -0.5292 Ry au,         -1.3451 Debye
        Dipole field         -0.0003 Ry au, 
 
        Potential amp.        0.0347 Ry
        Total length         54.7057 bohr
 

     total cpu time spent up to now is      864.1 secs

     total energy              =   -8078.56334578 Ry
     estimated scf accuracy    <       0.02956263 Ry

     total magnetization       =    96.95 Bohr mag/cell
     absolute magnetization    =    98.10 Bohr mag/cell

     iteration # 42     ecut=    50.00 Ry     beta= 0.10
     Davidson diagonalization with overlap
     ethr =  2.67E-06,  avg # of iterations =  1.5

     negative rho (up, down):  9.394E-05 1.180E-04
 
     Adding external electric field

     Computed dipole along edir(3) : 
        Dipole               -0.5372 Ry au,         -1.3654 Debye
        Dipole field         -0.0003 Ry au, 
 
        Potential amp.        0.0352 Ry
        Total length         54.7057 bohr
 
 
     Adding external electric field

     Computed dipole along edir(3) : 
        Dipole               -0.5372 Ry au,         -1.3654 Debye
        Dipole field         -0.0003 Ry au, 
 
        Potential amp.        0.0352 Ry
        Total length         54.7057 bohr
 

     total cpu time spent up to now is      879.5 secs

     total energy              =   -8078.56363926 Ry
     estimated scf accuracy    <       0.02970427 Ry

     total magnetization       =    96.99 Bohr mag/cell
     absolute magnetization    =    98.13 Bohr mag/cell

     iteration # 43     ecut=    50.00 Ry     beta= 0.10
     Davidson diagonalization with overlap
     ethr =  2.67E-06,  avg # of iterations =  1.0

     negative rho (up, down):  1.174E-04 1.634E-04
 
     Adding external electric field

     Computed dipole along edir(3) : 
        Dipole               -0.4973 Ry au,         -1.2641 Debye
        Dipole field         -0.0003 Ry au, 
 
        Potential amp.        0.0326 Ry
        Total length         54.7057 bohr
 
 
     Adding external electric field

     Computed dipole along edir(3) : 
        Dipole               -0.4973 Ry au,         -1.2641 Debye
        Dipole field         -0.0003 Ry au, 
 
        Potential amp.        0.0326 Ry
        Total length         54.7057 bohr
 

     total cpu time spent up to now is      893.7 secs

     total energy              =   -8078.56308498 Ry
     estimated scf accuracy    <       0.02968284 Ry

     total magnetization       =    96.95 Bohr mag/cell
     absolute magnetization    =    98.11 Bohr mag/cell

     iteration # 44     ecut=    50.00 Ry     beta= 0.10
     Davidson diagonalization with overlap
     ethr =  2.67E-06,  avg # of iterations =  1.5

     negative rho (up, down):  8.259E-05 7.319E-05
 
     Adding external electric field

     Computed dipole along edir(3) : 
        Dipole               -0.5567 Ry au,         -1.4150 Debye
        Dipole field         -0.0003 Ry au, 
 
        Potential amp.        0.0365 Ry
        Total length         54.7057 bohr
 
 
     Adding external electric field

     Computed dipole along edir(3) : 
        Dipole               -0.5567 Ry au,         -1.4150 Debye
        Dipole field         -0.0003 Ry au, 
 
        Potential amp.        0.0365 Ry
        Total length         54.7057 bohr
 

     total cpu time spent up to now is      908.9 secs

     total energy              =   -8078.56349928 Ry
     estimated scf accuracy    <       0.03643812 Ry

     total magnetization       =    96.87 Bohr mag/cell
     absolute magnetization    =    98.00 Bohr mag/cell

     iteration # 45     ecut=    50.00 Ry     beta= 0.10
     Davidson diagonalization with overlap
     ethr =  2.67E-06,  avg # of iterations =  1.5

     negative rho (up, down):  1.186E-04 1.228E-04
 
     Adding external electric field

     Computed dipole along edir(3) : 
        Dipole               -0.5385 Ry au,         -1.3687 Debye
        Dipole field         -0.0003 Ry au, 
 
        Potential amp.        0.0353 Ry
        Total length         54.7057 bohr
 
 
     Adding external electric field

     Computed dipole along edir(3) : 
        Dipole               -0.5385 Ry au,         -1.3687 Debye
        Dipole field         -0.0003 Ry au, 
 
        Potential amp.        0.0353 Ry
        Total length         54.7057 bohr
 

     total cpu time spent up to now is      923.7 secs

     total energy              =   -8078.56357779 Ry
     estimated scf accuracy    <       0.03092696 Ry

     total magnetization       =    96.99 Bohr mag/cell
     absolute magnetization    =    98.19 Bohr mag/cell

     iteration # 46     ecut=    50.00 Ry     beta= 0.10
     Davidson diagonalization with overlap
     ethr =  2.67E-06,  avg # of iterations =  1.0

     negative rho (up, down):  1.013E-04 1.053E-04
 
     Adding external electric field

     Computed dipole along edir(3) : 
        Dipole               -0.5522 Ry au,         -1.4036 Debye
        Dipole field         -0.0003 Ry au, 
 
        Potential amp.        0.0362 Ry
        Total length         54.7057 bohr
 
 
     Adding external electric field

     Computed dipole along edir(3) : 
        Dipole               -0.5522 Ry au,         -1.4036 Debye
        Dipole field         -0.0003 Ry au, 
 
        Potential amp.        0.0362 Ry
        Total length         54.7057 bohr
 

     total cpu time spent up to now is      938.3 secs

     total energy              =   -8078.56355760 Ry
     estimated scf accuracy    <       0.03078884 Ry

     total magnetization       =    96.99 Bohr mag/cell
     absolute magnetization    =    98.17 Bohr mag/cell

     iteration # 47     ecut=    50.00 Ry     beta= 0.10
     Davidson diagonalization with overlap
     ethr =  2.67E-06,  avg # of iterations =  1.0

     negative rho (up, down):  2.239E-04 1.841E-04
 
     Adding external electric field

     Computed dipole along edir(3) : 
        Dipole               -0.5487 Ry au,         -1.3946 Debye
        Dipole field         -0.0003 Ry au, 
 
        Potential amp.        0.0360 Ry
        Total length         54.7057 bohr
 
 
     Adding external electric field

     Computed dipole along edir(3) : 
        Dipole               -0.5487 Ry au,         -1.3946 Debye
        Dipole field         -0.0003 Ry au, 
 
        Potential amp.        0.0360 Ry
        Total length         54.7057 bohr
 

     total cpu time spent up to now is      953.9 secs

     total energy              =   -8078.56383782 Ry
     estimated scf accuracy    <       0.02931440 Ry

     total magnetization       =    96.92 Bohr mag/cell
     absolute magnetization    =    98.09 Bohr mag/cell

     iteration # 48     ecut=    50.00 Ry     beta= 0.10
     Davidson diagonalization with overlap
     ethr =  2.65E-06,  avg # of iterations =  1.5

     negative rho (up, down):  1.935E-04 1.394E-04
 
     Adding external electric field

     Computed dipole along edir(3) : 
        Dipole               -0.5560 Ry au,         -1.4131 Debye
        Dipole field         -0.0003 Ry au, 
 
        Potential amp.        0.0365 Ry
        Total length         54.7057 bohr
 
 
     Adding external electric field

     Computed dipole along edir(3) : 
        Dipole               -0.5560 Ry au,         -1.4131 Debye
        Dipole field         -0.0003 Ry au, 
 
        Potential amp.        0.0365 Ry
        Total length         54.7057 bohr
 

     total cpu time spent up to now is      969.5 secs

     total energy              =   -8078.56382662 Ry
     estimated scf accuracy    <       0.02754983 Ry

     total magnetization       =    96.93 Bohr mag/cell
     absolute magnetization    =    98.12 Bohr mag/cell

     iteration # 49     ecut=    50.00 Ry     beta= 0.10
     Davidson diagonalization with overlap
     ethr =  2.49E-06,  avg # of iterations =  1.0

     negative rho (up, down):  2.053E-04 2.056E-04
 
     Adding external electric field

     Computed dipole along edir(3) : 
        Dipole               -0.5461 Ry au,         -1.3880 Debye
        Dipole field         -0.0003 Ry au, 
 
        Potential amp.        0.0358 Ry
        Total length         54.7057 bohr
 
 
     Adding external electric field

     Computed dipole along edir(3) : 
        Dipole               -0.5461 Ry au,         -1.3880 Debye
        Dipole field         -0.0003 Ry au, 
 
        Potential amp.        0.0358 Ry
        Total length         54.7057 bohr
 

     total cpu time spent up to now is      984.4 secs

     total energy              =   -8078.56388823 Ry
     estimated scf accuracy    <       0.02839787 Ry

     total magnetization       =    96.97 Bohr mag/cell
     absolute magnetization    =    98.17 Bohr mag/cell

     iteration # 50     ecut=    50.00 Ry     beta= 0.10
     Davidson diagonalization with overlap
     ethr =  2.49E-06,  avg # of iterations =  1.0

     negative rho (up, down):  1.520E-04 1.662E-04
 
     Adding external electric field

     Computed dipole along edir(3) : 
        Dipole               -0.5385 Ry au,         -1.3688 Debye
        Dipole field         -0.0003 Ry au, 
 
        Potential amp.        0.0353 Ry
        Total length         54.7057 bohr
 
 
     Adding external electric field

     Computed dipole along edir(3) : 
        Dipole               -0.5385 Ry au,         -1.3688 Debye
        Dipole field         -0.0003 Ry au, 
 
        Potential amp.        0.0353 Ry
        Total length         54.7057 bohr
 

     total cpu time spent up to now is      998.5 secs

     total energy              =   -8078.56371023 Ry
     estimated scf accuracy    <       0.02873063 Ry

     total magnetization       =    96.91 Bohr mag/cell
     absolute magnetization    =    98.11 Bohr mag/cell

     iteration # 51     ecut=    50.00 Ry     beta= 0.10
     Davidson diagonalization with overlap
     ethr =  2.49E-06,  avg # of iterations =  1.0

     negative rho (up, down):  1.804E-04 2.697E-04
 
     Adding external electric field

     Computed dipole along edir(3) : 
        Dipole               -0.5482 Ry au,         -1.3934 Debye
        Dipole field         -0.0003 Ry au, 
 
        Potential amp.        0.0360 Ry
        Total length         54.7057 bohr
 
 
     Adding external electric field

     Computed dipole along edir(3) : 
        Dipole               -0.5482 Ry au,         -1.3934 Debye
        Dipole field         -0.0003 Ry au, 
 
        Potential amp.        0.0360 Ry
        Total length         54.7057 bohr
 

     total cpu time spent up to now is     1013.9 secs

     total energy              =   -8078.56306610 Ry
     estimated scf accuracy    <       0.02850482 Ry

     total magnetization       =    96.90 Bohr mag/cell
     absolute magnetization    =    98.07 Bohr mag/cell

     iteration # 52     ecut=    50.00 Ry     beta= 0.10
     Davidson diagonalization with overlap
     ethr =  2.49E-06,  avg # of iterations =  2.0

     negative rho (up, down):  2.544E-04 2.006E-04
 
     Adding external electric field

     Computed dipole along edir(3) : 
        Dipole               -0.5604 Ry au,         -1.4243 Debye
        Dipole field         -0.0003 Ry au, 
 
        Potential amp.        0.0368 Ry
        Total length         54.7057 bohr
 
 
     Adding external electric field

     Computed dipole along edir(3) : 
        Dipole               -0.5604 Ry au,         -1.4243 Debye
        Dipole field         -0.0003 Ry au, 
 
        Potential amp.        0.0368 Ry
        Total length         54.7057 bohr
 

     total cpu time spent up to now is     1030.5 secs

     total energy              =   -8078.56356722 Ry
     estimated scf accuracy    <       0.03207923 Ry

     total magnetization       =    96.81 Bohr mag/cell
     absolute magnetization    =    98.09 Bohr mag/cell

     iteration # 53     ecut=    50.00 Ry     beta= 0.10
     Davidson diagonalization with overlap
     ethr =  2.49E-06,  avg # of iterations =  1.0

     negative rho (up, down):  4.079E-04 3.749E-04
 
     Adding external electric field

     Computed dipole along edir(3) : 
        Dipole               -0.5057 Ry au,         -1.2854 Debye
        Dipole field         -0.0003 Ry au, 
 
        Potential amp.        0.0332 Ry
        Total length         54.7057 bohr
 
 
     Adding external electric field

     Computed dipole along edir(3) : 
        Dipole               -0.5057 Ry au,         -1.2854 Debye
        Dipole field         -0.0003 Ry au, 
 
        Potential amp.        0.0332 Ry
        Total length         54.7057 bohr
 

     total cpu time spent up to now is     1045.8 secs

     total energy              =   -8078.56385519 Ry
     estimated scf accuracy    <       0.02879961 Ry

     total magnetization       =    96.89 Bohr mag/cell
     absolute magnetization    =    98.11 Bohr mag/cell

     iteration # 54     ecut=    50.00 Ry     beta= 0.10
     Davidson diagonalization with overlap
     ethr =  2.49E-06,  avg # of iterations =  2.0

     negative rho (up, down):  1.085E-04 1.097E-04
 
     Adding external electric field

     Computed dipole along edir(3) : 
        Dipole               -0.5812 Ry au,         -1.4773 Debye
        Dipole field         -0.0003 Ry au, 
 
        Potential amp.        0.0381 Ry
        Total length         54.7057 bohr
 
 
     Adding external electric field

     Computed dipole along edir(3) : 
        Dipole               -0.5812 Ry au,         -1.4773 Debye
        Dipole field         -0.0003 Ry au, 
 
        Potential amp.        0.0381 Ry
        Total length         54.7057 bohr
 

     total cpu time spent up to now is     1062.7 secs

     total energy              =   -8078.56380064 Ry
     estimated scf accuracy    <       0.03432279 Ry

     total magnetization       =    96.87 Bohr mag/cell
     absolute magnetization    =    98.08 Bohr mag/cell

     iteration # 55     ecut=    50.00 Ry     beta= 0.10
     Davidson diagonalization with overlap
     ethr =  2.49E-06,  avg # of iterations =  1.0

     negative rho (up, down):  2.584E-04 3.051E-04
 
     Adding external electric field

     Computed dipole along edir(3) : 
        Dipole               -0.5167 Ry au,         -1.3134 Debye
        Dipole field         -0.0003 Ry au, 
 
        Potential amp.        0.0339 Ry
        Total length         54.7057 bohr
 
 
     Adding external electric field

     Computed dipole along edir(3) : 
        Dipole               -0.5167 Ry au,         -1.3134 Debye
        Dipole field         -0.0003 Ry au, 
 
        Potential amp.        0.0339 Ry
        Total length         54.7057 bohr
 

     total cpu time spent up to now is     1077.1 secs

     total energy              =   -8078.56355904 Ry
     estimated scf accuracy    <       0.03268252 Ry

     total magnetization       =    96.92 Bohr mag/cell
     absolute magnetization    =    98.21 Bohr mag/cell

     iteration # 56     ecut=    50.00 Ry     beta= 0.10
     Davidson diagonalization with overlap
     ethr =  2.49E-06,  avg # of iterations =  1.0

     negative rho (up, down):  3.646E-04 3.009E-04
 
     Adding external electric field

     Computed dipole along edir(3) : 
        Dipole               -0.5118 Ry au,         -1.3008 Debye
        Dipole field         -0.0003 Ry au, 
 
        Potential amp.        0.0336 Ry
        Total length         54.7057 bohr
 
 
     Adding external electric field

     Computed dipole along edir(3) : 
        Dipole               -0.5118 Ry au,         -1.3008 Debye
        Dipole field         -0.0003 Ry au, 
 
        Potential amp.        0.0336 Ry
        Total length         54.7057 bohr
 

     total cpu time spent up to now is     1091.8 secs

     total energy              =   -8078.56381034 Ry
     estimated scf accuracy    <       0.02987322 Ry

     total magnetization       =    96.93 Bohr mag/cell
     absolute magnetization    =    98.16 Bohr mag/cell

     iteration # 57     ecut=    50.00 Ry     beta= 0.10
     Davidson diagonalization with overlap
     ethr =  2.49E-06,  avg # of iterations =  1.5

     negative rho (up, down):  2.314E-04 1.985E-04
 
     Adding external electric field

     Computed dipole along edir(3) : 
        Dipole               -0.5257 Ry au,         -1.3362 Debye
        Dipole field         -0.0003 Ry au, 
 
        Potential amp.        0.0345 Ry
        Total length         54.7057 bohr
 
 
     Adding external electric field

     Computed dipole along edir(3) : 
        Dipole               -0.5257 Ry au,         -1.3362 Debye
        Dipole field         -0.0003 Ry au, 
 
        Potential amp.        0.0345 Ry
        Total length         54.7057 bohr
 

     total cpu time spent up to now is     1107.7 secs

     total energy              =   -8078.56332533 Ry
     estimated scf accuracy    <       0.02712453 Ry

     total magnetization       =    97.04 Bohr mag/cell
     absolute magnetization    =    98.23 Bohr mag/cell

     iteration # 58     ecut=    50.00 Ry     beta= 0.10
     Davidson diagonalization with overlap
     ethr =  2.45E-06,  avg # of iterations =  1.0

     negative rho (up, down):  2.622E-04 2.513E-04
 
     Adding external electric field

     Computed dipole along edir(3) : 
        Dipole               -0.5082 Ry au,         -1.2917 Debye
        Dipole field         -0.0003 Ry au, 
 
        Potential amp.        0.0333 Ry
[...]
    -6.0021  -5.9918  -5.9794  -5.9574  -5.9124  -5.9036  -5.8649  -5.8605
    -5.8550  -5.8339  -5.8140  -5.7804  -5.7679  -5.7594  -5.6974  -5.6828
    -5.6757  -5.6524  -5.6253  -5.6214  -5.5912  -5.5862  -5.5702  -5.5557
    -5.5479  -5.5169  -5.5064  -5.4934  -5.4879  -5.4828  -5.4643  -5.3796
    -5.3505  -5.3160  -5.2795  -5.2582  -5.2532  -5.2480  -5.2337  -5.1729
    -5.1604  -5.1212  -5.0796  -5.0509  -5.0413  -4.9988  -4.9289  -4.9191
    -4.8738  -4.8558  -4.8392  -4.8015  -4.7921  -4.7602  -4.7457  -4.7220
    -4.6641  -4.6397  -4.6094  -4.5811  -4.5504  -4.4764  -4.4528  -4.4095
    -4.3909  -4.3897  -4.3299  -4.3027  -4.2849  -4.2446  -4.2218  -4.1992
    -4.1931  -4.1586  -4.1139  -4.0779  -4.0545  -4.0027  -4.0014  -3.9734
    -3.8992  -3.8594  -3.8518  -3.8342  -3.8207  -3.7764  -3.7537  -3.7392
    -3.7335  -3.7173  -3.6866  -3.6816  -3.6253  -3.6203  -3.6015  -3.5988
    -3.5533  -3.5310  -3.5271  -3.5240  -3.5049  -3.4940  -3.4661  -3.4318
    -3.4227  -3.4153  -3.3941  -3.3808  -3.3734  -3.3472  -3.3330  -3.3203
    -3.2959  -3.2919  -3.2727  -3.2423  -3.2347  -3.2197  -3.1817  -3.1594
    -3.1421  -3.1053  -3.0790  -3.0731  -3.0562  -3.0402  -3.0283  -3.0039
    -2.9859  -2.9533  -2.9409  -2.9141  -2.8971  -2.8661  -2.8590  -2.8306
    -2.8164  -2.7841  -2.7524  -2.7202  -2.7099  -2.7006  -2.6868  -2.6825
    -2.6777  -2.6646  -2.6533  -2.6364  -2.6276  -2.6177  -2.5990  -2.5835
    -2.5630  -2.5452  -2.5318  -2.5242  -2.5117  -2.5005  -2.4826  -2.4606
    -2.4453  -2.4347  -2.3989  -2.3919  -2.3724  -2.3531  -2.3485  -2.3211
    -2.3020  -2.2902  -2.2826  -2.2662  -2.2433  -2.2118  -2.2034  -2.1838
    -2.1647  -2.1533  -2.1401  -2.1019  -2.0904  -2.0640  -2.0474  -2.0270
    -2.0163  -2.0105  -1.9872  -1.9677  -1.9641  -1.9312  -1.9096  -1.8849
    -1.8798  -1.8685  -1.8619  -1.8435  -1.8327  -1.8215  -1.8107  -1.7990
    -1.7308  -1.7167  -1.6850  -1.6666  -1.6377  -1.6323  -1.6264  -1.6093
    -1.6034  -1.5875  -1.5810  -1.5399  -1.5319  -1.5190  -1.4851  -1.4627
    -1.4443  -1.4283  -1.4102  -1.3877  -1.3741  -1.3539  -1.3407  -1.3298
    -1.3118  -1.3074  -1.2681  -1.2222  -1.1789  -1.1655  -1.1517  -1.1159
    -1.0731  -1.0430  -1.0080  -1.0036  -0.9955  -0.8923  -0.8443  -0.8015
    -0.7567  -0.6596  -0.6165  -0.5981  -0.4583  -0.4155  -0.2772  -0.2055
     0.1764   0.1932   0.2320   0.2532   0.2643   0.2825   0.2917   0.3041
     0.3116   0.3227   0.3397   0.3678   0.3800   0.3820   0.3863   0.3989
     0.4036   0.4082   0.4166   0.4315   0.4383   0.4556   0.4627   0.4652
     0.4776   0.4820   0.4881   0.4938   0.5005   0.5058   0.5143   0.5227
     0.5312   0.5361   0.5502   0.5560   0.5615   0.5734   0.5828   0.5961
     0.6024   0.6094   0.6239   0.6312   0.6349   0.6432   0.6574   0.6618
     0.6703   0.6748   0.6820   0.7169   0.7196   0.7290   0.7316   0.7396
     0.7465   0.7629   0.7734   0.7839   0.8059   0.8083   0.8125   0.8208
     0.8340   0.8402   0.8476   0.8691   0.8739   0.8796   0.8850   0.9040
     0.9064   0.9797   0.9911   1.0263   1.0436   1.0711   1.1294   1.1487
     1.6879   1.7602   1.7716   1.7812   1.7958   1.8257   1.8347   1.8761
     1.8871   1.8940   1.9272   1.9663   1.9787   1.9846   1.9989   2.0285
     2.0498   2.0785   2.0895   2.0989   2.1079   2.1120   2.1503   2.1561
     2.1775   2.1986   2.2041   2.2122   2.2223   2.2390   2.2592   2.2769
     2.2877   2.3038   2.3076   2.3394   2.3629   2.3773   2.4128   2.4438
     2.4534   2.4656   2.4811   2.5020   2.5153   2.5197   2.5673   2.6031
     2.6174   2.6588   2.7403   2.8021   2.8388   2.8593   2.8619   3.4176
     3.4850   3.6794   3.6934   3.7053   3.7569   3.7864   3.8497   3.8795
     3.8858   3.9178   3.9422   3.9520   3.9731   4.0046   4.0213   4.0303
     4.0674   4.0826   4.0882   4.0976   4.1082   4.1391   4.1497   4.1642
     4.2052   4.2236   4.2497   4.2675   4.3048   4.5991   4.6104   4.7813
     4.7941   4.8487   4.8853   4.8971   4.9634   4.9827   4.9904   5.0334
     5.0685   5.0909   5.1449   5.1698   5.2110   5.2201   5.3837   6.1757
     6.3564   6.4416   6.5780   6.6901   6.7189   6.7653   6.8065   6.9026
     6.9262   6.9569   7.0166   7.0460   7.2244   7.2851   7.3243   7.3532
     7.3824   7.4249   7.4769   7.5163   7.5448   7.5895   7.7047   7.7216
     7.8223   7.8333   7.9014   7.9261   7.9594   8.0012   8.0142   8.0464
     8.0641   8.0817   8.1184   8.1653   8.1782   8.2098   8.2345   8.3017
     8.3184   8.3394   8.3606   8.3703   8.3956   8.4006   8.4167   8.4277
     8.4623   8.4796   8.5120   8.5344   8.5669   8.5777   8.6005   8.6399
     8.6481

     the Fermi energy is     1.6888 ev

!    total energy              =   -8078.56146915 Ry
     estimated scf accuracy    <       0.00000052 Ry
     smearing contrib. (-TS)   =      -0.02496575 Ry
     internal energy E=F+TS    =   -8078.53650340 Ry

     The total energy is F=E-TS. E is the sum of the following terms:
     one-electron contribution =  -94749.63062595 Ry
     hartree contribution      =   47959.26298047 Ry
     xc contribution           =   -2177.37005741 Ry
     ewald contribution        =   40890.97156497 Ry
     Dispersion Correction     =      -1.77038059 Ry
     electric field correction =       0.00001512 Ry

     total magnetization       =    97.11 Bohr mag/cell
     absolute magnetization    =    98.33 Bohr mag/cell

     convergence has been achieved in 133 iterations

     negative rho (up, down):  1.167E-03 6.275E-04

     Forces acting on atoms (cartesian axes, Ry/au):

     atom    1 type  1   force =     0.02412979   -0.01756436    0.02016808
     atom    2 type  1   force =    -0.00188704    0.00031188   -0.00545286
     atom    3 type  2   force =    -0.03026604   -0.01569814   -0.00833521
     atom    4 type  1   force =     0.00193446   -0.00346644   -0.00446558
     atom    5 type  1   force =    -0.00382082    0.00223370   -0.00167921
     atom    6 type  1   force =     0.00249462    0.00742617   -0.00410536
     atom    7 type  1   force =     0.03191723   -0.01940834    0.01798260
     atom    8 type  2   force =    -0.00195945    0.00031889   -0.00898334
     atom    9 type  2   force =    -0.02882442   -0.01536877   -0.00835597
     atom   10 type  1   force =     0.00190595   -0.00315657   -0.00416935
     atom   11 type  1   force =    -0.00332602    0.00262704   -0.00081994
     atom   12 type  1   force =     0.00365190    0.00684397   -0.00359713
     atom   13 type  3   force =     0.00212349    0.00071531   -0.00758292
     atom   14 type  3   force =    -0.02977479    0.04993062   -0.06593406
     atom   15 type  3   force =     0.03465830    0.03760047   -0.05980311
     atom   16 type  3   force =    -0.00432288    0.00309719   -0.00093568
     atom   17 type  4   force =    -0.00196723    0.00143145    0.00290563
     atom   18 type  4   force =    -0.00154715   -0.00521440    0.02731714
     atom   19 type  4   force =     0.00393852    0.00275643    0.02943138
     atom   20 type  4   force =    -0.00000074   -0.00267234   -0.00472214
     atom   21 type  4   force =    -0.00297581   -0.00220474    0.00323612
     atom   22 type  4   force =     0.00475212   -0.00331124    0.03429112
     atom   23 type  4   force =    -0.00599557   -0.00111993    0.03255568
     atom   24 type  4   force =     0.00057150   -0.00090154   -0.00005107
     atom   25 type  4   force =    -0.00139797    0.00068590    0.00219332
     atom   26 type  4   force =    -0.01455765   -0.02262503   -0.00175913
     atom   27 type  4   force =     0.00194971   -0.00070661    0.00120295
     atom   28 type  4   force =    -0.01756157    0.00342063    0.00124972
     atom   29 type  4   force =     0.02059481   -0.00458626    0.00832513
     atom   30 type  4   force =     0.01246038   -0.03403738    0.00118296
     atom   31 type  4   force =     0.00057626    0.00081108    0.00231435
     atom   32 type  4   force =    -0.00226322    0.00006319    0.00267099
     atom   33 type  3   force =    -0.00052165   -0.00170473   -0.00506349
     atom   34 type  3   force =    -0.03022787    0.05983871   -0.08312585
     atom   35 type  3   force =     0.03457183    0.03335864   -0.05929525
     atom   36 type  3   force =    -0.00393368    0.00478498   -0.00067731
     atom   37 type  4   force =    -0.00101590    0.00144048    0.00320212
     atom   38 type  4   force =    -0.00302546   -0.00562122    0.03289927
     atom   39 type  4   force =     0.00437355    0.00389103    0.02924177
     atom   40 type  4   force =     0.00026857   -0.00327667   -0.00475946
     atom   41 type  4   force =     0.00001739    0.00015287    0.00342705
     atom   42 type  4   force =     0.00544612    0.00025340    0.02004227
     atom   43 type  4   force =    -0.00180038    0.00033936    0.03467348
     atom   44 type  4   force =     0.00088245   -0.00081982   -0.00009944
     atom   45 type  4   force =    -0.00025430   -0.00285205    0.00127824
     atom   46 type  4   force =    -0.01517024   -0.02024491   -0.00041186
     atom   47 type  4   force =     0.00197743   -0.00064099    0.00129639
     atom   48 type  4   force =    -0.01787829    0.00404710    0.00169541
     atom   49 type  4   force =     0.01639082   -0.00276112    0.00504295
     atom   50 type  4   force =     0.01183088   -0.03671855    0.00441954
     atom   51 type  4   force =     0.00112861    0.00086483    0.00170494
     atom   52 type  4   force =     0.00081011   -0.00221033    0.00363820
     atom   53 type  1   force =     0.00154318    0.00051081   -0.00106093
     atom   54 type  1   force =     0.00140176    0.00062648   -0.00061029
     atom   55 type  2   force =    -0.00024383   -0.00055709   -0.00055848
     atom   56 type  1   force =    -0.00082667    0.00134621    0.00009715
     atom   57 type  1   force =    -0.00025272    0.00039962   -0.00011039
     atom   58 type  1   force =     0.00029120   -0.00033631    0.00002776
     atom   59 type  1   force =     0.00044624    0.00088024   -0.00103840
     atom   60 type  2   force =    -0.00171561   -0.00151041    0.00585387
     atom   61 type  2   force =    -0.00010810   -0.00021684   -0.00028149
     atom   62 type  1   force =     0.00053093   -0.00000864    0.00119520
     atom   63 type  1   force =     0.00009215    0.00050080    0.00009106
     atom   64 type  1   force =     0.00009833   -0.00067374   -0.00022717
     atom   65 type  3   force =     0.00029765    0.00046193    0.00038616
     atom   66 type  3   force =     0.00009772   -0.00030407   -0.00173040
     atom   67 type  3   force =     0.00040644    0.00053169   -0.00131641
     atom   68 type  3   force =    -0.00144513   -0.00157386    0.00327138
     atom   69 type  4   force =    -0.00060700    0.00032940   -0.00016573
     atom   70 type  4   force =    -0.00011482    0.00008122    0.00035809
     atom   71 type  4   force =    -0.00000730   -0.00030054    0.00026706
     atom   72 type  4   force =     0.00050723   -0.00029711   -0.00136894
     atom   73 type  4   force =    -0.00003095    0.00073949   -0.00044283
     atom   74 type  4   force =    -0.00014068   -0.00068610    0.00199379
     atom   75 type  4   force =    -0.00013793   -0.00011053    0.00066036
     atom   76 type  4   force =    -0.00141732   -0.00108061    0.00237856
     atom   77 type  4   force =    -0.00103318    0.00121865    0.00007125
     atom   78 type  4   force =    -0.00047580    0.00017282    0.00038180
     atom   79 type  4   force =     0.00029310    0.00128541   -0.00194901
     atom   80 type  4   force =     0.00023148    0.00057288    0.00032547
     atom   81 type  4   force =    -0.00048243   -0.00024733    0.00042633
     atom   82 type  4   force =     0.00017382    0.00009928    0.00000526
     atom   83 type  4   force =     0.00090173    0.00013629    0.00072072
     atom   84 type  4   force =    -0.00099661    0.00001969   -0.00053497
     atom   85 type  3   force =     0.00039910    0.00220678    0.00147762
     atom   86 type  3   force =     0.00048264   -0.00064199   -0.00052609
     atom   87 type  3   force =    -0.00023393    0.00022139   -0.00039704
     atom   88 type  3   force =    -0.00060708   -0.00219805    0.00028948
     atom   89 type  4   force =    -0.00024756   -0.00035733   -0.00016546
     atom   90 type  4   force =     0.00011820   -0.00050001    0.00153903
     atom   91 type  4   force =     0.00032662   -0.00019504   -0.00019849
     atom   92 type  4   force =    -0.00054690    0.00063070   -0.00154455
     atom   93 type  4   force =     0.00086626   -0.00017686    0.00060496
     atom   94 type  4   force =    -0.00018252   -0.00002349    0.00152384
     atom   95 type  4   force =     0.00017690    0.00014882    0.00038554
     atom   96 type  4   force =    -0.00118820    0.00014857   -0.00020595
     atom   97 type  4   force =     0.00036779    0.00023278   -0.00071807
     atom   98 type  4   force =    -0.00057546   -0.00010416    0.00033654
     atom   99 type  4   force =     0.00101593    0.00166674   -0.00155394
     atom  100 type  4   force =     0.00064154    0.00038062    0.00035693
     atom  101 type  4   force =    -0.00049214   -0.00008838    0.00049250
     atom  102 type  4   force =     0.00097341   -0.00018055    0.00042660
     atom  103 type  4   force =     0.00082880   -0.00132901   -0.00029359
     atom  104 type  4   force =    -0.00042405   -0.00118992    0.00028727
     atom  105 type  1   force =     0.00001919    0.00014596    0.00007320
     atom  106 type  1   force =    -0.00024141   -0.00050354   -0.00018127
     atom  107 type  2   force =     0.00031625   -0.00008289    0.00046200
     atom  108 type  1   force =    -0.00012842   -0.00014057    0.00032951
     atom  109 type  1   force =     0.00074439   -0.00023045   -0.00044894
     atom  110 type  1   force =     0.00049779   -0.00001925    0.00059709
     atom  111 type  1   force =    -0.00034572    0.00012798    0.00051804
     atom  112 type  2   force =     0.00010499   -0.00058944    0.00034083
     atom  113 type  2   force =    -0.00019528    0.00019420   -0.00005385
     atom  114 type  1   force =    -0.00107776    0.00120357   -0.00024326
     atom  115 type  1   force =    -0.00066570    0.00059355   -0.00024116
     atom  116 type  1   force =    -0.00045522   -0.00057226    0.00040157
     atom  117 type  3   force =    -0.00010269   -0.00052068    0.00010303
     atom  118 type  3   force =    -0.00051256   -0.00001444    0.00004575
     atom  119 type  3   force =     0.00013123    0.00026698   -0.00006490
     atom  120 type  3   force =     0.00023685   -0.00000235    0.00004101
     atom  121 type  4   force =    -0.00003313   -0.00001535   -0.00016029
     atom  122 type  4   force =    -0.00033925   -0.00014391    0.00017395
     atom  123 type  4   force =     0.00034488   -0.00005254    0.00022468
     atom  124 type  4   force =     0.00025066   -0.00045565   -0.00002878
     atom  125 type  4   force =     0.00055866    0.00008736    0.00006885
     atom  126 type  4   force =     0.00013116   -0.00019552    0.00039967
     atom  127 type  4   force =     0.00001087   -0.00009324   -0.00013909
     atom  128 type  4   force =     0.00012870    0.00023316   -0.00010452
     atom  129 type  4   force =    -0.00000250    0.00049730   -0.00008945
     atom  130 type  4   force =     0.00050456    0.00006673    0.00031692
     atom  131 type  4   force =     0.00016200    0.00016958   -0.00022580
     atom  132 type  4   force =     0.00036966   -0.00025401   -0.00006353
     atom  133 type  4   force =    -0.00012726   -0.00034306    0.00027384
     atom  134 type  4   force =    -0.00004739   -0.00014579    0.00025382
     atom  135 type  4   force =    -0.00030254   -0.00028515   -0.00020867
     atom  136 type  4   force =     0.00051623   -0.00003625    0.00021786
     atom  137 type  3   force =    -0.00017382   -0.00040576   -0.00014395
     atom  138 type  3   force =     0.00010406   -0.00008436    0.00002658
     atom  139 type  3   force =     0.00017351    0.00004482   -0.00000892
     atom  140 type  3   force =     0.00010618   -0.00006030   -0.00006051
     atom  141 type  4   force =     0.00058829    0.00050804   -0.00065754
     atom  142 type  4   force =     0.00002402    0.00011195    0.00001202
     atom  143 type  4   force =     0.00029287   -0.00011593    0.00001326
     atom  144 type  4   force =    -0.00028228    0.00060707   -0.00055460
     atom  145 type  4   force =     0.00020342    0.00035795    0.00097761
     atom  146 type  4   force =     0.00003549   -0.00004984   -0.00000391
     atom  147 type  4   force =    -0.00037115    0.00022744   -0.00016052
     atom  148 type  4   force =     0.00013326    0.00003802   -0.00005870
     atom  149 type  4   force =    -0.00014229    0.00004769   -0.00013406
     atom  150 type  4   force =    -0.00015916    0.00001071   -0.00009284
     atom  151 type  4   force =     0.00047245    0.00002566    0.00002781
     atom  152 type  4   force =     0.00004786   -0.00025979    0.00028048
     atom  153 type  4   force =     0.00015312    0.00041347    0.00008319
     atom  154 type  4   force =    -0.00015802   -0.00033615    0.00021184
     atom  155 type  4   force =     0.00029142   -0.00029569    0.00053722
     atom  156 type  4   force =     0.00005079    0.00077426    0.00011473
     atom  157 type  4   force =    -0.00690026   -0.00804901   -0.00022556
     atom  158 type  5   force =     0.00700218    0.00658549    0.00259123

     Total force =     0.225673     Total SCF correction =     0.002875
 
     init_run     :      9.11s CPU      9.82s WALL (       1 calls)
     electrons    :   2165.29s CPU   2260.10s WALL (       1 calls)
     forces       :      4.32s CPU      4.67s WALL (       1 calls)
     force_london :      0.11s CPU      0.11s WALL (       1 calls)

     Called by init_run:
     wfcinit      :      5.53s CPU      5.73s WALL (       1 calls)
     potinit      :      0.62s CPU      0.82s WALL (       1 calls)
     hinit0       :      1.48s CPU      1.61s WALL (       1 calls)

     Called by electrons:
     c_bands      :   1703.83s CPU   1752.24s WALL (     133 calls)
     sum_band     :    292.88s CPU    317.94s WALL (     133 calls)
     v_of_rho     :     39.44s CPU     40.91s WALL (     134 calls)
     newd         :     82.21s CPU    101.71s WALL (     134 calls)
     mix_rho      :     44.31s CPU     44.79s WALL (     133 calls)
     energy_londo :      0.11s CPU      0.11s WALL (       1 calls)

     Called by c_bands:
     init_us_2    :      5.09s CPU      5.19s WALL (     536 calls)
     init_us_2:cp :      5.09s CPU      5.19s WALL (     536 calls)
     regterg      :   1670.71s CPU   1718.70s WALL (     271 calls)

     Called by *egterg:
     rdiaghg      :    464.00s CPU    485.56s WALL (     918 calls)
     h_psi        :    675.24s CPU    687.82s WALL (     920 calls)
     s_psi        :    107.99s CPU    108.04s WALL (     920 calls)
     g_psi        :      0.80s CPU      0.81s WALL (     647 calls)

     Called by h_psi:
     h_psi:calbec :    156.22s CPU    166.08s WALL (     920 calls)
     vloc_psi     :    408.15s CPU    409.58s WALL (     920 calls)
     add_vuspsi   :    109.07s CPU    110.33s WALL (     920 calls)

     General routines
     calbec       :    231.18s CPU    245.79s WALL (    1194 calls)
     fft          :     40.64s CPU     42.86s WALL (    2425 calls)
     ffts         :     26.60s CPU     26.66s WALL (   16637 calls)
     fftw         :    459.83s CPU    461.35s WALL (  456928 calls)
     interpolate  :      2.75s CPU      2.86s WALL (     268 calls)
 
     Parallel routines
 
     PWSCF        :  36m20.77s CPU  37m57.07s WALL

 
   This run was terminated on:  21:41: 3  17Nov2025            

=------------------------------------------------------------------------------=
   JOB DONE.
=------------------------------------------------------------------------------=
