
     Program PWSCF v.7.2 starts on 17Nov2025 at 21:41: 7 

     This program is part of the open-source Quantum ESPRESSO suite
     for quantum simulation of materials; please cite
         "P. Giannozzi et al., J. Phys.:Condens. Matter 21 395502 (2009);
         "P. Giannozzi et al., J. Phys.:Condens. Matter 29 465901 (2017);
         "P. Giannozzi et al., J. Chem. Phys. 152 154105 (2020);
          URL http://www.quantum-espresso.org", 
     in publications or presentations arising from this work. More details at
     http://www.quantum-espresso.org/quote

     Parallel version (MPI), running on    64 processors

     MPI processes distributed on     4 nodes
     379984 MiB available memory on the printing compute node when the environment starts
 
     Reading input from PWINPUT_atm157_ym

     Current dimensions of program PWSCF are:
     Max number of different atomic species (ntypx) = 10
     Max number of k-points (npk) =  40000
     Max angular momentum in pseudopotentials (lmaxx) =  4
     Presently no symmetry can be used with electric field

     file Ni.pbe-n-rrkjus_psl.1.0.0.UPF: wavefunction(s)  3D renormalized
     file Mn.pbe-spn-rrkjus_psl.0.3.1.UPF: wavefunction(s)  3D renormalized
     file O.pbe-rrkjus.UPF: wavefunction(s)  2S renormalized
     file H.pbe-rrkjus.UPF: wavefunction(s)  1S renormalized

     gamma-point specific algorithms are used
 
     R & G space division:  proc/nbgrp/npool/nimage =      64
     Subspace diagonalization in iterative solution of the eigenvalue problem:
     one sub-group per band group will be used
     custom distributed-memory algorithm (size of sub-group:  7*  7 procs)

 
     Parallelization info
     --------------------
     sticks:   dense  smooth     PW     G-vecs:    dense   smooth      PW
     Min         214      85     20                61830    15614    1928
     Max         216      86     22                61864    15658    1982
     Sum       13727    5503   1375              3958051  1001255  125211
 
     Using Slab Decomposition
 


     bravais-lattice index     =            0
     lattice parameter (alat)  =      17.8532  a.u.
     unit-cell volume          =   20962.6682 (a.u.)^3
     number of atoms/cell      =          158
     number of atomic types    =            5
     number of electrons       =      1108.00
     number of Kohn-Sham states=          665
     kinetic-energy cutoff     =      50.0000  Ry
     charge density cutoff     =     500.0000  Ry
     scf convergence threshold =      1.0E-06
     mixing beta               =       0.1000
     number of iterations used =            8  local-TF  mixing
     Exchange-correlation=  SLA  PW   PBE  PBE
                           (   1   4   3   4   0   0   0)

     celldm(1)=  17.853155  celldm(2)=   0.000000  celldm(3)=   0.000000
     celldm(4)=   0.000000  celldm(5)=   0.000000  celldm(6)=   0.000000

     crystal axes: (cart. coord. in units of alat)
               a(1) = (   1.000000   0.000000   0.000000 )  
               a(2) = (   0.003237   1.081997   0.000000 )  
               a(3) = (   0.000000   0.000000   3.404673 )  

     reciprocal axes: (cart. coord. in units 2 pi/alat)
               b(1) = (  1.000000 -0.002992  0.000000 )  
               b(2) = (  0.000000  0.924217  0.000000 )  
               b(3) = (  0.000000  0.000000  0.293714 )  


     PseudoPot. # 1 for Ni read from file:
     ~/PSEUDO/Ni.pbe-n-rrkjus_psl.1.0.0.UPF
     MD5 check sum: Not computed, couldn't open file
     Pseudo is Ultrasoft + core correction, Zval = 10.0
     Generated using "atomic" code by A. Dal Corso  v.5.1.2
     Using radial grid of 1195 points,  6 beta functions with: 
                l(1) =   0
                l(2) =   0
                l(3) =   1
                l(4) =   1
                l(5) =   2
                l(6) =   2
     Q(r) pseudized with 0 coefficients 


     PseudoPot. # 2 for Mn read from file:
     ~/PSEUDO/Mn.pbe-spn-rrkjus_psl.0.3.1.UPF
     MD5 check sum: Not computed, couldn't open file
     Pseudo is Ultrasoft + core correction, Zval = 15.0
     Generated using &quot;atomic&quot; code by A. Dal Corso  v.6.2.2
     Using radial grid of 1187 points,  6 beta functions with: 
                l(1) =   0
                l(2) =   0
                l(3) =   1
                l(4) =   1
                l(5) =   2
                l(6) =   2
     Q(r) pseudized with 0 coefficients 


     PseudoPot. # 3 for P  read from file:
     ~/PSEUDO/P.pbe-n-rrkjus_psl.1.0.0.UPF
     MD5 check sum: Not computed, couldn't open file
     Pseudo is Ultrasoft + core correction, Zval =  5.0
     Generated using "atomic" code by A. Dal Corso  v.5.1
     Using radial grid of 1147 points,  6 beta functions with: 
                l(1) =   0
                l(2) =   0
                l(3) =   1
                l(4) =   1
                l(5) =   2
                l(6) =   2
     Q(r) pseudized with 0 coefficients 


     PseudoPot. # 4 for O  read from file:
     ~/PSEUDO/O.pbe-rrkjus.UPF
     MD5 check sum: Not computed, couldn't open file
     Pseudo is Ultrasoft, Zval =  6.0
     Generated by new atomic code, or converted to UPF format
     Using radial grid of 1269 points,  4 beta functions with: 
                l(1) =   0
                l(2) =   0
                l(3) =   1
                l(4) =   1
     Q(r) pseudized with 0 coefficients 


     PseudoPot. # 5 for H  read from file:
     ~/PSEUDO/H.pbe-rrkjus.UPF
     MD5 check sum: Not computed, couldn't open file
     Pseudo is Ultrasoft, Zval =  1.0
     Generated by new atomic code, or converted to UPF format
     Using radial grid of 1061 points,  2 beta functions with: 
                l(1) =   0
                l(2) =   0
     Q(r) pseudized with 0 coefficients 


     atomic species   valence    mass     pseudopotential
     Ni               10.00    58.69300     Ni( 1.00)
     Mn               15.00    54.93800     Mn( 1.00)
     P                 5.00    30.97300     P ( 1.00)
     O                 6.00    15.99900     O ( 1.00)
     H                 1.00     1.00790     H ( 1.00)

     Starting magnetic structure 
     atomic species   magnetization
     Ni              1.000
     Mn              1.000
     P               1.000
     O               1.000
     H               0.000

     No symmetry found



   Cartesian axes

     site n.     atom                  positions (alat units)
         1        Ni     tau(   1) = (   0.2448189   0.8359134   0.1216996  )
         2        Ni     tau(   2) = (   0.4920952   0.7731948   0.4438949  )
         3        Mn     tau(   3) = (   0.0113021   0.2918949   0.1160512  )
         4        Ni     tau(   4) = (   0.2586115   0.2268566   0.4417628  )
         5        Ni     tau(   5) = (   1.0019827   1.0705803   0.2835623  )
         6        Ni     tau(   6) = (   0.2518099   0.5339061   0.2823483  )
         7        Ni     tau(   7) = (   0.7400999   0.8349186   0.1225624  )
         8        Mn     tau(   8) = (   0.9886961   0.7700845   0.4492175  )
         9        Mn     tau(   9) = (   0.5113421   0.2944667   0.1158892  )
        10        Ni     tau(  10) = (   0.7560857   0.2263843   0.4422798  )
        11        Ni     tau(  11) = (   0.5009386   1.0712238   0.2822610  )
        12        Ni     tau(  12) = (   0.7496978   0.5336600   0.2834396  )
        13        P      tau(  13) = (   0.2147792   0.9686896   0.4382665  )
        14        P      tau(  14) = (   0.4607377   0.6441916   0.1265334  )
        15        P      tau(  15) = (   0.2883218   0.0913464   0.1265752  )
        16        P      tau(  16) = (   0.0408981   0.4221836   0.4354960  )
        17        O      tau(  17) = (   0.1380864   0.9007819   0.3023220  )
        18        O      tau(  18) = (   0.3817439   0.7113683   0.2624610  )
        19        O      tau(  19) = (   0.3638364   0.1608547   0.2624417  )
        20        O      tau(  20) = (   0.1207568   0.3545755   0.3021219  )
        21        O      tau(  21) = (   0.1552194   0.8797563   0.5625160  )
        22        O      tau(  22) = (   0.4022820   0.7317969   0.0010585  )
        23        O      tau(  23) = (   0.3454844   0.1823965   0.0026336  )
        24        O      tau(  24) = (   0.1017019   0.3344979   0.5594858  )
        25        O      tau(  25) = (   0.0970074   0.5770714   0.4346455  )
        26        O      tau(  26) = (   0.3534166   1.0203677   0.1270707  )
        27        O      tau(  27) = (   0.3778024   0.4172402   0.4261028  )
        28        O      tau(  28) = (   0.1256171   0.0954063   0.1372153  )
        29        O      tau(  29) = (   0.1232168   0.6482422   0.1385172  )
        30        O      tau(  30) = (   0.4028533   0.4897833   0.1289718  )
        31        O      tau(  31) = (   0.1511050   0.0405554   0.4369979  )
        32        O      tau(  32) = (   0.3776556   0.9624293   0.4288159  )
        33        P      tau(  33) = (   0.7084770   0.9682119   0.4394551  )
        34        P      tau(  34) = (   0.9603154   0.6409658   0.1292469  )
        35        P      tau(  35) = (   0.7875734   0.0899770   0.1274098  )
        36        P      tau(  36) = (   0.5405152   0.4272620   0.4364455  )
        37        O      tau(  37) = (   0.6323583   0.8977630   0.3036670  )
        38        O      tau(  38) = (   0.8809646   0.7091921   0.2627111  )
        39        O      tau(  39) = (   0.8631054   0.1587239   0.2636487  )
        40        O      tau(  40) = (   0.6202581   0.3578380   0.3034239  )
        41        O      tau(  41) = (   0.6499160   0.8772596   0.5630912  )
        42        O      tau(  42) = (   0.8990171   0.7283464   0.0054426  )
        43        O      tau(  43) = (   0.8448361   0.1806154   0.0030658  )
        44        O      tau(  44) = (   0.6023096   0.3392612   0.5600469  )
        45        O      tau(  45) = (   0.5960222   0.5826131   0.4346340  )
        46        O      tau(  46) = (   0.8515023   1.0184215   0.1281632  )
        47        O      tau(  47) = (   0.8779640   0.4148900   0.4260983  )
        48        O      tau(  48) = (   0.6251159   0.0957170   0.1376895  )
        49        O      tau(  49) = (   0.6237654   0.6481585   0.1378370  )
        50        O      tau(  50) = (   0.9038046   0.4863338   0.1307354  )
        51        O      tau(  51) = (   0.6458737   0.0402574   0.4377979  )
        52        O      tau(  52) = (   0.8712434   0.9635255   0.4285638  )
        53        Ni     tau(  53) = (   0.2420320   0.8169913   0.7491577  )
        54        Ni     tau(  54) = (   0.4893084   0.7542727   1.0713530  )
        55        Mn     tau(  55) = (   0.0085152   0.2729728   0.7435093  )
        56        Ni     tau(  56) = (   0.2558246   0.2079345   1.0692209  )
        57        Ni     tau(  57) = (   0.9991959   1.0516583   0.9110204  )
        58        Ni     tau(  58) = (   0.2490231   0.5149840   0.9098064  )
        59        Ni     tau(  59) = (   0.7373131   0.8159965   0.7500205  )
        60        Mn     tau(  60) = (   0.9859093   0.7511625   1.0766756  )
        61        Mn     tau(  61) = (   0.5085552   0.2755447   0.7433473  )
        62        Ni     tau(  62) = (   0.7532989   0.2074622   1.0697379  )
        63        Ni     tau(  63) = (   0.4981517   1.0523018   0.9097191  )
        64        Ni     tau(  64) = (   0.7469109   0.5147379   0.9108977  )
        65        P      tau(  65) = (   0.2119924   0.9497675   1.0657246  )
        66        P      tau(  66) = (   0.4579509   0.6252695   0.7539915  )
        67        P      tau(  67) = (   0.2855349   0.0724244   0.7540333  )
        68        P      tau(  68) = (   0.0381112   0.4032615   1.0629541  )
        69        O      tau(  69) = (   0.1352995   0.8818598   0.9297801  )
        70        O      tau(  70) = (   0.3789570   0.6924463   0.8899191  )
        71        O      tau(  71) = (   0.3610496   0.1419327   0.8898998  )
        72        O      tau(  72) = (   0.1179700   0.3356534   0.9295800  )
        73        O      tau(  73) = (   0.1524325   0.8608343   1.1899741  )
        74        O      tau(  74) = (   0.3994952   0.7128748   0.6285166  )
        75        O      tau(  75) = (   0.3426976   0.1634744   0.6300917  )
        76        O      tau(  76) = (   0.0989151   0.3155758   1.1869439  )
        77        O      tau(  77) = (   0.0942206   0.5581494   1.0621036  )
        78        O      tau(  78) = (   0.3506297   1.0014456   0.7545288  )
        79        O      tau(  79) = (   0.3750155   0.3983181   1.0535609  )
        80        O      tau(  80) = (   0.1228303   0.0764842   0.7646734  )
        81        O      tau(  81) = (   0.1204299   0.6293201   0.7659753  )
        82        O      tau(  82) = (   0.4000664   0.4708612   0.7564299  )
        83        O      tau(  83) = (   0.1483182   0.0216333   1.0644560  )
        84        O      tau(  84) = (   0.3748687   0.9435072   1.0562740  )
        85        P      tau(  85) = (   0.7056901   0.9492898   1.0669132  )
        86        P      tau(  86) = (   0.9575286   0.6220438   0.7567050  )
        87        P      tau(  87) = (   0.7847866   0.0710549   0.7548679  )
        88        P      tau(  88) = (   0.5377283   0.4083400   1.0639036  )
        89        O      tau(  89) = (   0.6295714   0.8788409   0.9311251  )
        90        O      tau(  90) = (   0.8781778   0.6902700   0.8901692  )
        91        O      tau(  91) = (   0.8603186   0.1398018   0.8911068  )
        92        O      tau(  92) = (   0.6174712   0.3389159   0.9308820  )
        93        O      tau(  93) = (   0.6471291   0.8583376   1.1905493  )
        94        O      tau(  94) = (   0.8962302   0.7094244   0.6329007  )
        95        O      tau(  95) = (   0.8420493   0.1616933   0.6305239  )
        96        O      tau(  96) = (   0.5995227   0.3203391   1.1875050  )
        97        O      tau(  97) = (   0.5932354   0.5636910   1.0620921  )
        98        O      tau(  98) = (   0.8487155   0.9994995   0.7556213  )
        99        O      tau(  99) = (   0.8751772   0.3959680   1.0535564  )
       100        O      tau( 100) = (   0.6223291   0.0767949   0.7651476  )
       101        O      tau( 101) = (   0.6209785   0.6292365   0.7652951  )
       102        O      tau( 102) = (   0.9010178   0.4674118   0.7581935  )
       103        O      tau( 103) = (   0.6430869   0.0213354   1.0652560  )
       104        O      tau( 104) = (   0.8684566   0.9446034   1.0560219  )
       105        Ni     tau( 105) = (   0.2412023   0.8004481   1.3761697  )
       106        Ni     tau( 106) = (   0.4986735   0.7355768   1.6794178  )
       107        Mn     tau( 107) = (   0.0058178   0.2579714   1.3748439  )
       108        Ni     tau( 108) = (   0.2445030   0.1966672   1.6827613  )
       109        Ni     tau( 109) = (   0.9973019   1.0372672   1.5419400  )
       110        Ni     tau( 110) = (   0.2442193   0.4988167   1.5412053  )
       111        Ni     tau( 111) = (   0.7355958   0.7989306   1.3771896  )
       112        Mn     tau( 112) = (   0.9955940   0.7374460   1.6981170  )
       113        Mn     tau( 113) = (   0.5084073   0.2597986   1.3740649  )
       114        Ni     tau( 114) = (   0.7506413   0.1876866   1.7157338  )
       115        Ni     tau( 115) = (   0.4999815   1.0354405   1.5368422  )
       116        Ni     tau( 116) = (   0.7421734   0.4941468   1.5447217  )
       117        P      tau( 117) = (   0.2134520   0.9305608   1.6928748  )
       118        P      tau( 118) = (   0.4552265   0.6038409   1.3792233  )
       119        P      tau( 119) = (   0.2846976   0.0570133   1.3802773  )
       120        P      tau( 120) = (   0.0325224   0.3864354   1.7029347  )
       121        O      tau( 121) = (   0.1349751   0.8706564   1.5506288  )
       122        O      tau( 122) = (   0.3764107   0.6721600   1.5149202  )
       123        O      tau( 123) = (   0.3606206   0.1260236   1.5156957  )
       124        O      tau( 124) = (   0.1092748   0.3280951   1.5591652  )
       125        O      tau( 125) = (   0.1511793   0.8339695   1.8079082  )
       126        O      tau( 126) = (   0.3964659   0.6926639   1.2544695  )
       127        O      tau( 127) = (   0.3425042   0.1476694   1.2561401  )
       128        O      tau( 128) = (   0.0960478   0.2915149   1.8172940  )
       129        O      tau( 129) = (   0.0879065   0.5436709   1.7030381  )
       130        O      tau( 130) = (   0.3488342   0.9858816   1.3801817  )
       131        O      tau( 131) = (   0.3671736   0.3798408   1.6812659  )
       132        O      tau( 132) = (   0.1219276   0.0647475   1.3934455  )
       133        O      tau( 133) = (   0.1179523   0.6112524   1.3972003  )
       134        O      tau( 134) = (   0.3951101   0.4502108   1.3814183  )
       135        O      tau( 135) = (   0.1554058   0.0046046   1.6969583  )
       136        O      tau( 136) = (   0.3765182   0.9212570   1.6810882  )
       137        P      tau( 137) = (   0.7067285   0.9241104   1.6956373  )
       138        P      tau( 138) = (   0.9550835   0.6030567   1.3877912  )
       139        P      tau( 139) = (   0.7840039   0.0566892   1.3823828  )
       140        P      tau( 140) = (   0.5313930   0.3840217   1.6968505  )
       141        O      tau( 141) = (   0.6301565   0.8631087   1.5500589  )
       142        O      tau( 142) = (   0.8781540   0.6680547   1.5246654  )
       143        O      tau( 143) = (   0.8584090   0.1266911   1.5169273  )
       144        O      tau( 144) = (   0.6101434   0.3244037   1.5563583  )
       145        O      tau( 145) = (   0.6497044   0.8229155   1.8076390  )
       146        O      tau( 146) = (   0.8952346   0.6931503   1.2649845  )
       147        O      tau( 147) = (   0.8417833   0.1457064   1.2563858  )
       148        O      tau( 148) = (   0.5882982   0.2884097   1.8138105  )
       149        O      tau( 149) = (   0.5857986   0.5416269   1.6967524  )
       150        O      tau( 150) = (   0.8463249   0.9844929   1.3834097  )
       151        O      tau( 151) = (   0.8691606   0.3830520   1.6896730  )
       152        O      tau( 152) = (   0.6208256   0.0636157   1.3908489  )
       153        O      tau( 153) = (   0.6179180   0.6081228   1.3928659  )
       154        O      tau( 154) = (   0.8974059   0.4489532   1.3860662  )
       155        O      tau( 155) = (   0.6446735  -0.0036875   1.6925588  )
       156        O      tau( 156) = (   0.8709253   0.9175257   1.6809245  )
       157        O      tau( 157) = (   0.8700644   0.0990128   1.8382274  )
       158        H      tau( 158) = (   0.9531421   0.1587224   1.8633884  )

     -------------------------------------------------
     Parameters for Dispersion (Grimme-D2) Correction:
     -------------------------------------------------
       atom      VdW radius       C_6     

        Ni         2.952        374.666
        Mn         2.952        374.666
        P          3.222        271.980
        O          2.536         24.284
        H          1.892          4.857

     number of k points=     1  Gaussian smearing, width (Ry)=  0.0100
                       cart. coord. in units 2pi/alat
        k(    1) = (   0.0000000   0.0000000   0.0000000), wk =   1.0000000

     Dense  grid:  1979026 G-vectors     FFT dimensions: ( 128, 144, 450)

     Smooth grid:   500628 G-vectors     FFT dimensions: (  81,  90, 288)

     Estimated max dynamical RAM per process >     333.40 MB

     Estimated total dynamical RAM >      20.84 GB

     Check: negative core charge=   -0.000002
     Generating pointlists ...
     new r_m :   0.0795 (alat units)  1.4191 (a.u.) for type    1
     new r_m :   0.0881 (alat units)  1.5722 (a.u.) for type    2
     new r_m :   0.0666 (alat units)  1.1883 (a.u.) for type    3
     new r_m :   0.0435 (alat units)  0.7759 (a.u.) for type    4
     new r_m :   0.0435 (alat units)  0.7759 (a.u.) for type    5

     Initial potential from superposition of free atoms

     starting charge    1107.8886, renormalised to    1108.0000

     negative rho (up, down):  1.534E-03 4.697E-04
 
     Adding external electric field

     Computed dipole along edir(3) : 
        Dipole                1.6284 Ry au,          4.1391 Debye
        Dipole field          0.0010 Ry au, 
 
        Potential amp.       -0.1068 Ry
        Total length         54.7057 bohr
 
 
     Adding external electric field

     Computed dipole along edir(3) : 
        Dipole                1.6284 Ry au,          4.1391 Debye
        Dipole field          0.0010 Ry au, 
 
        Potential amp.       -0.1068 Ry
        Total length         54.7057 bohr
 
     Starting wfcs are  818 randomized atomic wfcs

     total cpu time spent up to now is       12.4 secs

     Self-consistent Calculation

     iteration #  1     ecut=    50.00 Ry     beta= 0.10
     Davidson diagonalization with overlap
     ethr =  1.00E-02,  avg # of iterations =  5.5

     negative rho (up, down):  4.370E-01 4.805E-07
 
     Adding external electric field

     Computed dipole along edir(3) : 
        Dipole               -3.6001 Ry au,         -9.1504 Debye
        Dipole field         -0.0022 Ry au, 
 
        Potential amp.        0.2361 Ry
        Total length         54.7057 bohr
 
 
     Adding external electric field

     Computed dipole along edir(3) : 
        Dipole               -3.6001 Ry au,         -9.1504 Debye
        Dipole field         -0.0022 Ry au, 
 
        Potential amp.        0.2361 Ry
        Total length         54.7057 bohr
 

     total cpu time spent up to now is       43.7 secs

     total energy              =   -7858.21110668 Ry
     estimated scf accuracy    <     732.68522715 Ry

     total magnetization       =   222.00 Bohr mag/cell
     absolute magnetization    =   319.84 Bohr mag/cell

     iteration #  2     ecut=    50.00 Ry     beta= 0.10
     Davidson diagonalization with overlap
     ethr =  1.00E-02,  avg # of iterations =  2.0

     negative rho (up, down):  4.066E-01 1.980E-07
 
     Adding external electric field

     Computed dipole along edir(3) : 
        Dipole               -2.5441 Ry au,         -6.4663 Debye
        Dipole field         -0.0015 Ry au, 
 
        Potential amp.        0.1669 Ry
        Total length         54.7057 bohr
 
 
     Adding external electric field

     Computed dipole along edir(3) : 
        Dipole               -2.5441 Ry au,         -6.4663 Debye
        Dipole field         -0.0015 Ry au, 
 
        Potential amp.        0.1669 Ry
        Total length         54.7057 bohr
 

     total cpu time spent up to now is       62.1 secs

     total energy              =   -7940.50809897 Ry
     estimated scf accuracy    <     183.01522202 Ry

     total magnetization       =   164.31 Bohr mag/cell
     absolute magnetization    =   211.91 Bohr mag/cell

     iteration #  3     ecut=    50.00 Ry     beta= 0.10
     Davidson diagonalization with overlap
     ethr =  1.00E-02,  avg # of iterations =  1.0

     negative rho (up, down):  3.599E-01 1.361E-07
 
     Adding external electric field

     Computed dipole along edir(3) : 
        Dipole               -2.1566 Ry au,         -5.4815 Debye
        Dipole field         -0.0013 Ry au, 
 
        Potential amp.        0.1414 Ry
        Total length         54.7057 bohr
 
 
     Adding external electric field

     Computed dipole along edir(3) : 
        Dipole               -2.1566 Ry au,         -5.4815 Debye
        Dipole field         -0.0013 Ry au, 
 
        Potential amp.        0.1414 Ry
        Total length         54.7057 bohr
 

     total cpu time spent up to now is       75.9 secs

     total energy              =   -7971.28319869 Ry
     estimated scf accuracy    <     104.06041384 Ry

     total magnetization       =   141.82 Bohr mag/cell
     absolute magnetization    =   191.46 Bohr mag/cell

     iteration #  4     ecut=    50.00 Ry     beta= 0.10
     Davidson diagonalization with overlap
     ethr =  9.39E-03,  avg # of iterations =  1.0

     negative rho (up, down):  2.816E-01 6.295E-09
 
     Adding external electric field

     Computed dipole along edir(3) : 
        Dipole               -1.9958 Ry au,         -5.0728 Debye
        Dipole field         -0.0012 Ry au, 
 
        Potential amp.        0.1309 Ry
        Total length         54.7057 bohr
 
 
     Adding external electric field

     Computed dipole along edir(3) : 
        Dipole               -1.9958 Ry au,         -5.0728 Debye
        Dipole field         -0.0012 Ry au, 
 
        Potential amp.        0.1309 Ry
        Total length         54.7057 bohr
 

     total cpu time spent up to now is       90.4 secs

     total energy              =   -8004.07768126 Ry
     estimated scf accuracy    <      83.46014348 Ry

     total magnetization       =   125.87 Bohr mag/cell
     absolute magnetization    =   177.22 Bohr mag/cell

     iteration #  5     ecut=    50.00 Ry     beta= 0.10
     Davidson diagonalization with overlap
     ethr =  7.53E-03,  avg # of iterations =  1.0

     negative rho (up, down):  3.159E-02 1.662E-08
 
     Adding external electric field

     Computed dipole along edir(3) : 
        Dipole               -1.4751 Ry au,         -3.7493 Debye
        Dipole field         -0.0009 Ry au, 
 
        Potential amp.        0.0967 Ry
        Total length         54.7057 bohr
 
 
     Adding external electric field

     Computed dipole along edir(3) : 
        Dipole               -1.4751 Ry au,         -3.7493 Debye
        Dipole field         -0.0009 Ry au, 
 
        Potential amp.        0.0967 Ry
        Total length         54.7057 bohr
 

     total cpu time spent up to now is      104.7 secs

     total energy              =   -8064.19628422 Ry
     estimated scf accuracy    <      66.28396144 Ry

     total magnetization       =   106.05 Bohr mag/cell
     absolute magnetization    =   159.27 Bohr mag/cell

     iteration #  6     ecut=    50.00 Ry     beta= 0.10
     Davidson diagonalization with overlap
     ethr =  5.98E-03,  avg # of iterations =  1.0

     negative rho (up, down):  3.363E-04 5.929E-04
 
     Adding external electric field

     Computed dipole along edir(3) : 
        Dipole               -1.0564 Ry au,         -2.6852 Debye
        Dipole field         -0.0006 Ry au, 
 
        Potential amp.        0.0693 Ry
        Total length         54.7057 bohr
 
 
     Adding external electric field

     Computed dipole along edir(3) : 
        Dipole               -1.0564 Ry au,         -2.6852 Debye
        Dipole field         -0.0006 Ry au, 
 
        Potential amp.        0.0693 Ry
        Total length         54.7057 bohr
 

     total cpu time spent up to now is      119.0 secs

     total energy              =   -8076.32960404 Ry
     estimated scf accuracy    <      13.52212410 Ry

     total magnetization       =   100.00 Bohr mag/cell
     absolute magnetization    =   131.78 Bohr mag/cell

     iteration #  7     ecut=    50.00 Ry     beta= 0.10
     Davidson diagonalization with overlap
     ethr =  1.22E-03,  avg # of iterations =  6.0

     negative rho (up, down):  3.317E-04 5.902E-04
 
     Adding external electric field

     Computed dipole along edir(3) : 
        Dipole               -1.0531 Ry au,         -2.6768 Debye
        Dipole field         -0.0006 Ry au, 
 
        Potential amp.        0.0691 Ry
        Total length         54.7057 bohr
 
 
     Adding external electric field

     Computed dipole along edir(3) : 
        Dipole               -1.0531 Ry au,         -2.6768 Debye
        Dipole field         -0.0006 Ry au, 
 
        Potential amp.        0.0691 Ry
        Total length         54.7057 bohr
 

     total cpu time spent up to now is      144.4 secs

     total energy              =   -8078.85019394 Ry
     estimated scf accuracy    <      28.61176105 Ry

     total magnetization       =    69.79 Bohr mag/cell
     absolute magnetization    =    87.49 Bohr mag/cell

     iteration #  8     ecut=    50.00 Ry     beta= 0.10
     Davidson diagonalization with overlap
     ethr =  1.22E-03,  avg # of iterations =  1.0

     negative rho (up, down):  3.295E-04 6.079E-04
 
     Adding external electric field

     Computed dipole along edir(3) : 
        Dipole               -1.0497 Ry au,         -2.6682 Debye
        Dipole field         -0.0006 Ry au, 
 
        Potential amp.        0.0689 Ry
        Total length         54.7057 bohr
 
 
     Adding external electric field

     Computed dipole along edir(3) : 
        Dipole               -1.0497 Ry au,         -2.6682 Debye
        Dipole field         -0.0006 Ry au, 
 
        Potential amp.        0.0689 Ry
        Total length         54.7057 bohr
 

     total cpu time spent up to now is      158.7 secs

     total energy              =   -8078.97910232 Ry
     estimated scf accuracy    <      28.40535766 Ry

     total magnetization       =    69.85 Bohr mag/cell
     absolute magnetization    =    87.12 Bohr mag/cell

     iteration #  9     ecut=    50.00 Ry     beta= 0.10
     Davidson diagonalization with overlap
     ethr =  1.22E-03,  avg # of iterations =  1.0

     negative rho (up, down):  2.855E-04 5.983E-04
 
     Adding external electric field

     Computed dipole along edir(3) : 
        Dipole               -1.0607 Ry au,         -2.6959 Debye
        Dipole field         -0.0006 Ry au, 
 
        Potential amp.        0.0696 Ry
        Total length         54.7057 bohr
 
 
     Adding external electric field

     Computed dipole along edir(3) : 
        Dipole               -1.0607 Ry au,         -2.6959 Debye
        Dipole field         -0.0006 Ry au, 
 
        Potential amp.        0.0696 Ry
        Total length         54.7057 bohr
 

     total cpu time spent up to now is      172.2 secs

     total energy              =   -8078.53758701 Ry
     estimated scf accuracy    <      29.58629788 Ry

     total magnetization       =    69.44 Bohr mag/cell
     absolute magnetization    =    86.46 Bohr mag/cell

     iteration # 10     ecut=    50.00 Ry     beta= 0.10
     Davidson diagonalization with overlap
     ethr =  1.22E-03,  avg # of iterations =  1.0

     negative rho (up, down):  2.922E-04 8.283E-04
 
     Adding external electric field

     Computed dipole along edir(3) : 
        Dipole               -1.1328 Ry au,         -2.8792 Debye
        Dipole field         -0.0007 Ry au, 
 
        Potential amp.        0.0743 Ry
        Total length         54.7057 bohr
 
 
     Adding external electric field

     Computed dipole along edir(3) : 
        Dipole               -1.1328 Ry au,         -2.8792 Debye
        Dipole field         -0.0007 Ry au, 
 
        Potential amp.        0.0743 Ry
        Total length         54.7057 bohr
 

     total cpu time spent up to now is      186.0 secs

     total energy              =   -8077.77006524 Ry
     estimated scf accuracy    <      22.98580301 Ry

     total magnetization       =    71.26 Bohr mag/cell
     absolute magnetization    =    86.92 Bohr mag/cell

     iteration # 11     ecut=    50.00 Ry     beta= 0.10
     Davidson diagonalization with overlap
     ethr =  1.22E-03,  avg # of iterations =  1.0

     negative rho (up, down):  2.752E-04 8.681E-04
 
     Adding external electric field

     Computed dipole along edir(3) : 
        Dipole               -1.1176 Ry au,         -2.8405 Debye
        Dipole field         -0.0007 Ry au, 
 
        Potential amp.        0.0733 Ry
        Total length         54.7057 bohr
 
 
     Adding external electric field

     Computed dipole along edir(3) : 
        Dipole               -1.1176 Ry au,         -2.8405 Debye
        Dipole field         -0.0007 Ry au, 
 
        Potential amp.        0.0733 Ry
        Total length         54.7057 bohr
 

     total cpu time spent up to now is      199.4 secs

     total energy              =   -8078.11475452 Ry
     estimated scf accuracy    <       3.74052226 Ry

     total magnetization       =    90.29 Bohr mag/cell
     absolute magnetization    =   101.11 Bohr mag/cell

     iteration # 12     ecut=    50.00 Ry     beta= 0.10
     Davidson diagonalization with overlap
     ethr =  3.38E-04,  avg # of iterations =  2.0

     negative rho (up, down):  1.883E-04 7.436E-04
 
     Adding external electric field

     Computed dipole along edir(3) : 
        Dipole               -1.0778 Ry au,         -2.7396 Debye
        Dipole field         -0.0006 Ry au, 
 
        Potential amp.        0.0707 Ry
        Total length         54.7057 bohr
 
 
     Adding external electric field

     Computed dipole along edir(3) : 
        Dipole               -1.0778 Ry au,         -2.7396 Debye
        Dipole field         -0.0006 Ry au, 
 
        Potential amp.        0.0707 Ry
        Total length         54.7057 bohr
 

     total cpu time spent up to now is      214.3 secs

     total energy              =   -8078.15653226 Ry
     estimated scf accuracy    <       1.88162573 Ry

     total magnetization       =    92.95 Bohr mag/cell
     absolute magnetization    =   102.82 Bohr mag/cell

     iteration # 13     ecut=    50.00 Ry     beta= 0.10
     Davidson diagonalization with overlap
     ethr =  1.70E-04,  avg # of iterations = 10.5

     negative rho (up, down):  1.139E-04 6.978E-04
 
     Adding external electric field

     Computed dipole along edir(3) : 
        Dipole               -1.0413 Ry au,         -2.6467 Debye
        Dipole field         -0.0006 Ry au, 
 
        Potential amp.        0.0683 Ry
        Total length         54.7057 bohr
 
 
     Adding external electric field

     Computed dipole along edir(3) : 
        Dipole               -1.0413 Ry au,         -2.6467 Debye
        Dipole field         -0.0006 Ry au, 
 
        Potential amp.        0.0683 Ry
        Total length         54.7057 bohr
 

     total cpu time spent up to now is      235.7 secs

     total energy              =   -8078.22210331 Ry
     estimated scf accuracy    <       3.12675719 Ry

     total magnetization       =    89.35 Bohr mag/cell
     absolute magnetization    =    99.12 Bohr mag/cell

     iteration # 14     ecut=    50.00 Ry     beta= 0.10
     Davidson diagonalization with overlap
     ethr =  1.70E-04,  avg # of iterations =  1.0

     negative rho (up, down):  1.126E-04 6.462E-04
 
     Adding external electric field

     Computed dipole along edir(3) : 
        Dipole               -1.0605 Ry au,         -2.6956 Debye
        Dipole field         -0.0006 Ry au, 
 
        Potential amp.        0.0696 Ry
        Total length         54.7057 bohr
 
 
     Adding external electric field

     Computed dipole along edir(3) : 
        Dipole               -1.0605 Ry au,         -2.6956 Debye
        Dipole field         -0.0006 Ry au, 
 
        Potential amp.        0.0696 Ry
        Total length         54.7057 bohr
 

     total cpu time spent up to now is      249.5 secs

     total energy              =   -8078.22060560 Ry
     estimated scf accuracy    <       4.65854183 Ry

     total magnetization       =    85.56 Bohr mag/cell
     absolute magnetization    =    94.95 Bohr mag/cell

     iteration # 15     ecut=    50.00 Ry     beta= 0.10
     Davidson diagonalization with overlap
     ethr =  1.70E-04,  avg # of iterations =  1.0

     negative rho (up, down):  1.020E-04 6.828E-04
 
     Adding external electric field

     Computed dipole along edir(3) : 
        Dipole               -1.0634 Ry au,         -2.7029 Debye
        Dipole field         -0.0006 Ry au, 
 
        Potential amp.        0.0697 Ry
        Total length         54.7057 bohr
 
 
     Adding external electric field

     Computed dipole along edir(3) : 
        Dipole               -1.0634 Ry au,         -2.7029 Debye
        Dipole field         -0.0006 Ry au, 
 
        Potential amp.        0.0697 Ry
        Total length         54.7057 bohr
 

     total cpu time spent up to now is      264.4 secs

     total energy              =   -8078.32456204 Ry
     estimated scf accuracy    <       1.03188897 Ry

     total magnetization       =    94.00 Bohr mag/cell
     absolute magnetization    =   101.21 Bohr mag/cell

     iteration # 16     ecut=    50.00 Ry     beta= 0.10
     Davidson diagonalization with overlap
     ethr =  9.31E-05,  avg # of iterations =  1.0

     negative rho (up, down):  2.161E-04 1.317E-03
 
     Adding external electric field

     Computed dipole along edir(3) : 
        Dipole               -1.0872 Ry au,         -2.7633 Debye
        Dipole field         -0.0007 Ry au, 
 
        Potential amp.        0.0713 Ry
        Total length         54.7057 bohr
 
 
     Adding external electric field

     Computed dipole along edir(3) : 
        Dipole               -1.0872 Ry au,         -2.7633 Debye
        Dipole field         -0.0007 Ry au, 
 
        Potential amp.        0.0713 Ry
        Total length         54.7057 bohr
 

     total cpu time spent up to now is      278.2 secs

     total energy              =   -8078.39806657 Ry
     estimated scf accuracy    <       0.92218040 Ry

     total magnetization       =    93.38 Bohr mag/cell
     absolute magnetization    =    99.82 Bohr mag/cell

     iteration # 17     ecut=    50.00 Ry     beta= 0.10
     Davidson diagonalization with overlap
     ethr =  8.32E-05,  avg # of iterations =  1.0

     negative rho (up, down):  2.283E-04 1.447E-03
 
     Adding external electric field

     Computed dipole along edir(3) : 
        Dipole               -1.0789 Ry au,         -2.7423 Debye
        Dipole field         -0.0006 Ry au, 
 
        Potential amp.        0.0708 Ry
        Total length         54.7057 bohr
 
 
     Adding external electric field

     Computed dipole along edir(3) : 
        Dipole               -1.0789 Ry au,         -2.7423 Debye
        Dipole field         -0.0006 Ry au, 
 
        Potential amp.        0.0708 Ry
        Total length         54.7057 bohr
 

     total cpu time spent up to now is      291.7 secs

     total energy              =   -8078.46700723 Ry
     estimated scf accuracy    <       0.39276458 Ry

     total magnetization       =    97.79 Bohr mag/cell
     absolute magnetization    =   101.66 Bohr mag/cell

     iteration # 18     ecut=    50.00 Ry     beta= 0.10
     Davidson diagonalization with overlap
     ethr =  3.54E-05,  avg # of iterations =  2.0

     negative rho (up, down):  2.554E-04 1.712E-03
 
     Adding external electric field

     Computed dipole along edir(3) : 
        Dipole               -1.0394 Ry au,         -2.6419 Debye
        Dipole field         -0.0006 Ry au, 
 
        Potential amp.        0.0682 Ry
        Total length         54.7057 bohr
 
 
     Adding external electric field

     Computed dipole along edir(3) : 
        Dipole               -1.0394 Ry au,         -2.6419 Debye
        Dipole field         -0.0006 Ry au, 
 
        Potential amp.        0.0682 Ry
        Total length         54.7057 bohr
 

     total cpu time spent up to now is      307.1 secs

     total energy              =   -8078.49992877 Ry
     estimated scf accuracy    <       0.33146941 Ry

     total magnetization       =    97.89 Bohr mag/cell
     absolute magnetization    =   100.85 Bohr mag/cell

     iteration # 19     ecut=    50.00 Ry     beta= 0.10
     Davidson diagonalization with overlap
     ethr =  2.99E-05,  avg # of iterations =  2.0

     negative rho (up, down):  4.831E-05 1.028E-03
 
     Adding external electric field

     Computed dipole along edir(3) : 
        Dipole               -0.9853 Ry au,         -2.5043 Debye
        Dipole field         -0.0006 Ry au, 
 
        Potential amp.        0.0646 Ry
        Total length         54.7057 bohr
 
 
     Adding external electric field

     Computed dipole along edir(3) : 
        Dipole               -0.9853 Ry au,         -2.5043 Debye
        Dipole field         -0.0006 Ry au, 
 
        Potential amp.        0.0646 Ry
        Total length         54.7057 bohr
 

     total cpu time spent up to now is      322.7 secs

     total energy              =   -8078.52765625 Ry
     estimated scf accuracy    <       0.15823874 Ry

     total magnetization       =    97.24 Bohr mag/cell
     absolute magnetization    =    98.88 Bohr mag/cell

     iteration # 20     ecut=    50.00 Ry     beta= 0.10
     Davidson diagonalization with overlap
     ethr =  1.43E-05,  avg # of iterations = 35.5

     negative rho (up, down):  5.969E-06 6.586E-04
 
     Adding external electric field

     Computed dipole along edir(3) : 
        Dipole               -0.9471 Ry au,         -2.4073 Debye
        Dipole field         -0.0006 Ry au, 
 
        Potential amp.        0.0621 Ry
        Total length         54.7057 bohr
 
 
     Adding external electric field

     Computed dipole along edir(3) : 
        Dipole               -0.9471 Ry au,         -2.4073 Debye
        Dipole field         -0.0006 Ry au, 
 
        Potential amp.        0.0621 Ry
        Total length         54.7057 bohr
 

     total cpu time spent up to now is      378.7 secs

     total energy              =   -8078.54280190 Ry
     estimated scf accuracy    <       0.10383161 Ry

     total magnetization       =    96.70 Bohr mag/cell
     absolute magnetization    =    98.01 Bohr mag/cell

     iteration # 21     ecut=    50.00 Ry     beta= 0.10
     Davidson diagonalization with overlap
     ethr =  9.37E-06,  avg # of iterations =  1.5

     negative rho (up, down):  3.309E-06 4.723E-04
 
     Adding external electric field

     Computed dipole along edir(3) : 
        Dipole               -0.9085 Ry au,         -2.3093 Debye
        Dipole field         -0.0005 Ry au, 
 
        Potential amp.        0.0596 Ry
        Total length         54.7057 bohr
 
 
     Adding external electric field

     Computed dipole along edir(3) : 
        Dipole               -0.9085 Ry au,         -2.3093 Debye
        Dipole field         -0.0005 Ry au, 
 
        Potential amp.        0.0596 Ry
        Total length         54.7057 bohr
 

     total cpu time spent up to now is      393.6 secs

     total energy              =   -8078.54982385 Ry
     estimated scf accuracy    <       0.09871877 Ry

     total magnetization       =    96.88 Bohr mag/cell
     absolute magnetization    =    98.05 Bohr mag/cell

     iteration # 22     ecut=    50.00 Ry     beta= 0.10
     Davidson diagonalization with overlap
     ethr =  8.91E-06,  avg # of iterations =  2.0

     negative rho (up, down):  2.126E-06 1.805E-04
 
     Adding external electric field

     Computed dipole along edir(3) : 
        Dipole               -0.8647 Ry au,         -2.1978 Debye
        Dipole field         -0.0005 Ry au, 
 
        Potential amp.        0.0567 Ry
        Total length         54.7057 bohr
 
 
     Adding external electric field

     Computed dipole along edir(3) : 
        Dipole               -0.8647 Ry au,         -2.1978 Debye
        Dipole field         -0.0005 Ry au, 
 
        Potential amp.        0.0567 Ry
        Total length         54.7057 bohr
 

     total cpu time spent up to now is      408.9 secs

     total energy              =   -8078.56012104 Ry
     estimated scf accuracy    <       0.07462899 Ry

     total magnetization       =    96.84 Bohr mag/cell
     absolute magnetization    =    97.85 Bohr mag/cell

     iteration # 23     ecut=    50.00 Ry     beta= 0.10
     Davidson diagonalization with overlap
     ethr =  6.74E-06,  avg # of iterations =  1.5

     negative rho (up, down):  4.483E-07 9.974E-06
 
     Adding external electric field

     Computed dipole along edir(3) : 
        Dipole               -0.8193 Ry au,         -2.0825 Debye
        Dipole field         -0.0005 Ry au, 
 
        Potential amp.        0.0537 Ry
        Total length         54.7057 bohr
 
 
     Adding external electric field

     Computed dipole along edir(3) : 
        Dipole               -0.8193 Ry au,         -2.0825 Debye
        Dipole field         -0.0005 Ry au, 
 
        Potential amp.        0.0537 Ry
        Total length         54.7057 bohr
 

     total cpu time spent up to now is      423.2 secs

     total energy              =   -8078.56537054 Ry
     estimated scf accuracy    <       0.06666419 Ry

     total magnetization       =    96.46 Bohr mag/cell
     absolute magnetization    =    97.52 Bohr mag/cell

     iteration # 24     ecut=    50.00 Ry     beta= 0.10
     Davidson diagonalization with overlap
     c_bands:  2 eigenvalues not converged
     ethr =  6.02E-06,  avg # of iterations = 11.0

     negative rho (up, down):  2.181E-06 1.185E-05
 
     Adding external electric field

     Computed dipole along edir(3) : 
        Dipole               -0.8050 Ry au,         -2.0460 Debye
        Dipole field         -0.0005 Ry au, 
 
        Potential amp.        0.0528 Ry
        Total length         54.7057 bohr
 
 
     Adding external electric field

     Computed dipole along edir(3) : 
        Dipole               -0.8050 Ry au,         -2.0460 Debye
        Dipole field         -0.0005 Ry au, 
 
        Potential amp.        0.0528 Ry
        Total length         54.7057 bohr
 

     total cpu time spent up to now is      444.4 secs

     total energy              =   -8078.56551181 Ry
     estimated scf accuracy    <       0.06873567 Ry

     total magnetization       =    96.64 Bohr mag/cell
     absolute magnetization    =    97.71 Bohr mag/cell

     iteration # 25     ecut=    50.00 Ry     beta= 0.10
     Davidson diagonalization with overlap
     ethr =  6.02E-06,  avg # of iterations =  2.0

     negative rho (up, down):  2.389E-05 1.897E-05
 
     Adding external electric field

     Computed dipole along edir(3) : 
        Dipole               -0.7631 Ry au,         -1.9397 Debye
        Dipole field         -0.0005 Ry au, 
 
        Potential amp.        0.0501 Ry
        Total length         54.7057 bohr
 
 
     Adding external electric field

     Computed dipole along edir(3) : 
        Dipole               -0.7631 Ry au,         -1.9397 Debye
        Dipole field         -0.0005 Ry au, 
 
        Potential amp.        0.0501 Ry
        Total length         54.7057 bohr
 

     total cpu time spent up to now is      459.2 secs

     total energy              =   -8078.56506912 Ry
     estimated scf accuracy    <       0.04858858 Ry

     total magnetization       =    96.90 Bohr mag/cell
     absolute magnetization    =    97.98 Bohr mag/cell

     iteration # 26     ecut=    50.00 Ry     beta= 0.10
     Davidson diagonalization with overlap
     ethr =  4.39E-06,  avg # of iterations =  2.5

     negative rho (up, down):  9.544E-05 7.242E-05
 
     Adding external electric field

     Computed dipole along edir(3) : 
        Dipole               -0.7160 Ry au,         -1.8199 Debye
        Dipole field         -0.0004 Ry au, 
 
        Potential amp.        0.0470 Ry
        Total length         54.7057 bohr
 
 
     Adding external electric field

     Computed dipole along edir(3) : 
        Dipole               -0.7160 Ry au,         -1.8199 Debye
        Dipole field         -0.0004 Ry au, 
 
        Potential amp.        0.0470 Ry
        Total length         54.7057 bohr
 

     total cpu time spent up to now is      476.0 secs

     total energy              =   -8078.56457070 Ry
     estimated scf accuracy    <       0.03397642 Ry

     total magnetization       =    97.13 Bohr mag/cell
     absolute magnetization    =    98.26 Bohr mag/cell

     iteration # 27     ecut=    50.00 Ry     beta= 0.10
     Davidson diagonalization with overlap
     ethr =  3.07E-06,  avg # of iterations =  2.0

     negative rho (up, down):  8.250E-05 5.885E-05
 
     Adding external electric field

     Computed dipole along edir(3) : 
        Dipole               -0.7285 Ry au,         -1.8517 Debye
        Dipole field         -0.0004 Ry au, 
 
        Potential amp.        0.0478 Ry
        Total length         54.7057 bohr
 
 
     Adding external electric field

     Computed dipole along edir(3) : 
        Dipole               -0.7285 Ry au,         -1.8517 Debye
        Dipole field         -0.0004 Ry au, 
 
        Potential amp.        0.0478 Ry
        Total length         54.7057 bohr
 

     total cpu time spent up to now is      492.6 secs

     total energy              =   -8078.56483710 Ry
     estimated scf accuracy    <       0.03147272 Ry

     total magnetization       =    97.16 Bohr mag/cell
     absolute magnetization    =    98.30 Bohr mag/cell

     iteration # 28     ecut=    50.00 Ry     beta= 0.10
     Davidson diagonalization with overlap
     ethr =  2.84E-06,  avg # of iterations =  2.0

     negative rho (up, down):  7.098E-05 5.779E-05
 
     Adding external electric field

     Computed dipole along edir(3) : 
        Dipole               -0.7470 Ry au,         -1.8986 Debye
        Dipole field         -0.0004 Ry au, 
 
        Potential amp.        0.0490 Ry
        Total length         54.7057 bohr
 
 
     Adding external electric field

     Computed dipole along edir(3) : 
        Dipole               -0.7470 Ry au,         -1.8986 Debye
        Dipole field         -0.0004 Ry au, 
 
        Potential amp.        0.0490 Ry
        Total length         54.7057 bohr
 

     total cpu time spent up to now is      508.4 secs

     total energy              =   -8078.56526871 Ry
     estimated scf accuracy    <       0.03079921 Ry

     total magnetization       =    97.16 Bohr mag/cell
     absolute magnetization    =    98.30 Bohr mag/cell

     iteration # 29     ecut=    50.00 Ry     beta= 0.10
     Davidson diagonalization with overlap
     ethr =  2.78E-06,  avg # of iterations =  2.0

     negative rho (up, down):  6.919E-05 3.041E-05
 
     Adding external electric field

     Computed dipole along edir(3) : 
        Dipole               -0.7534 Ry au,         -1.9150 Debye
        Dipole field         -0.0005 Ry au, 
 
        Potential amp.        0.0494 Ry
        Total length         54.7057 bohr
 
 
     Adding external electric field

     Computed dipole along edir(3) : 
        Dipole               -0.7534 Ry au,         -1.9150 Debye
        Dipole field         -0.0005 Ry au, 
 
        Potential amp.        0.0494 Ry
        Total length         54.7057 bohr
 

     total cpu time spent up to now is      524.4 secs

     total energy              =   -8078.56371119 Ry
     estimated scf accuracy    <       0.03061701 Ry

     total magnetization       =    97.18 Bohr mag/cell
     absolute magnetization    =    98.32 Bohr mag/cell

     iteration # 30     ecut=    50.00 Ry     beta= 0.10
     Davidson diagonalization with overlap
     ethr =  2.76E-06,  avg # of iterations =  2.0

     negative rho (up, down):  4.234E-05 2.790E-05
 
     Adding external electric field

     Computed dipole along edir(3) : 
        Dipole               -0.7711 Ry au,         -1.9599 Debye
        Dipole field         -0.0005 Ry au, 
 
        Potential amp.        0.0506 Ry
        Total length         54.7057 bohr
 
 
     Adding external electric field

     Computed dipole along edir(3) : 
        Dipole               -0.7711 Ry au,         -1.9599 Debye
        Dipole field         -0.0005 Ry au, 
 
        Potential amp.        0.0506 Ry
        Total length         54.7057 bohr
 

     total cpu time spent up to now is      540.2 secs

     total energy              =   -8078.56540030 Ry
     estimated scf accuracy    <       0.03172576 Ry

     total magnetization       =    97.23 Bohr mag/cell
     absolute magnetization    =    98.29 Bohr mag/cell

     iteration # 31     ecut=    50.00 Ry     beta= 0.10
     Davidson diagonalization with overlap
     ethr =  2.76E-06,  avg # of iterations =  1.0

     negative rho (up, down):  4.825E-05 2.234E-05
 
     Adding external electric field

     Computed dipole along edir(3) : 
        Dipole               -0.7499 Ry au,         -1.9061 Debye
        Dipole field         -0.0004 Ry au, 
 
        Potential amp.        0.0492 Ry
        Total length         54.7057 bohr
 
 
     Adding external electric field

     Computed dipole along edir(3) : 
        Dipole               -0.7499 Ry au,         -1.9061 Debye
        Dipole field         -0.0004 Ry au, 
 
        Potential amp.        0.0492 Ry
        Total length         54.7057 bohr
 

     total cpu time spent up to now is      554.4 secs

     total energy              =   -8078.56500809 Ry
     estimated scf accuracy    <       0.03140289 Ry

     total magnetization       =    97.20 Bohr mag/cell
     absolute magnetization    =    98.33 Bohr mag/cell

     iteration # 32     ecut=    50.00 Ry     beta= 0.10
     Davidson diagonalization with overlap
     ethr =  2.76E-06,  avg # of iterations =  1.0

     negative rho (up, down):  6.854E-05 5.432E-05
 
     Adding external electric field

     Computed dipole along edir(3) : 
        Dipole               -0.7233 Ry au,         -1.8384 Debye
        Dipole field         -0.0004 Ry au, 
 
        Potential amp.        0.0474 Ry
        Total length         54.7057 bohr
 
 
     Adding external electric field

     Computed dipole along edir(3) : 
        Dipole               -0.7233 Ry au,         -1.8384 Debye
        Dipole field         -0.0004 Ry au, 
 
        Potential amp.        0.0474 Ry
        Total length         54.7057 bohr
 

     total cpu time spent up to now is      568.9 secs

     total energy              =   -8078.56460881 Ry
     estimated scf accuracy    <       0.03170301 Ry

     total magnetization       =    97.20 Bohr mag/cell
     absolute magnetization    =    98.33 Bohr mag/cell

     iteration # 33     ecut=    50.00 Ry     beta= 0.10
     Davidson diagonalization with overlap
     ethr =  2.76E-06,  avg # of iterations =  2.0

     negative rho (up, down):  6.155E-05 6.727E-05
 
     Adding external electric field

     Computed dipole along edir(3) : 
        Dipole               -0.7342 Ry au,         -1.8662 Debye
        Dipole field         -0.0004 Ry au, 
 
        Potential amp.        0.0482 Ry
        Total length         54.7057 bohr
 
 
     Adding external electric field

     Computed dipole along edir(3) : 
        Dipole               -0.7342 Ry au,         -1.8662 Debye
        Dipole field         -0.0004 Ry au, 
 
        Potential amp.        0.0482 Ry
        Total length         54.7057 bohr
 

     total cpu time spent up to now is      584.5 secs

     total energy              =   -8078.56489789 Ry
     estimated scf accuracy    <       0.03059092 Ry

     total magnetization       =    97.15 Bohr mag/cell
     absolute magnetization    =    98.26 Bohr mag/cell

     iteration # 34     ecut=    50.00 Ry     beta= 0.10
     Davidson diagonalization with overlap
     ethr =  2.76E-06,  avg # of iterations =  1.5

     negative rho (up, down):  6.139E-05 6.449E-05
 
     Adding external electric field

     Computed dipole along edir(3) : 
        Dipole               -0.7396 Ry au,         -1.8799 Debye
        Dipole field         -0.0004 Ry au, 
 
        Potential amp.        0.0485 Ry
        Total length         54.7057 bohr
 
 
     Adding external electric field

     Computed dipole along edir(3) : 
        Dipole               -0.7396 Ry au,         -1.8799 Debye
        Dipole field         -0.0004 Ry au, 
 
        Potential amp.        0.0485 Ry
        Total length         54.7057 bohr
 

     total cpu time spent up to now is      600.1 secs

     total energy              =   -8078.56494161 Ry
     estimated scf accuracy    <       0.03061973 Ry

     total magnetization       =    97.15 Bohr mag/cell
     absolute magnetization    =    98.25 Bohr mag/cell

     iteration # 35     ecut=    50.00 Ry     beta= 0.10
     Davidson diagonalization with overlap
     ethr =  2.76E-06,  avg # of iterations =  1.5

     negative rho (up, down):  7.099E-05 8.531E-05
 
     Adding external electric field

     Computed dipole along edir(3) : 
        Dipole               -0.7895 Ry au,         -2.0068 Debye
        Dipole field         -0.0005 Ry au, 
 
        Potential amp.        0.0518 Ry
        Total length         54.7057 bohr
 
 
     Adding external electric field

     Computed dipole along edir(3) : 
        Dipole               -0.7895 Ry au,         -2.0068 Debye
        Dipole field         -0.0005 Ry au, 
 
        Potential amp.        0.0518 Ry
        Total length         54.7057 bohr
 

     total cpu time spent up to now is      614.8 secs

     total energy              =   -8078.56555506 Ry
     estimated scf accuracy    <       0.03045468 Ry

     total magnetization       =    97.15 Bohr mag/cell
     absolute magnetization    =    98.26 Bohr mag/cell

     iteration # 36     ecut=    50.00 Ry     beta= 0.10
     Davidson diagonalization with overlap
     ethr =  2.75E-06,  avg # of iterations =  1.5

     negative rho (up, down):  1.430E-04 9.430E-05
 
     Adding external electric field

     Computed dipole along edir(3) : 
        Dipole               -0.6549 Ry au,         -1.6647 Debye
        Dipole field         -0.0004 Ry au, 
 
        Potential amp.        0.0430 Ry
        Total length         54.7057 bohr
 
 
     Adding external electric field

     Computed dipole along edir(3) : 
        Dipole               -0.6549 Ry au,         -1.6647 Debye
        Dipole field         -0.0004 Ry au, 
 
        Potential amp.        0.0430 Ry
        Total length         54.7057 bohr
 

     total cpu time spent up to now is      629.9 secs

     total energy              =   -8078.56390676 Ry
     estimated scf accuracy    <       0.03155847 Ry

     total magnetization       =    97.13 Bohr mag/cell
     absolute magnetization    =    98.24 Bohr mag/cell

     iteration # 37     ecut=    50.00 Ry     beta= 0.10
     Davidson diagonalization with overlap
     ethr =  2.75E-06,  avg # of iterations =  3.0

     negative rho (up, down):  1.134E-04 8.411E-05
 
     Adding external electric field

     Computed dipole along edir(3) : 
        Dipole               -0.6755 Ry au,         -1.7169 Debye
        Dipole field         -0.0004 Ry au, 
 
        Potential amp.        0.0443 Ry
        Total length         54.7057 bohr
 
 
     Adding external electric field

     Computed dipole along edir(3) : 
        Dipole               -0.6755 Ry au,         -1.7169 Debye
        Dipole field         -0.0004 Ry au, 
 
        Potential amp.        0.0443 Ry
        Total length         54.7057 bohr
 

     total cpu time spent up to now is      648.8 secs

     total energy              =   -8078.56411230 Ry
     estimated scf accuracy    <       0.03091758 Ry

     total magnetization       =    97.23 Bohr mag/cell
     absolute magnetization    =    98.37 Bohr mag/cell

     iteration # 38     ecut=    50.00 Ry     beta= 0.10
     Davidson diagonalization with overlap
     ethr =  2.75E-06,  avg # of iterations =  1.5

     negative rho (up, down):  1.422E-04 9.540E-05
 
     Adding external electric field

     Computed dipole along edir(3) : 
        Dipole               -0.6649 Ry au,         -1.6901 Debye
        Dipole field         -0.0004 Ry au, 
 
        Potential amp.        0.0436 Ry
        Total length         54.7057 bohr
 
 
     Adding external electric field

     Computed dipole along edir(3) : 
        Dipole               -0.6649 Ry au,         -1.6901 Debye
        Dipole field         -0.0004 Ry au, 
 
        Potential amp.        0.0436 Ry
        Total length         54.7057 bohr
 

     total cpu time spent up to now is      665.4 secs

     total energy              =   -8078.56407547 Ry
     estimated scf accuracy    <       0.03064869 Ry

     total magnetization       =    97.23 Bohr mag/cell
     absolute magnetization    =    98.35 Bohr mag/cell

     iteration # 39     ecut=    50.00 Ry     beta= 0.10
     Davidson diagonalization with overlap
     ethr =  2.75E-06,  avg # of iterations =  2.0

     negative rho (up, down):  1.440E-04 9.274E-05
 
     Adding external electric field

     Computed dipole along edir(3) : 
        Dipole               -0.6842 Ry au,         -1.7390 Debye
        Dipole field         -0.0004 Ry au, 
 
        Potential amp.        0.0449 Ry
        Total length         54.7057 bohr
 
 
     Adding external electric field

     Computed dipole along edir(3) : 
        Dipole               -0.6842 Ry au,         -1.7390 Debye
        Dipole field         -0.0004 Ry au, 
 
        Potential amp.        0.0449 Ry
        Total length         54.7057 bohr
 

     total cpu time spent up to now is      682.8 secs

     total energy              =   -8078.56378595 Ry
     estimated scf accuracy    <       0.03170363 Ry

     total magnetization       =    97.19 Bohr mag/cell
     absolute magnetization    =    98.33 Bohr mag/cell

     iteration # 40     ecut=    50.00 Ry     beta= 0.10
     Davidson diagonalization with overlap
     ethr =  2.75E-06,  avg # of iterations =  1.5

     negative rho (up, down):  1.428E-04 1.097E-04
 
     Adding external electric field

     Computed dipole along edir(3) : 
        Dipole               -0.6628 Ry au,         -1.6847 Debye
        Dipole field         -0.0004 Ry au, 
 
        Potential amp.        0.0435 Ry
        Total length         54.7057 bohr
 
 
     Adding external electric field

     Computed dipole along edir(3) : 
        Dipole               -0.6628 Ry au,         -1.6847 Debye
        Dipole field         -0.0004 Ry au, 
 
        Potential amp.        0.0435 Ry
        Total length         54.7057 bohr
 

     total cpu time spent up to now is      698.3 secs

     total energy              =   -8078.56434558 Ry
     estimated scf accuracy    <       0.03078023 Ry

     total magnetization       =    97.22 Bohr mag/cell
     absolute magnetization    =    98.32 Bohr mag/cell

     iteration # 41     ecut=    50.00 Ry     beta= 0.10
     Davidson diagonalization with overlap
     ethr =  2.75E-06,  avg # of iterations =  2.0

     negative rho (up, down):  1.173E-04 8.058E-05
 
     Adding external electric field

     Computed dipole along edir(3) : 
        Dipole               -0.6863 Ry au,         -1.7443 Debye
        Dipole field         -0.0004 Ry au, 
 
        Potential amp.        0.0450 Ry
        Total length         54.7057 bohr
 
 
     Adding external electric field

     Computed dipole along edir(3) : 
        Dipole               -0.6863 Ry au,         -1.7443 Debye
        Dipole field         -0.0004 Ry au, 
 
        Potential amp.        0.0450 Ry
        Total length         54.7057 bohr
 

     total cpu time spent up to now is      716.6 secs

     total energy              =   -8078.56464461 Ry
     estimated scf accuracy    <       0.03026713 Ry

     total magnetization       =    97.18 Bohr mag/cell
     absolute magnetization    =    98.34 Bohr mag/cell

     iteration # 42     ecut=    50.00 Ry     beta= 0.10
     Davidson diagonalization with overlap
     ethr =  2.73E-06,  avg # of iterations =  1.5

     negative rho (up, down):  1.606E-04 1.383E-04
 
     Adding external electric field

     Computed dipole along edir(3) : 
        Dipole               -0.6540 Ry au,         -1.6623 Debye
        Dipole field         -0.0004 Ry au, 
 
        Potential amp.        0.0429 Ry
        Total length         54.7057 bohr
 
 
     Adding external electric field

     Computed dipole along edir(3) : 
        Dipole               -0.6540 Ry au,         -1.6623 Debye
        Dipole field         -0.0004 Ry au, 
 
        Potential amp.        0.0429 Ry
        Total length         54.7057 bohr
 

     total cpu time spent up to now is      733.8 secs

     total energy              =   -8078.56448987 Ry
     estimated scf accuracy    <       0.03041247 Ry

     total magnetization       =    97.20 Bohr mag/cell
     absolute magnetization    =    98.37 Bohr mag/cell

     iteration # 43     ecut=    50.00 Ry     beta= 0.10
     Davidson diagonalization with overlap
     ethr =  2.73E-06,  avg # of iterations =  1.5

     negative rho (up, down):  1.615E-04 1.385E-04
 
     Adding external electric field

     Computed dipole along edir(3) : 
        Dipole               -0.6094 Ry au,         -1.5490 Debye
        Dipole field         -0.0004 Ry au, 
 
        Potential amp.        0.0400 Ry
        Total length         54.7057 bohr
 
 
     Adding external electric field

     Computed dipole along edir(3) : 
        Dipole               -0.6094 Ry au,         -1.5490 Debye
        Dipole field         -0.0004 Ry au, 
 
        Potential amp.        0.0400 Ry
        Total length         54.7057 bohr
 

     total cpu time spent up to now is      750.4 secs

     total energy              =   -8078.56388294 Ry
     estimated scf accuracy    <       0.03101182 Ry

     total magnetization       =    97.18 Bohr mag/cell
     absolute magnetization    =    98.35 Bohr mag/cell

     iteration # 44     ecut=    50.00 Ry     beta= 0.10
     Davidson diagonalization with overlap
     ethr =  2.73E-06,  avg # of iterations =  2.0

     negative rho (up, down):  1.280E-04 9.683E-05
 
     Adding external electric field

     Computed dipole along edir(3) : 
        Dipole               -0.6908 Ry au,         -1.7559 Debye
        Dipole field         -0.0004 Ry au, 
 
        Potential amp.        0.0453 Ry
        Total length         54.7057 bohr
 
 
     Adding external electric field

     Computed dipole along edir(3) : 
        Dipole               -0.6908 Ry au,         -1.7559 Debye
        Dipole field         -0.0004 Ry au, 
 
        Potential amp.        0.0453 Ry
        Total length         54.7057 bohr
 

     total cpu time spent up to now is      768.4 secs

     total energy              =   -8078.56436482 Ry
     estimated scf accuracy    <       0.03130136 Ry

     total magnetization       =    97.09 Bohr mag/cell
     absolute magnetization    =    98.27 Bohr mag/cell

     iteration # 45     ecut=    50.00 Ry     beta= 0.10
     Davidson diagonalization with overlap
     ethr =  2.73E-06,  avg # of iterations =  1.0

     negative rho (up, down):  4.530E-04 3.910E-04
 
     Adding external electric field

     Computed dipole along edir(3) : 
        Dipole               -0.4611 Ry au,         -1.1719 Debye
        Dipole field         -0.0003 Ry au, 
 
        Potential amp.        0.0302 Ry
        Total length         54.7057 bohr
 
 
     Adding external electric field

     Computed dipole along edir(3) : 
        Dipole               -0.4611 Ry au,         -1.1719 Debye
        Dipole field         -0.0003 Ry au, 
 
        Potential amp.        0.0302 Ry
        Total length         54.7057 bohr
 

     total cpu time spent up to now is      784.1 secs

     total energy              =   -8078.56246530 Ry
     estimated scf accuracy    <       0.03244073 Ry

     total magnetization       =    97.14 Bohr mag/cell
     absolute magnetization    =    98.28 Bohr mag/cell

     iteration # 46     ecut=    50.00 Ry     beta= 0.10
     Davidson diagonalization with overlap
     c_bands:  4 eigenvalues not converged
     c_bands:  5 eigenvalues not converged
     ethr =  2.73E-06,  avg # of iterations = 20.0

     negative rho (up, down):  9.303E-04 6.994E-04
 
     Adding external electric field

     Computed dipole along edir(3) : 
        Dipole               -0.2868 Ry au,         -0.7290 Debye
        Dipole field         -0.0002 Ry au, 
 
        Potential amp.        0.0188 Ry
        Total length         54.7057 bohr
 
 
     Adding external electric field

     Computed dipole along edir(3) : 
        Dipole               -0.2868 Ry au,         -0.7290 Debye
        Dipole field         -0.0002 Ry au, 
 
        Potential amp.        0.0188 Ry
        Total length         54.7057 bohr
 

     total cpu time spent up to now is      815.1 secs

     total energy              =   -8078.56115699 Ry
     estimated scf accuracy    <       0.02305779 Ry

     total magnetization       =    97.19 Bohr mag/cell
     absolute magnetization    =    98.37 Bohr mag/cell

     iteration # 47     ecut=    50.00 Ry     beta= 0.10
     Davidson diagonalization with overlap
     c_bands:  3 eigenvalues not converged
     c_bands:  1 eigenvalues not converged
     ethr =  2.08E-06,  avg # of iterations = 20.0

     negative rho (up, down):  2.755E-03 1.857E-03
 
     Adding external electric field

     Computed dipole along edir(3) : 
        Dipole               -0.1245 Ry au,         -0.3165 Debye
        Dipole field         -0.0001 Ry au, 
 
        Potential amp.        0.0082 Ry
        Total length         54.7057 bohr
 
 
     Adding external electric field

     Computed dipole along edir(3) : 
        Dipole               -0.1245 Ry au,         -0.3165 Debye
        Dipole field         -0.0001 Ry au, 
 
        Potential amp.        0.0082 Ry
        Total length         54.7057 bohr
 

     total cpu time spent up to now is      845.1 secs

     total energy              =   -8078.56045623 Ry
     estimated scf accuracy    <       0.01706035 Ry

     total magnetization       =    97.26 Bohr mag/cell
     absolute magnetization    =    98.50 Bohr mag/cell

     iteration # 48     ecut=    50.00 Ry     beta= 0.10
     Davidson diagonalization with overlap
     ethr =  1.54E-06,  avg # of iterations = 17.0

     negative rho (up, down):  1.078E-03 8.386E-04
 
     Adding external electric field

     Computed dipole along edir(3) : 
        Dipole               -0.1403 Ry au,         -0.3566 Debye
        Dipole field         -0.0001 Ry au, 
 
        Potential amp.        0.0092 Ry
        Total length         54.7057 bohr
 
 
     Adding external electric field

     Computed dipole along edir(3) : 
        Dipole               -0.1403 Ry au,         -0.3566 Debye
        Dipole field         -0.0001 Ry au, 
 
        Potential amp.        0.0092 Ry
        Total length         54.7057 bohr
 

     total cpu time spent up to now is      877.1 secs

     total energy              =   -8078.56139930 Ry
     estimated scf accuracy    <       0.01207593 Ry

     total magnetization       =    97.28 Bohr mag/cell
     absolute magnetization    =    98.55 Bohr mag/cell

     iteration # 49     ecut=    50.00 Ry     beta= 0.10
     Davidson diagonalization with overlap
     ethr =  1.09E-06,  avg # of iterations =  2.0

     negative rho (up, down):  4.931E-04 4.866E-04
 
     Adding external electric field

     Computed dipole along edir(3) : 
        Dipole               -0.1799 Ry au,         -0.4573 Debye
        Dipole field         -0.0001 Ry au, 
 
        Potential amp.        0.0118 Ry
        Total length         54.7057 bohr
 
 
     Adding external electric field

     Computed dipole along edir(3) : 
        Dipole               -0.1799 Ry au,         -0.4573 Debye
        Dipole field         -0.0001 Ry au, 
 
        Potential amp.        0.0118 Ry
        Total length         54.7057 bohr
 

     total cpu time spent up to now is      894.5 secs

     total energy              =   -8078.56138807 Ry
     estimated scf accuracy    <       0.00696007 Ry

     total magnetization       =    97.25 Bohr mag/cell
     absolute magnetization    =    98.52 Bohr mag/cell

     iteration # 50     ecut=    50.00 Ry     beta= 0.10
     Davidson diagonalization with overlap
     ethr =  6.28E-07,  avg # of iterations =  3.5

     negative rho (up, down):  2.190E-04 2.324E-04
 
     Adding external electric field

     Computed dipole along edir(3) : 
        Dipole               -0.2073 Ry au,         -0.5269 Debye
        Dipole field         -0.0001 Ry au, 
 
        Potential amp.        0.0136 Ry
        Total length         54.7057 bohr
 
 
     Adding external electric field

     Computed dipole along edir(3) : 
        Dipole               -0.2073 Ry au,         -0.5269 Debye
        Dipole field         -0.0001 Ry au, 
 
        Potential amp.        0.0136 Ry
        Total length         54.7057 bohr
 

     total cpu time spent up to now is      912.8 secs

     total energy              =   -8078.56132328 Ry
     estimated scf accuracy    <       0.00405155 Ry

     total magnetization       =    97.17 Bohr mag/cell
     absolute magnetization    =    98.38 Bohr mag/cell

     iteration # 51     ecut=    50.00 Ry     beta= 0.10
     Davidson diagonalization with overlap
     ethr =  3.66E-07,  avg # of iterations =  2.0

     negative rho (up, down):  1.888E-05 2.329E-05
 
     Adding external electric field

     Computed dipole along edir(3) : 
        Dipole               -0.1915 Ry au,         -0.4867 Debye
        Dipole field         -0.0001 Ry au, 
 
        Potential amp.        0.0126 Ry
        Total length         54.7057 bohr
 
 
     Adding external electric field

     Computed dipole along edir(3) : 
        Dipole               -0.1915 Ry au,         -0.4867 Debye
        Dipole field         -0.0001 Ry au, 
 
        Potential amp.        0.0126 Ry
        Total length         54.7057 bohr
 

     total cpu time spent up to now is      929.5 secs

     total energy              =   -8078.56115087 Ry
     estimated scf accuracy    <       0.00282605 Ry

     total magnetization       =    97.11 Bohr mag/cell
     absolute magnetization    =    98.32 Bohr mag/cell

     iteration # 52     ecut=    50.00 Ry     beta= 0.10
     Davidson diagonalization with overlap
     ethr =  2.55E-07,  avg # of iterations =  2.0

     negative rho (up, down):  1.377E-05 1.457E-05
 
     Adding external electric field

     Computed dipole along edir(3) : 
        Dipole               -0.2007 Ry au,         -0.5101 Debye
        Dipole field         -0.0001 Ry au, 
 
        Potential amp.        0.0132 Ry
        Total length         54.7057 bohr
 
 
     Adding external electric field

     Computed dipole along edir(3) : 
        Dipole               -0.2007 Ry au,         -0.5101 Debye
        Dipole field         -0.0001 Ry au, 
 
        Potential amp.        0.0132 Ry
        Total length         54.7057 bohr
 

     total cpu time spent up to now is      946.4 secs

     total energy              =   -8078.56113529 Ry
     estimated scf accuracy    <       0.00171024 Ry

     total magnetization       =    97.07 Bohr mag/cell
     absolute magnetization    =    98.32 Bohr mag/cell

     iteration # 53     ecut=    50.00 Ry     beta= 0.10
     Davidson diagonalization with overlap
     ethr =  1.54E-07,  avg # of iterations =  2.0

     negative rho (up, down):  2.260E-06 1.605E-06
 
     Adding external electric field

     Computed dipole along edir(3) : 
        Dipole               -0.2042 Ry au,         -0.5190 Debye
        Dipole field         -0.0001 Ry au, 
 
        Potential amp.        0.0134 Ry
        Total length         54.7057 bohr
 
 
     Adding external electric field

     Computed dipole along edir(3) : 
        Dipole               -0.2042 Ry au,         -0.5190 Debye
        Dipole field         -0.0001 Ry au, 
 
        Potential amp.        0.0134 Ry
        Total length         54.7057 bohr
 

     total cpu time spent up to now is      963.5 secs

     total energy              =   -8078.56117806 Ry
     estimated scf accuracy    <       0.00136263 Ry

     total magnetization       =    97.09 Bohr mag/cell
     absolute magnetization    =    98.35 Bohr mag/cell

     iteration # 54     ecut=    50.00 Ry     beta= 0.10
     Davidson diagonalization with overlap
     ethr =  1.23E-07,  avg # of iterations =  2.0

     negative rho (up, down):  1.601E-06 5.324E-07
 
     Adding external electric field

     Computed dipole along edir(3) : 
        Dipole               -0.2051 Ry au,         -0.5212 Debye
        Dipole field         -0.0001 Ry au, 
 
        Potential amp.        0.0135 Ry
        Total length         54.7057 bohr
 
 
     Adding external electric field

     Computed dipole along edir(3) : 
        Dipole               -0.2051 Ry au,         -0.5212 Debye
        Dipole field         -0.0001 Ry au, 
 
        Potential amp.        0.0135 Ry
        Total length         54.7057 bohr
 

     total cpu time spent up to now is      980.4 secs

     total energy              =   -8078.56125228 Ry
     estimated scf accuracy    <       0.00111701 Ry

     total magnetization       =    97.09 Bohr mag/cell
     absolute magnetization    =    98.35 Bohr mag/cell

     iteration # 55     ecut=    50.00 Ry     beta= 0.10
     Davidson diagonalization with overlap
     ethr =  1.01E-07,  avg # of iterations =  2.0

     negative rho (up, down):  8.469E-06 3.238E-06
 
     Adding external electric field

     Computed dipole along edir(3) : 
        Dipole               -0.2108 Ry au,         -0.5357 Debye
        Dipole field         -0.0001 Ry au, 
 
        Potential amp.        0.0138 Ry
        Total length         54.7057 bohr
 
 
     Adding external electric field

     Computed dipole along edir(3) : 
        Dipole               -0.2108 Ry au,         -0.5357 Debye
        Dipole field         -0.0001 Ry au, 
 
        Potential amp.        0.0138 Ry
        Total length         54.7057 bohr
 

     total cpu time spent up to now is      997.4 secs

     total energy              =   -8078.56129571 Ry
     estimated scf accuracy    <       0.00088331 Ry

     total magnetization       =    97.08 Bohr mag/cell
     absolute magnetization    =    98.33 Bohr mag/cell

     iteration # 56     ecut=    50.00 Ry     beta= 0.10
     Davidson diagonalization with overlap
     ethr =  7.97E-08,  avg # of iterations =  1.5

     negative rho (up, down):  3.239E-05 1.236E-05
 
     Adding external electric field

     Computed dipole along edir(3) : 
        Dipole               -0.2149 Ry au,         -0.5462 Debye
        Dipole field         -0.0001 Ry au, 
 
        Potential amp.        0.0141 Ry
        Total length         54.7057 bohr
 
 
     Adding external electric field

     Computed dipole along edir(3) : 
        Dipole               -0.2149 Ry au,         -0.5462 Debye
        Dipole field         -0.0001 Ry au, 
 
        Potential amp.        0.0141 Ry
        Total length         54.7057 bohr
 

     total cpu time spent up to now is     1012.7 secs

     total energy              =   -8078.56134856 Ry
     estimated scf accuracy    <       0.00067987 Ry

     total magnetization       =    97.08 Bohr mag/cell
     absolute magnetization    =    98.33 Bohr mag/cell

     iteration # 57     ecut=    50.00 Ry     beta= 0.10
     Davidson diagonalization with overlap
     ethr =  6.14E-08,  avg # of iterations =  2.0

     negative rho (up, down):  6.832E-05 2.728E-05
 
     Adding external electric field

     Computed dipole along edir(3) : 
        Dipole               -0.2104 Ry au,         -0.5347 Debye
        Dipole field         -0.0001 Ry au, 
 
        Potential amp.        0.0138 Ry
        Total length         54.7057 bohr
 
 
     Adding external electric field

     Computed dipole along edir(3) : 
        Dipole               -0.2104 Ry au,         -0.5347 Debye
        Dipole field         -0.0001 Ry au, 
 
        Potential amp.        0.0138 Ry
        Total length         54.7057 bohr
 

     total cpu time spent up to now is     1030.1 secs

     total energy              =   -8078.56139086 Ry
     estimated scf accuracy    <       0.00040393 Ry

     total magnetization       =    97.11 Bohr mag/cell
     absolute magnetization    =    98.34 Bohr mag/cell

     iteration # 58     ecut=    50.00 Ry     beta= 0.10
     Davidson diagonalization with overlap
     ethr =  3.65E-08,  avg # of iterations =  2.0

     negative rho (up, down):  8.250E-05 2.344E-05
 
     Adding external electric field

     Computed dipole along edir(3) : 
[...]
    -6.0031  -5.9925  -5.9802  -5.9582  -5.9131  -5.9042  -5.8657  -5.8613
    -5.8558  -5.8347  -5.8148  -5.7813  -5.7690  -5.7601  -5.6983  -5.6837
    -5.6764  -5.6533  -5.6256  -5.6222  -5.5920  -5.5871  -5.5711  -5.5566
    -5.5485  -5.5178  -5.5070  -5.4940  -5.4888  -5.4835  -5.4651  -5.3806
    -5.3503  -5.3165  -5.2799  -5.2590  -5.2539  -5.2486  -5.2343  -5.1733
    -5.1606  -5.1218  -5.0802  -5.0513  -5.0404  -4.9998  -4.9282  -4.9199
    -4.8744  -4.8558  -4.8381  -4.8021  -4.7927  -4.7600  -4.7462  -4.7204
    -4.6648  -4.6401  -4.6081  -4.5811  -4.5508  -4.4690  -4.4515  -4.4100
    -4.3916  -4.3898  -4.3264  -4.2949  -4.2853  -4.2357  -4.2215  -4.1970
    -4.1941  -4.1548  -4.1147  -4.0785  -4.0550  -4.0027  -3.9992  -3.9740
    -3.8999  -3.8602  -3.8525  -3.8351  -3.8197  -3.7728  -3.7545  -3.7397
    -3.7345  -3.7182  -3.6851  -3.6820  -3.6261  -3.6208  -3.6023  -3.5994
    -3.5538  -3.5318  -3.5276  -3.5248  -3.5059  -3.4951  -3.4660  -3.4326
    -3.4233  -3.4157  -3.3934  -3.3814  -3.3740  -3.3470  -3.3334  -3.3205
    -3.2962  -3.2922  -3.2736  -3.2426  -3.2328  -3.2205  -3.1815  -3.1598
    -3.1427  -3.1057  -3.0798  -3.0734  -3.0570  -3.0410  -3.0284  -3.0048
    -2.9867  -2.9543  -2.9413  -2.9150  -2.8982  -2.8667  -2.8593  -2.8315
    -2.8173  -2.7847  -2.7507  -2.7210  -2.7105  -2.7014  -2.6876  -2.6833
    -2.6777  -2.6654  -2.6537  -2.6373  -2.6280  -2.6181  -2.5999  -2.5827
    -2.5636  -2.5460  -2.5328  -2.5244  -2.5126  -2.5011  -2.4828  -2.4599
    -2.4462  -2.4346  -2.3988  -2.3928  -2.3712  -2.3538  -2.3494  -2.3210
    -2.3028  -2.2911  -2.2832  -2.2663  -2.2439  -2.2127  -2.2040  -2.1844
    -2.1646  -2.1540  -2.1411  -2.1027  -2.0910  -2.0645  -2.0481  -2.0278
    -2.0166  -2.0112  -1.9880  -1.9681  -1.9642  -1.9303  -1.9098  -1.8854
    -1.8806  -1.8681  -1.8622  -1.8434  -1.8335  -1.8217  -1.8115  -1.7999
    -1.7317  -1.7171  -1.6857  -1.6668  -1.6384  -1.6329  -1.6272  -1.6102
    -1.6037  -1.5882  -1.5817  -1.5407  -1.5322  -1.5200  -1.4854  -1.4632
    -1.4450  -1.4292  -1.4093  -1.3880  -1.3743  -1.3532  -1.3416  -1.3309
    -1.3128  -1.3082  -1.2687  -1.2229  -1.1797  -1.1654  -1.1516  -1.1165
    -1.0737  -1.0406  -1.0085  -1.0044  -0.9964  -0.8899  -0.8453  -0.8021
    -0.7563  -0.6551  -0.6174  -0.5981  -0.4592  -0.4161  -0.2777  -0.1745
     0.1755   0.1923   0.2312   0.2523   0.2634   0.2816   0.2909   0.3035
     0.3110   0.3220   0.3388   0.3673   0.3794   0.3814   0.3858   0.3982
     0.4028   0.4075   0.4161   0.4309   0.4383   0.4548   0.4624   0.4645
     0.4769   0.4813   0.4873   0.4935   0.5003   0.5051   0.5136   0.5220
     0.5303   0.5353   0.5495   0.5553   0.5609   0.5727   0.5820   0.5959
     0.6019   0.6087   0.6234   0.6307   0.6346   0.6425   0.6568   0.6613
     0.6696   0.6741   0.6814   0.7164   0.7189   0.7283   0.7311   0.7396
     0.7461   0.7617   0.7729   0.7830   0.8058   0.8076   0.8120   0.8201
     0.8335   0.8397   0.8468   0.8682   0.8731   0.8791   0.8818   0.9035
     0.9056   0.9791   0.9885   1.0257   1.0413   1.0697   1.1287   1.1480
     1.6872   1.7596   1.7710   1.7806   1.7951   1.8249   1.8339   1.8753
     1.8862   1.8933   1.9263   1.9656   1.9779   1.9838   1.9980   2.0277
     2.0491   2.0778   2.0887   2.0981   2.1072   2.1110   2.1494   2.1554
     2.1774   2.1981   2.2035   2.2117   2.2222   2.2397   2.2585   2.2762
     2.2871   2.3031   2.3069   2.3386   2.3620   2.3767   2.4122   2.4438
     2.4530   2.4647   2.4805   2.5014   2.5147   2.5190   2.5666   2.6023
     2.6165   2.6578   2.7392   2.8015   2.8383   2.8585   2.8612   3.4166
     3.4838   3.6782   3.6927   3.7042   3.7562   3.7857   3.8489   3.8786
     3.8850   3.9169   3.9415   3.9513   3.9724   4.0039   4.0206   4.0294
     4.0667   4.0819   4.0872   4.0970   4.1076   4.1385   4.1490   4.1635
     4.2046   4.2230   4.2491   4.2671   4.3044   4.5982   4.6088   4.7808
     4.7936   4.8482   4.8848   4.8965   4.9627   4.9818   4.9897   5.0322
     5.0678   5.0898   5.1444   5.1691   5.2104   5.2195   5.3829   6.1749
     6.3558   6.4408   6.5774   6.6897   6.7184   6.7647   6.8061   6.9017
     6.9254   6.9566   7.0159   7.0452   7.2241   7.2848   7.3236   7.3525
     7.3817   7.4243   7.4767   7.5168   7.5449   7.5889   7.7041   7.7211
     7.8218   7.8327   7.9007   7.9255   7.9586   8.0003   8.0135   8.0460
     8.0634   8.0812   8.1175   8.1641   8.1762   8.2082   8.2338   8.3010
     8.3173   8.3385   8.3603   8.3695   8.3951   8.4000   8.4167   8.4271
     8.4618   8.4788   8.5109   8.5337   8.5673   8.5786   8.5997   8.6399
     8.6483

     the Fermi energy is     1.6881 ev

!    total energy              =   -8078.56146212 Ry
     estimated scf accuracy    <       0.00000096 Ry
     smearing contrib. (-TS)   =      -0.02497445 Ry
     internal energy E=F+TS    =   -8078.53648767 Ry

     The total energy is F=E-TS. E is the sum of the following terms:
     one-electron contribution =  -94749.37586800 Ry
     hartree contribution      =   47959.20523278 Ry
     xc contribution           =   -2177.35947258 Ry
     ewald contribution        =   40890.76397647 Ry
     Dispersion Correction     =      -1.77037217 Ry
     electric field correction =       0.00001583 Ry

     total magnetization       =    97.11 Bohr mag/cell
     absolute magnetization    =    98.32 Bohr mag/cell

     convergence has been achieved in  71 iterations

     negative rho (up, down):  1.167E-03 6.274E-04

     Forces acting on atoms (cartesian axes, Ry/au):

     atom    1 type  1   force =     0.02419976   -0.01781285    0.02007212
     atom    2 type  1   force =    -0.00193036    0.00026950   -0.00581413
     atom    3 type  2   force =    -0.03026778   -0.01557066   -0.00851339
     atom    4 type  1   force =     0.00190893   -0.00341433   -0.00480018
     atom    5 type  1   force =    -0.00377093    0.00204269   -0.00191201
     atom    6 type  1   force =     0.00248914    0.00762779   -0.00442602
     atom    7 type  1   force =     0.03196789   -0.01968053    0.01787022
     atom    8 type  2   force =    -0.00184641    0.00036574   -0.00952255
     atom    9 type  2   force =    -0.02888206   -0.01520814   -0.00854005
     atom   10 type  1   force =     0.00187984   -0.00308704   -0.00450914
     atom   11 type  1   force =    -0.00341612    0.00247114   -0.00107169
     atom   12 type  1   force =     0.00366585    0.00706795   -0.00393064
     atom   13 type  3   force =     0.00212508    0.00071380   -0.00757219
     atom   14 type  3   force =    -0.02976298    0.04992265   -0.06592073
     atom   15 type  3   force =     0.03466456    0.03759478   -0.05978138
     atom   16 type  3   force =    -0.00432305    0.00308799   -0.00091792
     atom   17 type  4   force =    -0.00195165    0.00143266    0.00290528
     atom   18 type  4   force =    -0.00155118   -0.00522417    0.02724513
     atom   19 type  4   force =     0.00393636    0.00275420    0.02940845
     atom   20 type  4   force =     0.00000066   -0.00266673   -0.00475788
     atom   21 type  4   force =    -0.00300198   -0.00225852    0.00325997
     atom   22 type  4   force =     0.00476619   -0.00336492    0.03444041
     atom   23 type  4   force =    -0.00600140   -0.00113199    0.03259957
     atom   24 type  4   force =     0.00063749   -0.00094846   -0.00000435
     atom   25 type  4   force =    -0.00140217    0.00071690    0.00215093
     atom   26 type  4   force =    -0.01459189   -0.02259567   -0.00175718
     atom   27 type  4   force =     0.00191495   -0.00070485    0.00117818
     atom   28 type  4   force =    -0.01753718    0.00341613    0.00123400
     atom   29 type  4   force =     0.02048979   -0.00457500    0.00833171
     atom   30 type  4   force =     0.01249629   -0.03395924    0.00118654
     atom   31 type  4   force =     0.00055926    0.00085171    0.00228580
     atom   32 type  4   force =    -0.00224170    0.00005054    0.00263243
     atom   33 type  3   force =    -0.00053162   -0.00171109   -0.00504563
     atom   34 type  3   force =    -0.03021086    0.05983041   -0.08311377
     atom   35 type  3   force =     0.03457460    0.03335431   -0.05927223
     atom   36 type  3   force =    -0.00393283    0.00478247   -0.00066233
     atom   37 type  4   force =    -0.00100667    0.00143468    0.00318044
     atom   38 type  4   force =    -0.00300462   -0.00563988    0.03283516
     atom   39 type  4   force =     0.00438025    0.00389796    0.02921971
     atom   40 type  4   force =     0.00026931   -0.00327098   -0.00479250
     atom   41 type  4   force =    -0.00001574    0.00009553    0.00347301
     atom   42 type  4   force =     0.00546492    0.00020564    0.02017407
     atom   43 type  4   force =    -0.00179897    0.00033696    0.03470589
     atom   44 type  4   force =     0.00092040   -0.00085707   -0.00005061
     atom   45 type  4   force =    -0.00023613   -0.00282665    0.00124618
     atom   46 type  4   force =    -0.01518860   -0.02022962   -0.00041737
     atom   47 type  4   force =     0.00191966   -0.00062818    0.00126243
     atom   48 type  4   force =    -0.01786374    0.00404045    0.00167705
     atom   49 type  4   force =     0.01630196   -0.00274923    0.00504395
     atom   50 type  4   force =     0.01187129   -0.03664276    0.00442203
     atom   51 type  4   force =     0.00109286    0.00092945    0.00168853
     atom   52 type  4   force =     0.00084433   -0.00224451    0.00359928
     atom   53 type  1   force =     0.00156841    0.00046944   -0.00123978
     atom   54 type  1   force =     0.00139527    0.00069584   -0.00039068
     atom   55 type  2   force =    -0.00018252   -0.00048080   -0.00077349
     atom   56 type  1   force =    -0.00082835    0.00130699    0.00030170
     atom   57 type  1   force =    -0.00022530    0.00024178    0.00005058
     atom   58 type  1   force =     0.00037452   -0.00025272    0.00000954
     atom   59 type  1   force =     0.00039271    0.00081735   -0.00119445
     atom   60 type  2   force =    -0.00170146   -0.00142015    0.00607988
     atom   61 type  2   force =    -0.00012412   -0.00010521   -0.00045344
     atom   62 type  1   force =     0.00043794   -0.00007909    0.00147397
     atom   63 type  1   force =     0.00009101    0.00037949    0.00023628
     atom   64 type  1   force =     0.00000455   -0.00059245   -0.00021161
     atom   65 type  3   force =     0.00029482    0.00045092    0.00040503
     atom   66 type  3   force =     0.00010031   -0.00030397   -0.00172046
     atom   67 type  3   force =     0.00041315    0.00053174   -0.00130724
     atom   68 type  3   force =    -0.00142916   -0.00157896    0.00327450
     atom   69 type  4   force =    -0.00065713    0.00024808   -0.00026739
     atom   70 type  4   force =    -0.00016436    0.00013973    0.00045542
     atom   71 type  4   force =     0.00006310   -0.00021631    0.00036717
     atom   72 type  4   force =     0.00058915   -0.00037701   -0.00147825
     atom   73 type  4   force =    -0.00007004    0.00068827   -0.00034468
     atom   74 type  4   force =    -0.00019334   -0.00063865    0.00188648
     atom   75 type  4   force =    -0.00007992   -0.00005053    0.00053752
     atom   76 type  4   force =    -0.00135068   -0.00114452    0.00252186
     atom   77 type  4   force =    -0.00095542    0.00133069    0.00011209
     atom   78 type  4   force =    -0.00039980    0.00002690    0.00032901
     atom   79 type  4   force =     0.00014784    0.00128706   -0.00192737
     atom   80 type  4   force =     0.00008970    0.00054484    0.00029224
     atom   81 type  4   force =    -0.00032122   -0.00024811    0.00038951
     atom   82 type  4   force =     0.00014198   -0.00000211   -0.00003102
     atom   83 type  4   force =     0.00083356    0.00027491    0.00076799
     atom   84 type  4   force =    -0.00086738    0.00001937   -0.00050349
     atom   85 type  3   force =     0.00040327    0.00219515    0.00149556
     atom   86 type  3   force =     0.00047783   -0.00064483   -0.00050603
     atom   87 type  3   force =    -0.00022228    0.00022354   -0.00039299
     atom   88 type  3   force =    -0.00060532   -0.00219970    0.00030021
     atom   89 type  4   force =    -0.00029938   -0.00043215   -0.00027040
     atom   90 type  4   force =     0.00005533   -0.00043042    0.00162237
     atom   91 type  4   force =     0.00037960   -0.00010386   -0.00006609
     atom   92 type  4   force =    -0.00049047    0.00055049   -0.00163988
     atom   93 type  4   force =     0.00081783   -0.00023438    0.00070669
     atom   94 type  4   force =    -0.00023116    0.00002616    0.00140900
     atom   95 type  4   force =     0.00022247    0.00021570    0.00023495
     atom   96 type  4   force =    -0.00112360    0.00009958   -0.00010327
     atom   97 type  4   force =     0.00042338    0.00036345   -0.00067621
     atom   98 type  4   force =    -0.00049842   -0.00027233    0.00028541
     atom   99 type  4   force =     0.00082423    0.00166304   -0.00151308
     atom  100 type  4   force =     0.00049934    0.00037702    0.00032916
     atom  101 type  4   force =    -0.00035479   -0.00010312    0.00046009
     atom  102 type  4   force =     0.00090034   -0.00030412    0.00038017
     atom  103 type  4   force =     0.00075577   -0.00118328   -0.00025085
     atom  104 type  4   force =    -0.00030280   -0.00116499    0.00030772
     atom  105 type  1   force =     0.00011291    0.00010266    0.00011455
     atom  106 type  1   force =    -0.00002838   -0.00053637   -0.00010115
     atom  107 type  2   force =     0.00030309   -0.00008756    0.00084068
     atom  108 type  1   force =    -0.00023164   -0.00003818    0.00058294
     atom  109 type  1   force =     0.00059657   -0.00018322   -0.00009948
     atom  110 type  1   force =     0.00054386   -0.00012850    0.00080364
     atom  111 type  1   force =    -0.00044294    0.00012209    0.00066573
     atom  112 type  2   force =     0.00001431   -0.00045268    0.00053433
     atom  113 type  2   force =    -0.00012591    0.00024087    0.00034650
     atom  114 type  1   force =     0.00090009   -0.00200958    0.00202836
     atom  115 type  1   force =    -0.00046484    0.00061999    0.00001057
     atom  116 type  1   force =    -0.00057655   -0.00063046    0.00062742
     atom  117 type  3   force =    -0.00014453   -0.00040935    0.00013137
     atom  118 type  3   force =    -0.00050982    0.00000255    0.00004279
     atom  119 type  3   force =     0.00013231    0.00024395   -0.00003624
     atom  120 type  3   force =     0.00023796    0.00025520   -0.00031723
     atom  121 type  4   force =    -0.00005124   -0.00006974   -0.00019441
     atom  122 type  4   force =    -0.00035936   -0.00015644    0.00022410
     atom  123 type  4   force =     0.00035718   -0.00000122    0.00026892
     atom  124 type  4   force =     0.00020730   -0.00042905    0.00009193
     atom  125 type  4   force =     0.00054395    0.00000169    0.00005993
     atom  126 type  4   force =     0.00009804   -0.00015555    0.00035393
     atom  127 type  4   force =     0.00007286   -0.00002707   -0.00020523
     atom  128 type  4   force =    -0.00058544   -0.00021778    0.00015452
     atom  129 type  4   force =    -0.00002384    0.00033418   -0.00004253
     atom  130 type  4   force =     0.00053171    0.00000314    0.00032140
     atom  131 type  4   force =     0.00017554    0.00016567   -0.00021164
     atom  132 type  4   force =     0.00030764   -0.00024964   -0.00004233
     atom  133 type  4   force =    -0.00005464   -0.00036667    0.00031351
     atom  134 type  4   force =    -0.00008520   -0.00018885    0.00030161
     atom  135 type  4   force =    -0.00017041   -0.00030429   -0.00026292
     atom  136 type  4   force =     0.00055440   -0.00006267    0.00023692
     atom  137 type  3   force =     0.00005848   -0.00029219   -0.00004179
     atom  138 type  3   force =     0.00010851   -0.00006027    0.00000537
     atom  139 type  3   force =     0.00014512    0.00003649    0.00007934
     atom  140 type  3   force =     0.00015638   -0.00016770    0.00005367
     atom  141 type  4   force =     0.00052445    0.00046147   -0.00069795
     atom  142 type  4   force =     0.00001441    0.00009146    0.00009208
     atom  143 type  4   force =     0.00032821   -0.00002166    0.00015457
     atom  144 type  4   force =    -0.00012413    0.00069619   -0.00043505
     atom  145 type  4   force =     0.00014577    0.00031543    0.00091941
     atom  146 type  4   force =    -0.00001613   -0.00000902   -0.00004626
     atom  147 type  4   force =    -0.00031472    0.00029070   -0.00021852
     atom  148 type  4   force =     0.00021877    0.00009948    0.00000920
     atom  149 type  4   force =    -0.00013870    0.00000670   -0.00013753
     atom  150 type  4   force =    -0.00012666   -0.00004403   -0.00009009
     atom  151 type  4   force =     0.00052656   -0.00045264    0.00038055
     atom  152 type  4   force =     0.00000273   -0.00026182    0.00029211
     atom  153 type  4   force =     0.00021520    0.00039853    0.00011919
     atom  154 type  4   force =    -0.00019360   -0.00038794    0.00026698
     atom  155 type  4   force =    -0.00006137   -0.00027302    0.00025488
     atom  156 type  4   force =     0.00002178    0.00029495   -0.00016576
     atom  157 type  4   force =     0.00566766    0.00819073    0.00105114
     atom  158 type  5   force =    -0.00708566   -0.00519369   -0.00137060

     Total force =     0.225685     Total SCF correction =     0.004421
 
     init_run     :      8.74s CPU      9.41s WALL (       1 calls)
     electrons    :   1197.26s CPU   1253.86s WALL (       1 calls)
     forces       :      4.87s CPU      5.26s WALL (       1 calls)
     force_london :      0.23s CPU      0.23s WALL (       1 calls)

     Called by init_run:
     wfcinit      :      5.11s CPU      5.27s WALL (       1 calls)
     potinit      :      0.75s CPU      0.97s WALL (       1 calls)
     hinit0       :      1.43s CPU      1.54s WALL (       1 calls)

     Called by electrons:
     c_bands      :    949.73s CPU    980.39s WALL (      71 calls)
     sum_band     :    156.45s CPU    170.08s WALL (      71 calls)
     v_of_rho     :     22.38s CPU     23.61s WALL (      72 calls)
     newd         :     44.11s CPU     55.00s WALL (      72 calls)
     mix_rho      :     23.58s CPU     23.92s WALL (      71 calls)
     energy_londo :      0.10s CPU      0.10s WALL (       1 calls)

     Called by c_bands:
     init_us_2    :      2.93s CPU      2.98s WALL (     288 calls)
     init_us_2:cp :      2.93s CPU      2.98s WALL (     288 calls)
     regterg      :    931.63s CPU    962.04s WALL (     146 calls)

     Called by *egterg:
     rdiaghg      :    259.68s CPU    274.80s WALL (     619 calls)
     h_psi        :    376.81s CPU    383.51s WALL (     621 calls)
     s_psi        :     62.76s CPU     62.80s WALL (     621 calls)
     g_psi        :      0.46s CPU      0.46s WALL (     473 calls)

     Called by h_psi:
     h_psi:calbec :     88.04s CPU     93.20s WALL (     621 calls)
     vloc_psi     :    224.54s CPU    225.42s WALL (     621 calls)
     add_vuspsi   :     63.22s CPU     63.86s WALL (     621 calls)

     General routines
     calbec       :    129.49s CPU    137.18s WALL (     771 calls)
     fft          :     21.56s CPU     23.44s WALL (    1309 calls)
     ffts         :     14.21s CPU     14.23s WALL (    8825 calls)
     fftw         :    248.86s CPU    249.76s WALL (  248984 calls)
     interpolate  :      1.73s CPU      1.85s WALL (     144 calls)
 
     Parallel routines
 
     PWSCF        :  20m13.49s CPU  21m11.63s WALL

 
   This run was terminated on:  22: 2:18  17Nov2025            

=------------------------------------------------------------------------------=
   JOB DONE.
=------------------------------------------------------------------------------=
