
     Program PWSCF v.7.2 starts on 17Nov2025 at 23:44:14 

     This program is part of the open-source Quantum ESPRESSO suite
     for quantum simulation of materials; please cite
         "P. Giannozzi et al., J. Phys.:Condens. Matter 21 395502 (2009);
         "P. Giannozzi et al., J. Phys.:Condens. Matter 29 465901 (2017);
         "P. Giannozzi et al., J. Chem. Phys. 152 154105 (2020);
          URL http://www.quantum-espresso.org", 
     in publications or presentations arising from this work. More details at
     http://www.quantum-espresso.org/quote

     Parallel version (MPI), running on    64 processors

     MPI processes distributed on     4 nodes
     465852 MiB available memory on the printing compute node when the environment starts
 
     Reading input from PWINPUT_atm157_yp

     Current dimensions of program PWSCF are:
     Max number of different atomic species (ntypx) = 10
     Max number of k-points (npk) =  40000
     Max angular momentum in pseudopotentials (lmaxx) =  4
     Presently no symmetry can be used with electric field

     file Ni.pbe-n-rrkjus_psl.1.0.0.UPF: wavefunction(s)  3D renormalized
     file Mn.pbe-spn-rrkjus_psl.0.3.1.UPF: wavefunction(s)  3D renormalized
     file O.pbe-rrkjus.UPF: wavefunction(s)  2S renormalized
     file H.pbe-rrkjus.UPF: wavefunction(s)  1S renormalized

     gamma-point specific algorithms are used
 
     R & G space division:  proc/nbgrp/npool/nimage =      64
     Subspace diagonalization in iterative solution of the eigenvalue problem:
     one sub-group per band group will be used
     custom distributed-memory algorithm (size of sub-group:  7*  7 procs)

 
     Parallelization info
     --------------------
     sticks:   dense  smooth     PW     G-vecs:    dense   smooth      PW
     Min         207      82     20                60552    15302    1896
     Max         210      84     22                60574    15336    1950
     Sum       13325    5345   1333              3876045   980655  122653
 
     Using Slab Decomposition
 


     bravais-lattice index     =            0
     lattice parameter (alat)  =      17.4067  a.u.
     unit-cell volume          =   20529.8182 (a.u.)^3
     number of atoms/cell      =          158
     number of atomic types    =            5
     number of electrons       =      1093.00
     number of Kohn-Sham states=          656
     kinetic-energy cutoff     =      50.0000  Ry
     charge density cutoff     =     500.0000  Ry
     scf convergence threshold =      1.0E-06
     mixing beta               =       0.1000
     number of iterations used =            8  local-TF  mixing
     Exchange-correlation=  SLA  PW   PBE  PBE
                           (   1   4   3   4   0   0   0)

     celldm(1)=  17.406729  celldm(2)=   0.000000  celldm(3)=   0.000000
     celldm(4)=   0.000000  celldm(5)=   0.000000  celldm(6)=   0.000000

     crystal axes: (cart. coord. in units of alat)
               a(1) = (   1.000000   0.000000   0.000000 )  
               a(2) = (  -0.001404   1.105696   0.000000 )  
               a(3) = (   0.000000   0.000000   3.520448 )  

     reciprocal axes: (cart. coord. in units 2 pi/alat)
               b(1) = (  1.000000  0.001270  0.000000 )  
               b(2) = (  0.000000  0.904408  0.000000 )  
               b(3) = (  0.000000  0.000000  0.284055 )  


     PseudoPot. # 1 for Ni read from file:
     ~/PSEUDO/Ni.pbe-n-rrkjus_psl.1.0.0.UPF
     MD5 check sum: Not computed, couldn't open file
     Pseudo is Ultrasoft + core correction, Zval = 10.0
     Generated using "atomic" code by A. Dal Corso  v.5.1.2
     Using radial grid of 1195 points,  6 beta functions with: 
                l(1) =   0
                l(2) =   0
                l(3) =   1
                l(4) =   1
                l(5) =   2
                l(6) =   2
     Q(r) pseudized with 0 coefficients 


     PseudoPot. # 2 for Mn read from file:
     ~/PSEUDO/Mn.pbe-spn-rrkjus_psl.0.3.1.UPF
     MD5 check sum: Not computed, couldn't open file
     Pseudo is Ultrasoft + core correction, Zval = 15.0
     Generated using &quot;atomic&quot; code by A. Dal Corso  v.6.2.2
     Using radial grid of 1187 points,  6 beta functions with: 
                l(1) =   0
                l(2) =   0
                l(3) =   1
                l(4) =   1
                l(5) =   2
                l(6) =   2
     Q(r) pseudized with 0 coefficients 


     PseudoPot. # 3 for P  read from file:
     ~/PSEUDO/P.pbe-n-rrkjus_psl.1.0.0.UPF
     MD5 check sum: Not computed, couldn't open file
     Pseudo is Ultrasoft + core correction, Zval =  5.0
     Generated using "atomic" code by A. Dal Corso  v.5.1
     Using radial grid of 1147 points,  6 beta functions with: 
                l(1) =   0
                l(2) =   0
                l(3) =   1
                l(4) =   1
                l(5) =   2
                l(6) =   2
     Q(r) pseudized with 0 coefficients 


     PseudoPot. # 4 for O  read from file:
     ~/PSEUDO/O.pbe-rrkjus.UPF
     MD5 check sum: Not computed, couldn't open file
     Pseudo is Ultrasoft, Zval =  6.0
     Generated by new atomic code, or converted to UPF format
     Using radial grid of 1269 points,  4 beta functions with: 
                l(1) =   0
                l(2) =   0
                l(3) =   1
                l(4) =   1
     Q(r) pseudized with 0 coefficients 


     PseudoPot. # 5 for H  read from file:
     ~/PSEUDO/H.pbe-rrkjus.UPF
     MD5 check sum: Not computed, couldn't open file
     Pseudo is Ultrasoft, Zval =  1.0
     Generated by new atomic code, or converted to UPF format
     Using radial grid of 1061 points,  2 beta functions with: 
                l(1) =   0
                l(2) =   0
     Q(r) pseudized with 0 coefficients 


     atomic species   valence    mass     pseudopotential
     Ni               10.00    58.69300     Ni( 1.00)
     Mn               15.00    54.93800     Mn( 1.00)
     P                 5.00    30.97300     P ( 1.00)
     O                 6.00    15.99900     O ( 1.00)
     H                 1.00     1.00790     H ( 1.00)

     Starting magnetic structure 
     atomic species   magnetization
     Ni              1.000
     Mn              1.000
     P               1.000
     O               1.000
     H               0.000

     No symmetry found



   Cartesian axes

     site n.     atom                  positions (alat units)
         1        Ni     tau(   1) = (   0.2516924   0.8633449   1.7463431  )
         2        Mn     tau(   2) = (   0.4858702   0.7924072   1.4296398  )
         3        Ni     tau(   3) = (  -0.0004960   0.3052069   1.7433305  )
         4        Ni     tau(   4) = (   0.2564981   0.2439079   1.4294353  )
         5        Ni     tau(   5) = (   0.4974217   1.1099092   1.5983921  )
         6        Ni     tau(   6) = (   0.2522981   0.5514414   1.6004118  )
         7        P      tau(   7) = (   0.2082091   1.0035384   1.4306784  )
         8        P      tau(   8) = (   0.4616835   0.6681301   1.7674811  )
         9        P      tau(   9) = (   0.2867076   0.1153356   1.7548632  )
        10        P      tau(  10) = (   0.0394718   0.4432333   1.4316675  )
        11        O      tau(  11) = (   0.1330537   0.9306336   1.5703788  )
        12        O      tau(  12) = (   0.3824580   0.7326833   1.6196685  )
        13        O      tau(  13) = (   0.3632794   0.1756131   1.6084910  )
        14        O      tau(  14) = (   0.1181909   0.3720715   1.5705068  )
        15        O      tau(  15) = (   0.1497429   0.9117647   1.3026676  )
        16        O      tau(  16) = (   0.4024605   0.7699543   1.8833170  )
        17        O      tau(  17) = (   0.3436717   0.2148734   1.8743526  )
        18        O      tau(  18) = (   0.0995925   0.3561393   1.3016093  )
        19        O      tau(  19) = (   0.0985164   0.6018581   1.4374099  )
        20        O      tau(  20) = (   0.3415582   1.0599765   1.7584409  )
        21        O      tau(  21) = (   0.3722969   0.4384776   1.4449122  )
        22        O      tau(  22) = (   0.1186468   0.1181077   1.7426368  )
        23        O      tau(  23) = (   0.1302304   0.6725321   1.7481513  )
        24        O      tau(  24) = (   0.4019428   0.5092918   1.7599288  )
        25        O      tau(  25) = (   0.1467744   0.0543371   1.4323260  )
        26        O      tau(  26) = (   0.3746526   0.9957152   1.4432161  )
        27        Ni     tau(  27) = (   0.2413539   0.8509941   1.1121345  )
        28        Mn     tau(  28) = (   0.4917018   0.7787406   0.7768134  )
        29        Ni     tau(  29) = (   0.0044877   0.2932623   1.1138982  )
        30        Ni     tau(  30) = (   0.2563139   0.2275682   0.7805625  )
        31        Ni     tau(  31) = (   0.4969120   1.0949007   0.9459116  )
        32        Ni     tau(  32) = (   0.2488318   0.5341111   0.9469721  )
        33        P      tau(  33) = (   0.2076029   0.9882917   0.7835381  )
        34        P      tau(  34) = (   0.4577012   0.6460068   1.1076436  )
        35        P      tau(  35) = (   0.2881931   0.0932770   1.1104179  )
        36        P      tau(  36) = (   0.0392916   0.4238898   0.7837243  )
        37        O      tau(  37) = (   0.1306755   0.9148866   0.9233554  )
        38        O      tau(  38) = (   0.3789780   0.7172835   0.9680652  )
        39        O      tau(  39) = (   0.3654852   0.1662865   0.9702638  )
        40        O      tau(  40) = (   0.1163776   0.3546954   0.9254186  )
        41        O      tau(  41) = (   0.1502901   0.8969129   0.6541592  )
        42        O      tau(  42) = (   0.3974525   0.7354243   1.2370031  )
        43        O      tau(  43) = (   0.3483097   0.1789497   1.2412670  )
        44        O      tau(  44) = (   0.0974932   0.3376387   0.6529083  )
        45        O      tau(  45) = (   0.0984699   0.5818903   0.7881021  )
        46        O      tau(  46) = (   0.3459978   1.0405493   1.1018526  )
        47        O      tau(  47) = (   0.3731719   0.4204123   0.7945555  )
        48        O      tau(  48) = (   0.1223503   0.0989699   1.1000566  )
        49        O      tau(  49) = (   0.1235438   0.6536772   1.0980598  )
        50        O      tau(  50) = (   0.4004339   0.4872435   1.1047245  )
        51        O      tau(  51) = (   0.1476543   0.0398268   0.7872561  )
        52        O      tau(  52) = (   0.3728637   0.9843360   0.7931368  )
        53        Ni     tau(  53) = (   0.2406075   0.8410745   0.4603118  )
        54        Mn     tau(  54) = (   0.4909555   0.7688210   0.1249907  )
        55        Ni     tau(  55) = (   0.0037414   0.2833427   0.4620755  )
        56        Ni     tau(  56) = (   0.2555676   0.2176485   0.1287398  )
        57        Ni     tau(  57) = (   0.4961657   1.0849810   0.2940889  )
        58        Ni     tau(  58) = (   0.2480854   0.5241915   0.2951494  )
        59        P      tau(  59) = (   0.2068565   0.9783721   0.1317154  )
        60        P      tau(  60) = (   0.4569549   0.6360871   0.4558210  )
        61        P      tau(  61) = (   0.2874467   0.0833574   0.4585952  )
        62        P      tau(  62) = (   0.0385452   0.4139702   0.1319017  )
        63        O      tau(  63) = (   0.1299291   0.9049669   0.2715327  )
        64        O      tau(  64) = (   0.3782317   0.7073639   0.3162425  )
        65        O      tau(  65) = (   0.3647389   0.1563669   0.3184411  )
        66        O      tau(  66) = (   0.1156313   0.3447757   0.2735959  )
        67        O      tau(  67) = (   0.1495437   0.8869933   0.0023366  )
        68        O      tau(  68) = (   0.3967062   0.7255047   0.5851804  )
        69        O      tau(  69) = (   0.3475634   0.1690300   0.5894443  )
        70        O      tau(  70) = (   0.0967469   0.3277190   0.0010856  )
        71        O      tau(  71) = (   0.0977236   0.5719706   0.1362794  )
        72        O      tau(  72) = (   0.3452514   1.0306297   0.4500300  )
        73        O      tau(  73) = (   0.3724256   0.4104926   0.1427328  )
        74        O      tau(  74) = (   0.1216040   0.0890503   0.4482339  )
        75        O      tau(  75) = (   0.1227974   0.6437575   0.4462371  )
        76        O      tau(  76) = (   0.3996875   0.4773239   0.4529018  )
        77        O      tau(  77) = (   0.1469079   0.0299071   0.1354334  )
        78        O      tau(  78) = (   0.3721173   0.9744163   0.1413141  )
        79        Ni     tau(  79) = (   0.7511442   0.8590986   1.7465183  )
        80        Mn     tau(  80) = (   0.9851786   0.7929476   1.4293410  )
        81        Ni     tau(  81) = (   0.5099060   0.3149023   1.7767454  )
        82        Ni     tau(  82) = (   0.7562539   0.2440975   1.4309243  )
        83        Ni     tau(  83) = (   0.9966662   1.1069876   1.5954472  )
        84        Ni     tau(  84) = (   0.7501035   0.5484652   1.6044081  )
        85        P      tau(  85) = (   0.7074250   1.0033585   1.4315958  )
        86        P      tau(  86) = (   0.9633441   0.6641721   1.7673712  )
        87        P      tau(  87) = (   0.7881158   0.1083139   1.7616461  )
        88        P      tau(  88) = (   0.5391541   0.4408841   1.4350599  )
        89        O      tau(  89) = (   0.6330814   0.9308437   1.5713498  )
        90        O      tau(  90) = (   0.8832988   0.7267971   1.6201843  )
        91        O      tau(  91) = (   0.8626660   0.1747425   1.6135060  )
        92        O      tau(  92) = (   0.6161594   0.3680366   1.5731814  )
        93        O      tau(  93) = (   0.6491944   0.9122217   1.3030297  )
        94        O      tau(  94) = (   0.9010897   0.7628351   1.8841046  )
        95        O      tau(  95) = (   0.8533634   0.2040969   1.8804377  )
        96        O      tau(  96) = (   0.5988697   0.3546669   1.3037880  )
        97        O      tau(  97) = (   0.5982753   0.5999241   1.4409412  )
        98        O      tau(  98) = (   0.8444194   1.0540898   1.7576604  )
        99        O      tau(  99) = (   0.8730497   0.4376093   1.4459304  )
       100        O      tau( 100) = (   0.6208336   0.1136689   1.7512496  )
       101        O      tau( 101) = (   0.6284804   0.6736478   1.7466144  )
       102        O      tau( 102) = (   0.9101301   0.5023464   1.7626648  )
       103        O      tau( 103) = (   0.6477665   0.0546849   1.4347078  )
       104        O      tau( 104) = (   0.8741629   0.9946264   1.4428581  )
       105        Ni     tau( 105) = (   0.7413539   0.8509941   1.1121345  )
       106        Mn     tau( 106) = (   0.9917018   0.7787406   0.7768134  )
       107        Ni     tau( 107) = (   0.5044877   0.2932623   1.1138982  )
       108        Ni     tau( 108) = (   0.7563139   0.2275682   0.7805625  )
       109        Ni     tau( 109) = (   0.9969120   1.0949007   0.9459116  )
       110        Ni     tau( 110) = (   0.7488318   0.5341111   0.9469721  )
       111        P      tau( 111) = (   0.7076029   0.9882917   0.7835381  )
       112        P      tau( 112) = (   0.9577012   0.6460068   1.1076436  )
       113        P      tau( 113) = (   0.7881931   0.0932770   1.1104179  )
       114        P      tau( 114) = (   0.5392916   0.4238898   0.7837243  )
       115        O      tau( 115) = (   0.6306755   0.9148866   0.9233554  )
       116        O      tau( 116) = (   0.8789780   0.7172835   0.9680652  )
       117        O      tau( 117) = (   0.8654852   0.1662865   0.9702638  )
       118        O      tau( 118) = (   0.6163776   0.3546954   0.9254186  )
       119        O      tau( 119) = (   0.6502901   0.8969129   0.6541592  )
       120        O      tau( 120) = (   0.8974525   0.7354243   1.2370031  )
       121        O      tau( 121) = (   0.8483097   0.1789497   1.2412670  )
       122        O      tau( 122) = (   0.5974932   0.3376387   0.6529083  )
       123        O      tau( 123) = (   0.5984699   0.5818903   0.7881021  )
       124        O      tau( 124) = (   0.8459978   1.0405493   1.1018526  )
       125        O      tau( 125) = (   0.8731719   0.4204123   0.7945555  )
       126        O      tau( 126) = (   0.6223503   0.0989699   1.1000566  )
       127        O      tau( 127) = (   0.6235438   0.6536772   1.0980598  )
       128        O      tau( 128) = (   0.9004339   0.4872435   1.1047245  )
       129        O      tau( 129) = (   0.6476543   0.0398268   0.7872561  )
       130        O      tau( 130) = (   0.8728637   0.9843360   0.7931368  )
       131        Ni     tau( 131) = (   0.7406075   0.8410745   0.4603118  )
       132        Mn     tau( 132) = (   0.9909555   0.7688210   0.1249907  )
       133        Ni     tau( 133) = (   0.5037414   0.2833427   0.4620755  )
       134        Ni     tau( 134) = (   0.7555676   0.2176485   0.1287398  )
       135        Ni     tau( 135) = (   0.9961657   1.0849810   0.2940889  )
       136        Ni     tau( 136) = (   0.7480854   0.5241915   0.2951494  )
       137        P      tau( 137) = (   0.7068565   0.9783721   0.1317154  )
       138        P      tau( 138) = (   0.9569549   0.6360871   0.4558210  )
       139        P      tau( 139) = (   0.7874467   0.0833574   0.4585952  )
       140        P      tau( 140) = (   0.5385452   0.4139702   0.1319017  )
       141        O      tau( 141) = (   0.6299291   0.9049669   0.2715327  )
       142        O      tau( 142) = (   0.8782317   0.7073639   0.3162425  )
       143        O      tau( 143) = (   0.8647389   0.1563669   0.3184411  )
       144        O      tau( 144) = (   0.6156313   0.3447757   0.2735959  )
       145        O      tau( 145) = (   0.6495437   0.8869933   0.0023366  )
       146        O      tau( 146) = (   0.8967062   0.7255047   0.5851804  )
       147        O      tau( 147) = (   0.8475634   0.1690300   0.5894443  )
       148        O      tau( 148) = (   0.5967469   0.3277190   0.0010856  )
       149        O      tau( 149) = (   0.5977236   0.5719706   0.1362794  )
       150        O      tau( 150) = (   0.8452514   1.0306297   0.4500300  )
       151        O      tau( 151) = (   0.8724256   0.4104926   0.1427328  )
       152        O      tau( 152) = (   0.6216040   0.0890503   0.4482339  )
       153        O      tau( 153) = (   0.6227974   0.6437575   0.4462371  )
       154        O      tau( 154) = (   0.8996875   0.4773239   0.4529018  )
       155        O      tau( 155) = (   0.6469079   0.0299071   0.1354334  )
       156        O      tau( 156) = (   0.8721173   0.9744163   0.1413141  )
       157        O      tau( 157) = (   0.6257083   0.3981927   1.9134588  )
       158        H      tau( 158) = (   0.7088529   0.3338928   1.9393986  )

     -------------------------------------------------
     Parameters for Dispersion (Grimme-D2) Correction:
     -------------------------------------------------
       atom      VdW radius       C_6     

        Ni         2.952        374.666
        Mn         2.952        374.666
        P          3.222        271.980
        O          2.536         24.284
        H          1.892          4.857

     number of k points=     1  Gaussian smearing, width (Ry)=  0.0100
                       cart. coord. in units 2pi/alat
        k(    1) = (   0.0000000   0.0000000   0.0000000), wk =   1.0000000

     Dense  grid:  1938023 G-vectors     FFT dimensions: ( 125, 144, 450)

     Smooth grid:   490328 G-vectors     FFT dimensions: (  80,  90, 288)

     Estimated max dynamical RAM per process >     326.29 MB

     Estimated total dynamical RAM >      20.39 GB

     Check: negative core charge=   -0.000001
     Generating pointlists ...
     new r_m :   0.0815 (alat units)  1.4187 (a.u.) for type    1
     new r_m :   0.0904 (alat units)  1.5731 (a.u.) for type    2
     new r_m :   0.0681 (alat units)  1.1850 (a.u.) for type    3
     new r_m :   0.0447 (alat units)  0.7773 (a.u.) for type    4
     new r_m :   0.0447 (alat units)  0.7773 (a.u.) for type    5

     Initial potential from superposition of free atoms

     starting charge    1092.8893, renormalised to    1093.0000

     negative rho (up, down):  1.395E-03 4.535E-04
 
     Adding external electric field

     Computed dipole along edir(3) : 
        Dipole                1.6577 Ry au,          4.2136 Debye
        Dipole field          0.0010 Ry au, 
 
        Potential amp.       -0.1119 Ry
        Total length         55.1515 bohr
 
 
     Adding external electric field

     Computed dipole along edir(3) : 
        Dipole                1.6577 Ry au,          4.2136 Debye
        Dipole field          0.0010 Ry au, 
 
        Potential amp.       -0.1119 Ry
        Total length         55.1515 bohr
 
     Starting wfcs are  815 randomized atomic wfcs

     total cpu time spent up to now is       11.8 secs

     Self-consistent Calculation

     iteration #  1     ecut=    50.00 Ry     beta= 0.10
     Davidson diagonalization with overlap
     ethr =  1.00E-02,  avg # of iterations =  6.0

     negative rho (up, down):  3.827E-01 1.553E-06
 
     Adding external electric field

     Computed dipole along edir(3) : 
        Dipole               -3.7521 Ry au,         -9.5369 Debye
        Dipole field         -0.0023 Ry au, 
 
        Potential amp.        0.2533 Ry
        Total length         55.1515 bohr
 
 
     Adding external electric field

     Computed dipole along edir(3) : 
        Dipole               -3.7521 Ry au,         -9.5369 Debye
        Dipole field         -0.0023 Ry au, 
 
        Potential amp.        0.2533 Ry
        Total length         55.1515 bohr
 

     total cpu time spent up to now is       44.1 secs

     total energy              =   -7517.49546854 Ry
     estimated scf accuracy    <     802.32746024 Ry

     total magnetization       =   219.00 Bohr mag/cell
     absolute magnetization    =   307.58 Bohr mag/cell

     iteration #  2     ecut=    50.00 Ry     beta= 0.10
     Davidson diagonalization with overlap
     ethr =  1.00E-02,  avg # of iterations =  2.0

     negative rho (up, down):  3.637E-01 9.131E-07
 
     Adding external electric field

     Computed dipole along edir(3) : 
        Dipole               -2.4729 Ry au,         -6.2856 Debye
        Dipole field         -0.0015 Ry au, 
 
        Potential amp.        0.1670 Ry
        Total length         55.1515 bohr
 
 
     Adding external electric field

     Computed dipole along edir(3) : 
        Dipole               -2.4729 Ry au,         -6.2856 Debye
        Dipole field         -0.0015 Ry au, 
 
        Potential amp.        0.1670 Ry
        Total length         55.1515 bohr
 

     total cpu time spent up to now is       62.8 secs

     total energy              =   -7600.19277488 Ry
     estimated scf accuracy    <     227.69312686 Ry

     total magnetization       =   159.93 Bohr mag/cell
     absolute magnetization    =   208.24 Bohr mag/cell

     iteration #  3     ecut=    50.00 Ry     beta= 0.10
     Davidson diagonalization with overlap
     ethr =  1.00E-02,  avg # of iterations =  1.5

     negative rho (up, down):  3.258E-01 8.848E-07
 
     Adding external electric field

     Computed dipole along edir(3) : 
        Dipole               -2.1569 Ry au,         -5.4824 Debye
        Dipole field         -0.0013 Ry au, 
 
        Potential amp.        0.1456 Ry
        Total length         55.1515 bohr
 
 
     Adding external electric field

     Computed dipole along edir(3) : 
        Dipole               -2.1569 Ry au,         -5.4824 Debye
        Dipole field         -0.0013 Ry au, 
 
        Potential amp.        0.1456 Ry
        Total length         55.1515 bohr
 

     total cpu time spent up to now is       78.2 secs

     total energy              =   -7629.05344724 Ry
     estimated scf accuracy    <     103.13391400 Ry

     total magnetization       =   135.96 Bohr mag/cell
     absolute magnetization    =   186.55 Bohr mag/cell

     iteration #  4     ecut=    50.00 Ry     beta= 0.10
     Davidson diagonalization with overlap
     ethr =  9.44E-03,  avg # of iterations =  1.5

     negative rho (up, down):  2.563E-01 3.302E-07
 
     Adding external electric field

     Computed dipole along edir(3) : 
        Dipole               -1.9740 Ry au,         -5.0174 Debye
        Dipole field         -0.0012 Ry au, 
 
        Potential amp.        0.1333 Ry
        Total length         55.1515 bohr
 
 
     Adding external electric field

     Computed dipole along edir(3) : 
        Dipole               -1.9740 Ry au,         -5.0174 Debye
        Dipole field         -0.0012 Ry au, 
 
        Potential amp.        0.1333 Ry
        Total length         55.1515 bohr
 

     total cpu time spent up to now is       93.1 secs

     total energy              =   -7662.18592880 Ry
     estimated scf accuracy    <      83.25806321 Ry

     total magnetization       =   120.40 Bohr mag/cell
     absolute magnetization    =   172.32 Bohr mag/cell

     iteration #  5     ecut=    50.00 Ry     beta= 0.10
     Davidson diagonalization with overlap
     ethr =  7.62E-03,  avg # of iterations =  1.0

     negative rho (up, down):  4.092E-02 1.136E-07
 
     Adding external electric field

     Computed dipole along edir(3) : 
        Dipole               -1.5605 Ry au,         -3.9663 Debye
        Dipole field         -0.0010 Ry au, 
 
        Potential amp.        0.1054 Ry
        Total length         55.1515 bohr
 
 
     Adding external electric field

     Computed dipole along edir(3) : 
        Dipole               -1.5605 Ry au,         -3.9663 Debye
        Dipole field         -0.0010 Ry au, 
 
        Potential amp.        0.1054 Ry
        Total length         55.1515 bohr
 

     total cpu time spent up to now is      107.7 secs

     total energy              =   -7721.31488163 Ry
     estimated scf accuracy    <      66.57756912 Ry

     total magnetization       =    97.59 Bohr mag/cell
     absolute magnetization    =   153.28 Bohr mag/cell

     iteration #  6     ecut=    50.00 Ry     beta= 0.10
     Davidson diagonalization with overlap
     ethr =  6.09E-03,  avg # of iterations =  1.0

     negative rho (up, down):  9.336E-04 1.642E-03
 
     Adding external electric field

     Computed dipole along edir(3) : 
        Dipole               -1.2006 Ry au,         -3.0516 Debye
        Dipole field         -0.0007 Ry au, 
 
        Potential amp.        0.0811 Ry
        Total length         55.1515 bohr
 
 
     Adding external electric field

     Computed dipole along edir(3) : 
        Dipole               -1.2006 Ry au,         -3.0516 Debye
        Dipole field         -0.0007 Ry au, 
 
        Potential amp.        0.0811 Ry
        Total length         55.1515 bohr
 

     total cpu time spent up to now is      121.5 secs

     total energy              =   -7735.74280825 Ry
     estimated scf accuracy    <      15.82115862 Ry

     total magnetization       =    91.00 Bohr mag/cell
     absolute magnetization    =   126.25 Bohr mag/cell

     iteration #  7     ecut=    50.00 Ry     beta= 0.10
     Davidson diagonalization with overlap
     ethr =  1.45E-03,  avg # of iterations =  6.0

     negative rho (up, down):  9.093E-04 1.611E-03
 
     Adding external electric field

     Computed dipole along edir(3) : 
        Dipole               -1.2070 Ry au,         -3.0680 Debye
        Dipole field         -0.0007 Ry au, 
 
        Potential amp.        0.0815 Ry
        Total length         55.1515 bohr
 
 
     Adding external electric field

     Computed dipole along edir(3) : 
        Dipole               -1.2070 Ry au,         -3.0680 Debye
        Dipole field         -0.0007 Ry au, 
 
        Potential amp.        0.0815 Ry
        Total length         55.1515 bohr
 

     total cpu time spent up to now is      145.5 secs

     total energy              =   -7738.26223157 Ry
     estimated scf accuracy    <      19.71474893 Ry

     total magnetization       =    70.65 Bohr mag/cell
     absolute magnetization    =    87.86 Bohr mag/cell

     iteration #  8     ecut=    50.00 Ry     beta= 0.10
     Davidson diagonalization with overlap
     ethr =  1.45E-03,  avg # of iterations =  1.0

     negative rho (up, down):  9.241E-04 1.629E-03
 
     Adding external electric field

     Computed dipole along edir(3) : 
        Dipole               -1.2030 Ry au,         -3.0576 Debye
        Dipole field         -0.0007 Ry au, 
 
        Potential amp.        0.0812 Ry
        Total length         55.1515 bohr
 
 
     Adding external electric field

     Computed dipole along edir(3) : 
        Dipole               -1.2030 Ry au,         -3.0576 Debye
        Dipole field         -0.0007 Ry au, 
 
        Potential amp.        0.0812 Ry
        Total length         55.1515 bohr
 

     total cpu time spent up to now is      161.0 secs

     total energy              =   -7738.35131028 Ry
     estimated scf accuracy    <      19.27888132 Ry

     total magnetization       =    70.80 Bohr mag/cell
     absolute magnetization    =    87.57 Bohr mag/cell

     iteration #  9     ecut=    50.00 Ry     beta= 0.10
     Davidson diagonalization with overlap
     ethr =  1.45E-03,  avg # of iterations =  1.0

     negative rho (up, down):  7.481E-04 1.356E-03
 
     Adding external electric field

     Computed dipole along edir(3) : 
        Dipole               -1.2693 Ry au,         -3.2263 Debye
        Dipole field         -0.0008 Ry au, 
 
        Potential amp.        0.0857 Ry
        Total length         55.1515 bohr
 
 
     Adding external electric field

     Computed dipole along edir(3) : 
        Dipole               -1.2693 Ry au,         -3.2263 Debye
        Dipole field         -0.0008 Ry au, 
 
        Potential amp.        0.0857 Ry
        Total length         55.1515 bohr
 

     total cpu time spent up to now is      174.3 secs

     total energy              =   -7738.04960408 Ry
     estimated scf accuracy    <      19.95658153 Ry

     total magnetization       =    70.56 Bohr mag/cell
     absolute magnetization    =    87.08 Bohr mag/cell

     iteration # 10     ecut=    50.00 Ry     beta= 0.10
     Davidson diagonalization with overlap
     ethr =  1.45E-03,  avg # of iterations =  1.0

     negative rho (up, down):  9.317E-04 1.839E-03
 
     Adding external electric field

     Computed dipole along edir(3) : 
        Dipole               -1.5305 Ry au,         -3.8901 Debye
        Dipole field         -0.0009 Ry au, 
 
        Potential amp.        0.1033 Ry
        Total length         55.1515 bohr
 
 
     Adding external electric field

     Computed dipole along edir(3) : 
        Dipole               -1.5305 Ry au,         -3.8901 Debye
        Dipole field         -0.0009 Ry au, 
 
        Potential amp.        0.1033 Ry
        Total length         55.1515 bohr
 

     total cpu time spent up to now is      187.6 secs

     total energy              =   -7737.24639263 Ry
     estimated scf accuracy    <      15.35334654 Ry

     total magnetization       =    71.53 Bohr mag/cell
     absolute magnetization    =    86.74 Bohr mag/cell

     iteration # 11     ecut=    50.00 Ry     beta= 0.10
     Davidson diagonalization with overlap
     ethr =  1.40E-03,  avg # of iterations =  2.0

     negative rho (up, down):  6.252E-04 1.411E-03
 
     Adding external electric field

     Computed dipole along edir(3) : 
        Dipole               -1.4777 Ry au,         -3.7558 Debye
        Dipole field         -0.0009 Ry au, 
 
        Potential amp.        0.0998 Ry
        Total length         55.1515 bohr
 
 
     Adding external electric field

     Computed dipole along edir(3) : 
        Dipole               -1.4777 Ry au,         -3.7558 Debye
        Dipole field         -0.0009 Ry au, 
 
        Potential amp.        0.0998 Ry
        Total length         55.1515 bohr
 

     total cpu time spent up to now is      203.2 secs

     total energy              =   -7737.94933837 Ry
     estimated scf accuracy    <       1.16143818 Ry

     total magnetization       =    89.48 Bohr mag/cell
     absolute magnetization    =    98.91 Bohr mag/cell

     iteration # 12     ecut=    50.00 Ry     beta= 0.10
     Davidson diagonalization with overlap
     ethr =  1.06E-04,  avg # of iterations = 12.5

     negative rho (up, down):  4.748E-04 1.180E-03
 
     Adding external electric field

     Computed dipole along edir(3) : 
        Dipole               -1.4097 Ry au,         -3.5830 Debye
        Dipole field         -0.0009 Ry au, 
 
        Potential amp.        0.0952 Ry
        Total length         55.1515 bohr
 
 
     Adding external electric field

     Computed dipole along edir(3) : 
        Dipole               -1.4097 Ry au,         -3.5830 Debye
        Dipole field         -0.0009 Ry au, 
 
        Potential amp.        0.0952 Ry
        Total length         55.1515 bohr
 

     total cpu time spent up to now is      227.0 secs

     total energy              =   -7737.92185402 Ry
     estimated scf accuracy    <       1.10458958 Ry

     total magnetization       =    88.73 Bohr mag/cell
     absolute magnetization    =    97.74 Bohr mag/cell

     iteration # 13     ecut=    50.00 Ry     beta= 0.10
     Davidson diagonalization with overlap
     ethr =  1.01E-04,  avg # of iterations =  1.5

     negative rho (up, down):  5.428E-04 1.366E-03
 
     Adding external electric field

     Computed dipole along edir(3) : 
        Dipole               -1.4448 Ry au,         -3.6722 Debye
        Dipole field         -0.0009 Ry au, 
 
        Potential amp.        0.0975 Ry
        Total length         55.1515 bohr
 
 
     Adding external electric field

     Computed dipole along edir(3) : 
        Dipole               -1.4448 Ry au,         -3.6722 Debye
        Dipole field         -0.0009 Ry au, 
 
        Potential amp.        0.0975 Ry
        Total length         55.1515 bohr
 

     total cpu time spent up to now is      240.6 secs

     total energy              =   -7737.94098118 Ry
     estimated scf accuracy    <       1.88799845 Ry

     total magnetization       =    86.33 Bohr mag/cell
     absolute magnetization    =    95.61 Bohr mag/cell

     iteration # 14     ecut=    50.00 Ry     beta= 0.10
     Davidson diagonalization with overlap
     ethr =  1.01E-04,  avg # of iterations =  1.5

     negative rho (up, down):  4.564E-04 1.057E-03
 
     Adding external electric field

     Computed dipole along edir(3) : 
        Dipole               -1.4891 Ry au,         -3.7849 Debye
        Dipole field         -0.0009 Ry au, 
 
        Potential amp.        0.1005 Ry
        Total length         55.1515 bohr
 
 
     Adding external electric field

     Computed dipole along edir(3) : 
        Dipole               -1.4891 Ry au,         -3.7849 Debye
        Dipole field         -0.0009 Ry au, 
 
        Potential amp.        0.1005 Ry
        Total length         55.1515 bohr
 

     total cpu time spent up to now is      255.2 secs

     total energy              =   -7738.00667329 Ry
     estimated scf accuracy    <       1.16954995 Ry

     total magnetization       =    88.14 Bohr mag/cell
     absolute magnetization    =    96.87 Bohr mag/cell

     iteration # 15     ecut=    50.00 Ry     beta= 0.10
     Davidson diagonalization with overlap
     ethr =  1.01E-04,  avg # of iterations =  1.0

     negative rho (up, down):  4.596E-04 7.325E-04
 
     Adding external electric field

     Computed dipole along edir(3) : 
        Dipole               -1.5402 Ry au,         -3.9148 Debye
        Dipole field         -0.0009 Ry au, 
 
        Potential amp.        0.1040 Ry
        Total length         55.1515 bohr
 
 
     Adding external electric field

     Computed dipole along edir(3) : 
        Dipole               -1.5402 Ry au,         -3.9148 Debye
        Dipole field         -0.0009 Ry au, 
 
        Potential amp.        0.1040 Ry
        Total length         55.1515 bohr
 

     total cpu time spent up to now is      268.3 secs

     total energy              =   -7738.05650777 Ry
     estimated scf accuracy    <       1.16088190 Ry

     total magnetization       =    88.12 Bohr mag/cell
     absolute magnetization    =    96.41 Bohr mag/cell

     iteration # 16     ecut=    50.00 Ry     beta= 0.10
     Davidson diagonalization with overlap
     ethr =  1.01E-04,  avg # of iterations =  1.5

     negative rho (up, down):  4.688E-04 5.990E-04
 
     Adding external electric field

     Computed dipole along edir(3) : 
        Dipole               -1.5821 Ry au,         -4.0213 Debye
        Dipole field         -0.0010 Ry au, 
 
        Potential amp.        0.1068 Ry
        Total length         55.1515 bohr
 
 
     Adding external electric field

     Computed dipole along edir(3) : 
        Dipole               -1.5821 Ry au,         -4.0213 Debye
        Dipole field         -0.0010 Ry au, 
 
        Potential amp.        0.1068 Ry
        Total length         55.1515 bohr
 

     total cpu time spent up to now is      282.4 secs

     total energy              =   -7738.10336909 Ry
     estimated scf accuracy    <       1.36602077 Ry

     total magnetization       =    87.84 Bohr mag/cell
     absolute magnetization    =    96.17 Bohr mag/cell

     iteration # 17     ecut=    50.00 Ry     beta= 0.10
     Davidson diagonalization with overlap
     ethr =  1.01E-04,  avg # of iterations =  1.0

     negative rho (up, down):  6.784E-04 8.148E-04
 
     Adding external electric field

     Computed dipole along edir(3) : 
        Dipole               -1.6848 Ry au,         -4.2824 Debye
        Dipole field         -0.0010 Ry au, 
 
        Potential amp.        0.1138 Ry
        Total length         55.1515 bohr
 
 
     Adding external electric field

     Computed dipole along edir(3) : 
        Dipole               -1.6848 Ry au,         -4.2824 Debye
        Dipole field         -0.0010 Ry au, 
 
        Potential amp.        0.1138 Ry
        Total length         55.1515 bohr
 

     total cpu time spent up to now is      295.7 secs

     total energy              =   -7738.19354372 Ry
     estimated scf accuracy    <       2.39942249 Ry

     total magnetization       =    86.57 Bohr mag/cell
     absolute magnetization    =    94.84 Bohr mag/cell

     iteration # 18     ecut=    50.00 Ry     beta= 0.10
     Davidson diagonalization with overlap
     ethr =  1.01E-04,  avg # of iterations =  1.5

     negative rho (up, down):  6.106E-04 8.681E-04
 
     Adding external electric field

     Computed dipole along edir(3) : 
        Dipole               -1.8363 Ry au,         -4.6673 Debye
        Dipole field         -0.0011 Ry au, 
 
        Potential amp.        0.1240 Ry
        Total length         55.1515 bohr
 
 
     Adding external electric field

     Computed dipole along edir(3) : 
        Dipole               -1.8363 Ry au,         -4.6673 Debye
        Dipole field         -0.0011 Ry au, 
 
        Potential amp.        0.1240 Ry
        Total length         55.1515 bohr
 

     total cpu time spent up to now is      309.5 secs

     total energy              =   -7738.30824162 Ry
     estimated scf accuracy    <       2.88923634 Ry

     total magnetization       =    86.37 Bohr mag/cell
     absolute magnetization    =    93.84 Bohr mag/cell

     iteration # 19     ecut=    50.00 Ry     beta= 0.10
     Davidson diagonalization with overlap
     ethr =  1.01E-04,  avg # of iterations =  1.0

     negative rho (up, down):  4.022E-04 4.519E-04
 
     Adding external electric field

     Computed dipole along edir(3) : 
        Dipole               -1.7588 Ry au,         -4.4705 Debye
        Dipole field         -0.0011 Ry au, 
 
        Potential amp.        0.1188 Ry
        Total length         55.1515 bohr
 
 
     Adding external electric field

     Computed dipole along edir(3) : 
        Dipole               -1.7588 Ry au,         -4.4705 Debye
        Dipole field         -0.0011 Ry au, 
 
        Potential amp.        0.1188 Ry
        Total length         55.1515 bohr
 

     total cpu time spent up to now is      322.4 secs

     total energy              =   -7738.20910016 Ry
     estimated scf accuracy    <       4.11581360 Ry

     total magnetization       =    85.61 Bohr mag/cell
     absolute magnetization    =    90.95 Bohr mag/cell

     iteration # 20     ecut=    50.00 Ry     beta= 0.10
     Davidson diagonalization with overlap
     ethr =  1.01E-04,  avg # of iterations =  2.0

     negative rho (up, down):  1.135E-03 1.335E-03
 
     Adding external electric field

     Computed dipole along edir(3) : 
        Dipole               -1.7303 Ry au,         -4.3979 Debye
        Dipole field         -0.0011 Ry au, 
 
        Potential amp.        0.1168 Ry
        Total length         55.1515 bohr
 
 
     Adding external electric field

     Computed dipole along edir(3) : 
        Dipole               -1.7303 Ry au,         -4.3979 Debye
        Dipole field         -0.0011 Ry au, 
 
        Potential amp.        0.1168 Ry
        Total length         55.1515 bohr
 

     total cpu time spent up to now is      337.5 secs

     total energy              =   -7738.19974641 Ry
     estimated scf accuracy    <       3.20069432 Ry

     total magnetization       =    85.73 Bohr mag/cell
     absolute magnetization    =    91.31 Bohr mag/cell

     iteration # 21     ecut=    50.00 Ry     beta= 0.10
     Davidson diagonalization with overlap
     ethr =  1.01E-04,  avg # of iterations =  1.0

     negative rho (up, down):  1.546E-03 1.893E-03
 
     Adding external electric field

     Computed dipole along edir(3) : 
        Dipole               -1.7686 Ry au,         -4.4953 Debye
        Dipole field         -0.0011 Ry au, 
 
        Potential amp.        0.1194 Ry
        Total length         55.1515 bohr
 
 
     Adding external electric field

     Computed dipole along edir(3) : 
        Dipole               -1.7686 Ry au,         -4.4953 Debye
        Dipole field         -0.0011 Ry au, 
 
        Potential amp.        0.1194 Ry
        Total length         55.1515 bohr
 

     total cpu time spent up to now is      350.0 secs

     total energy              =   -7738.27399776 Ry
     estimated scf accuracy    <       0.91015609 Ry

     total magnetization       =    87.38 Bohr mag/cell
     absolute magnetization    =    92.54 Bohr mag/cell

     iteration # 22     ecut=    50.00 Ry     beta= 0.10
     Davidson diagonalization with overlap
     ethr =  8.33E-05,  avg # of iterations =  1.5

     negative rho (up, down):  5.792E-03 6.989E-03
 
     Adding external electric field

     Computed dipole along edir(3) : 
        Dipole               -1.5709 Ry au,         -3.9928 Debye
        Dipole field         -0.0010 Ry au, 
 
        Potential amp.        0.1061 Ry
        Total length         55.1515 bohr
 
 
     Adding external electric field

     Computed dipole along edir(3) : 
        Dipole               -1.5709 Ry au,         -3.9928 Debye
        Dipole field         -0.0010 Ry au, 
 
        Potential amp.        0.1061 Ry
        Total length         55.1515 bohr
 

     total cpu time spent up to now is      363.6 secs

     total energy              =   -7738.27245008 Ry
     estimated scf accuracy    <       0.72529201 Ry

     total magnetization       =    87.94 Bohr mag/cell
     absolute magnetization    =    91.62 Bohr mag/cell

     iteration # 23     ecut=    50.00 Ry     beta= 0.10
     Davidson diagonalization with overlap
     ethr =  6.64E-05,  avg # of iterations =  2.0

     negative rho (up, down):  3.671E-03 4.589E-03
 
     Adding external electric field

     Computed dipole along edir(3) : 
        Dipole               -1.6255 Ry au,         -4.1315 Debye
        Dipole field         -0.0010 Ry au, 
 
        Potential amp.        0.1097 Ry
        Total length         55.1515 bohr
 
 
     Adding external electric field

     Computed dipole along edir(3) : 
        Dipole               -1.6255 Ry au,         -4.1315 Debye
        Dipole field         -0.0010 Ry au, 
 
        Potential amp.        0.1097 Ry
        Total length         55.1515 bohr
 

     total cpu time spent up to now is      379.1 secs

     total energy              =   -7738.28748604 Ry
     estimated scf accuracy    <       0.49596100 Ry

     total magnetization       =    86.49 Bohr mag/cell
     absolute magnetization    =    89.00 Bohr mag/cell

     iteration # 24     ecut=    50.00 Ry     beta= 0.10
     Davidson diagonalization with overlap
     ethr =  4.54E-05,  avg # of iterations =  1.5

     negative rho (up, down):  2.016E-03 2.590E-03
 
     Adding external electric field

     Computed dipole along edir(3) : 
        Dipole               -1.3867 Ry au,         -3.5246 Debye
        Dipole field         -0.0008 Ry au, 
 
        Potential amp.        0.0936 Ry
        Total length         55.1515 bohr
 
 
     Adding external electric field

     Computed dipole along edir(3) : 
        Dipole               -1.3867 Ry au,         -3.5246 Debye
        Dipole field         -0.0008 Ry au, 
 
        Potential amp.        0.0936 Ry
        Total length         55.1515 bohr
 

     total cpu time spent up to now is      392.2 secs

     total energy              =   -7738.30992960 Ry
     estimated scf accuracy    <       0.09307051 Ry

     total magnetization       =    88.81 Bohr mag/cell
     absolute magnetization    =    91.17 Bohr mag/cell

     iteration # 25     ecut=    50.00 Ry     beta= 0.10
     Davidson diagonalization with overlap
     c_bands:  4 eigenvalues not converged
     ethr =  8.52E-06,  avg # of iterations = 11.5

     negative rho (up, down):  1.542E-03 1.894E-03
 
     Adding external electric field

     Computed dipole along edir(3) : 
        Dipole               -1.3998 Ry au,         -3.5580 Debye
        Dipole field         -0.0009 Ry au, 
 
        Potential amp.        0.0945 Ry
        Total length         55.1515 bohr
 
 
     Adding external electric field

     Computed dipole along edir(3) : 
        Dipole               -1.3998 Ry au,         -3.5580 Debye
        Dipole field         -0.0009 Ry au, 
 
        Potential amp.        0.0945 Ry
        Total length         55.1515 bohr
 

     total cpu time spent up to now is      417.2 secs

     total energy              =   -7738.31451127 Ry
     estimated scf accuracy    <       0.12897439 Ry

     total magnetization       =    88.02 Bohr mag/cell
     absolute magnetization    =    90.02 Bohr mag/cell

     iteration # 26     ecut=    50.00 Ry     beta= 0.10
     Davidson diagonalization with overlap
     ethr =  8.52E-06,  avg # of iterations =  2.0

     negative rho (up, down):  2.414E-03 2.667E-03
 
     Adding external electric field

     Computed dipole along edir(3) : 
        Dipole               -1.3720 Ry au,         -3.4873 Debye
        Dipole field         -0.0008 Ry au, 
 
        Potential amp.        0.0926 Ry
        Total length         55.1515 bohr
 
 
     Adding external electric field

     Computed dipole along edir(3) : 
        Dipole               -1.3720 Ry au,         -3.4873 Debye
        Dipole field         -0.0008 Ry au, 
 
        Potential amp.        0.0926 Ry
        Total length         55.1515 bohr
 

     total cpu time spent up to now is      431.7 secs

     total energy              =   -7738.32026963 Ry
     estimated scf accuracy    <       0.06438123 Ry

     total magnetization       =    89.10 Bohr mag/cell
     absolute magnetization    =    90.95 Bohr mag/cell

     iteration # 27     ecut=    50.00 Ry     beta= 0.10
     Davidson diagonalization with overlap
     ethr =  5.89E-06,  avg # of iterations =  1.5

     negative rho (up, down):  2.061E-03 2.258E-03
 
     Adding external electric field

     Computed dipole along edir(3) : 
        Dipole               -1.3182 Ry au,         -3.3506 Debye
        Dipole field         -0.0008 Ry au, 
 
        Potential amp.        0.0890 Ry
        Total length         55.1515 bohr
 
 
     Adding external electric field

     Computed dipole along edir(3) : 
        Dipole               -1.3182 Ry au,         -3.3506 Debye
        Dipole field         -0.0008 Ry au, 
 
        Potential amp.        0.0890 Ry
        Total length         55.1515 bohr
 

     total cpu time spent up to now is      445.7 secs

     total energy              =   -7738.32131378 Ry
     estimated scf accuracy    <       0.05259892 Ry

     total magnetization       =    88.70 Bohr mag/cell
     absolute magnetization    =    90.33 Bohr mag/cell

     iteration # 28     ecut=    50.00 Ry     beta= 0.10
     Davidson diagonalization with overlap
     ethr =  4.81E-06,  avg # of iterations =  2.0

     negative rho (up, down):  1.122E-03 1.311E-03
 
     Adding external electric field

     Computed dipole along edir(3) : 
        Dipole               -1.1884 Ry au,         -3.0206 Debye
        Dipole field         -0.0007 Ry au, 
 
        Potential amp.        0.0802 Ry
        Total length         55.1515 bohr
 
 
     Adding external electric field

     Computed dipole along edir(3) : 
        Dipole               -1.1884 Ry au,         -3.0206 Debye
        Dipole field         -0.0007 Ry au, 
 
        Potential amp.        0.0802 Ry
        Total length         55.1515 bohr
 

     total cpu time spent up to now is      460.4 secs

     total energy              =   -7738.32066470 Ry
     estimated scf accuracy    <       0.05309673 Ry

     total magnetization       =    88.68 Bohr mag/cell
     absolute magnetization    =    90.14 Bohr mag/cell

     iteration # 29     ecut=    50.00 Ry     beta= 0.10
     Davidson diagonalization with overlap
     c_bands:  1 eigenvalues not converged
     ethr =  4.81E-06,  avg # of iterations = 20.5

     negative rho (up, down):  1.160E-03 1.070E-03
 
     Adding external electric field

     Computed dipole along edir(3) : 
        Dipole               -1.1970 Ry au,         -3.0424 Debye
        Dipole field         -0.0007 Ry au, 
 
        Potential amp.        0.0808 Ry
        Total length         55.1515 bohr
 
 
     Adding external electric field

     Computed dipole along edir(3) : 
        Dipole               -1.1970 Ry au,         -3.0424 Debye
        Dipole field         -0.0007 Ry au, 
 
        Potential amp.        0.0808 Ry
        Total length         55.1515 bohr
 

     total cpu time spent up to now is      492.1 secs

     total energy              =   -7738.32130973 Ry
     estimated scf accuracy    <       0.08875936 Ry

     total magnetization       =    88.71 Bohr mag/cell
     absolute magnetization    =    90.02 Bohr mag/cell

     iteration # 30     ecut=    50.00 Ry     beta= 0.10
     Davidson diagonalization with overlap
     ethr =  4.81E-06,  avg # of iterations =  2.5

     negative rho (up, down):  5.903E-04 6.853E-04
 
     Adding external electric field

     Computed dipole along edir(3) : 
        Dipole               -1.1654 Ry au,         -2.9621 Debye
        Dipole field         -0.0007 Ry au, 
 
        Potential amp.        0.0787 Ry
        Total length         55.1515 bohr
 
 
     Adding external electric field

     Computed dipole along edir(3) : 
        Dipole               -1.1654 Ry au,         -2.9621 Debye
        Dipole field         -0.0007 Ry au, 
 
        Potential amp.        0.0787 Ry
        Total length         55.1515 bohr
 

     total cpu time spent up to now is      506.6 secs

     total energy              =   -7738.32124826 Ry
     estimated scf accuracy    <       0.11552759 Ry

     total magnetization       =    88.61 Bohr mag/cell
     absolute magnetization    =    89.91 Bohr mag/cell

     iteration # 31     ecut=    50.00 Ry     beta= 0.10
     Davidson diagonalization with overlap
     ethr =  4.81E-06,  avg # of iterations =  1.5

     negative rho (up, down):  8.359E-04 9.074E-04
 
     Adding external electric field

     Computed dipole along edir(3) : 
        Dipole               -1.1760 Ry au,         -2.9891 Debye
        Dipole field         -0.0007 Ry au, 
 
        Potential amp.        0.0794 Ry
        Total length         55.1515 bohr
 
 
     Adding external electric field

     Computed dipole along edir(3) : 
        Dipole               -1.1760 Ry au,         -2.9891 Debye
        Dipole field         -0.0007 Ry au, 
 
        Potential amp.        0.0794 Ry
        Total length         55.1515 bohr
 

     total cpu time spent up to now is      520.7 secs

     total energy              =   -7738.32152516 Ry
     estimated scf accuracy    <       0.10097978 Ry

     total magnetization       =    88.82 Bohr mag/cell
     absolute magnetization    =    90.10 Bohr mag/cell

     iteration # 32     ecut=    50.00 Ry     beta= 0.10
     Davidson diagonalization with overlap
     ethr =  4.81E-06,  avg # of iterations =  1.5

     negative rho (up, down):  4.747E-04 5.713E-04
 
     Adding external electric field

     Computed dipole along edir(3) : 
        Dipole               -1.0694 Ry au,         -2.7181 Debye
        Dipole field         -0.0007 Ry au, 
 
        Potential amp.        0.0722 Ry
        Total length         55.1515 bohr
 
 
     Adding external electric field

     Computed dipole along edir(3) : 
        Dipole               -1.0694 Ry au,         -2.7181 Debye
        Dipole field         -0.0007 Ry au, 
 
        Potential amp.        0.0722 Ry
        Total length         55.1515 bohr
 

     total cpu time spent up to now is      534.8 secs

     total energy              =   -7738.32051249 Ry
     estimated scf accuracy    <       0.10048164 Ry

     total magnetization       =    88.78 Bohr mag/cell
     absolute magnetization    =    90.04 Bohr mag/cell

     iteration # 33     ecut=    50.00 Ry     beta= 0.10
     Davidson diagonalization with overlap
     ethr =  4.81E-06,  avg # of iterations =  2.0

     negative rho (up, down):  1.897E-03 2.067E-03
 
     Adding external electric field

     Computed dipole along edir(3) : 
        Dipole               -1.1847 Ry au,         -3.0111 Debye
        Dipole field         -0.0007 Ry au, 
 
        Potential amp.        0.0800 Ry
        Total length         55.1515 bohr
 
 
     Adding external electric field

     Computed dipole along edir(3) : 
        Dipole               -1.1847 Ry au,         -3.0111 Debye
        Dipole field         -0.0007 Ry au, 
 
        Potential amp.        0.0800 Ry
        Total length         55.1515 bohr
 

     total cpu time spent up to now is      548.8 secs

     total energy              =   -7738.31938466 Ry
     estimated scf accuracy    <       0.11534325 Ry

     total magnetization       =    88.36 Bohr mag/cell
     absolute magnetization    =    89.67 Bohr mag/cell

     iteration # 34     ecut=    50.00 Ry     beta= 0.10
     Davidson diagonalization with overlap
     ethr =  4.81E-06,  avg # of iterations =  1.5

     negative rho (up, down):  1.990E-03 1.885E-03
 
     Adding external electric field

     Computed dipole along edir(3) : 
        Dipole               -0.9597 Ry au,         -2.4392 Debye
        Dipole field         -0.0006 Ry au, 
 
        Potential amp.        0.0648 Ry
        Total length         55.1515 bohr
 
 
     Adding external electric field

     Computed dipole along edir(3) : 
        Dipole               -0.9597 Ry au,         -2.4392 Debye
        Dipole field         -0.0006 Ry au, 
 
        Potential amp.        0.0648 Ry
        Total length         55.1515 bohr
 

     total cpu time spent up to now is      562.8 secs

     total energy              =   -7738.31919742 Ry
     estimated scf accuracy    <       0.03558919 Ry

     total magnetization       =    88.65 Bohr mag/cell
     absolute magnetization    =    90.11 Bohr mag/cell

     iteration # 35     ecut=    50.00 Ry     beta= 0.10
     Davidson diagonalization with overlap
     ethr =  3.26E-06,  avg # of iterations =  2.5

     negative rho (up, down):  2.159E-03 2.086E-03
 
     Adding external electric field

     Computed dipole along edir(3) : 
        Dipole               -0.8721 Ry au,         -2.2167 Debye
        Dipole field         -0.0005 Ry au, 
 
        Potential amp.        0.0589 Ry
        Total length         55.1515 bohr
 
 
     Adding external electric field

     Computed dipole along edir(3) : 
        Dipole               -0.8721 Ry au,         -2.2167 Debye
        Dipole field         -0.0005 Ry au, 
 
        Potential amp.        0.0589 Ry
        Total length         55.1515 bohr
 

     total cpu time spent up to now is      579.0 secs

     total energy              =   -7738.31888451 Ry
     estimated scf accuracy    <       0.03314999 Ry

     total magnetization       =    88.79 Bohr mag/cell
     absolute magnetization    =    90.26 Bohr mag/cell

     iteration # 36     ecut=    50.00 Ry     beta= 0.10
     Davidson diagonalization with overlap
     ethr =  3.03E-06,  avg # of iterations =  1.5

     negative rho (up, down):  2.103E-03 2.023E-03
 
     Adding external electric field

     Computed dipole along edir(3) : 
        Dipole               -0.8811 Ry au,         -2.2397 Debye
        Dipole field         -0.0005 Ry au, 
 
        Potential amp.        0.0595 Ry
        Total length         55.1515 bohr
 
 
     Adding external electric field

     Computed dipole along edir(3) : 
        Dipole               -0.8811 Ry au,         -2.2397 Debye
        Dipole field         -0.0005 Ry au, 
 
        Potential amp.        0.0595 Ry
        Total length         55.1515 bohr
 

     total cpu time spent up to now is      593.2 secs

     total energy              =   -7738.31910476 Ry
     estimated scf accuracy    <       0.03183718 Ry

     total magnetization       =    88.74 Bohr mag/cell
     absolute magnetization    =    90.23 Bohr mag/cell

     iteration # 37     ecut=    50.00 Ry     beta= 0.10
     Davidson diagonalization with overlap
     ethr =  2.91E-06,  avg # of iterations =  1.5

     negative rho (up, down):  2.695E-03 2.591E-03
 
     Adding external electric field

     Computed dipole along edir(3) : 
        Dipole               -0.6845 Ry au,         -1.7398 Debye
        Dipole field         -0.0004 Ry au, 
 
        Potential amp.        0.0462 Ry
        Total length         55.1515 bohr
 
 
     Adding external electric field

     Computed dipole along edir(3) : 
        Dipole               -0.6845 Ry au,         -1.7398 Debye
        Dipole field         -0.0004 Ry au, 
 
        Potential amp.        0.0462 Ry
        Total length         55.1515 bohr
 

     total cpu time spent up to now is      607.0 secs

     total energy              =   -7738.31777012 Ry
     estimated scf accuracy    <       0.03286484 Ry

     total magnetization       =    88.74 Bohr mag/cell
     absolute magnetization    =    90.23 Bohr mag/cell

     iteration # 38     ecut=    50.00 Ry     beta= 0.10
     Davidson diagonalization with overlap
     ethr =  2.91E-06,  avg # of iterations =  3.0

     negative rho (up, down):  1.813E-03 1.900E-03
 
     Adding external electric field

     Computed dipole along edir(3) : 
        Dipole               -0.6327 Ry au,         -1.6082 Debye
        Dipole field         -0.0004 Ry au, 
 
        Potential amp.        0.0427 Ry
        Total length         55.1515 bohr
 
 
     Adding external electric field

     Computed dipole along edir(3) : 
        Dipole               -0.6327 Ry au,         -1.6082 Debye
        Dipole field         -0.0004 Ry au, 
 
        Potential amp.        0.0427 Ry
        Total length         55.1515 bohr
 

     total cpu time spent up to now is      621.6 secs

     total energy              =   -7738.31733027 Ry
     estimated scf accuracy    <       0.02018424 Ry

     total magnetization       =    88.74 Bohr mag/cell
     absolute magnetization    =    90.22 Bohr mag/cell

     iteration # 39     ecut=    50.00 Ry     beta= 0.10
     Davidson diagonalization with overlap
     c_bands:  1 eigenvalues not converged
     ethr =  1.85E-06,  avg # of iterations = 14.5

     negative rho (up, down):  2.721E-03 2.980E-03
 
     Adding external electric field

     Computed dipole along edir(3) : 
        Dipole               -0.5346 Ry au,         -1.3588 Debye
        Dipole field         -0.0003 Ry au, 
 
        Potential amp.        0.0361 Ry
        Total length         55.1515 bohr
 
 
     Adding external electric field

     Computed dipole along edir(3) : 
        Dipole               -0.5346 Ry au,         -1.3588 Debye
        Dipole field         -0.0003 Ry au, 
 
        Potential amp.        0.0361 Ry
        Total length         55.1515 bohr
 

     total cpu time spent up to now is      643.7 secs

     total energy              =   -7738.31714190 Ry
     estimated scf accuracy    <       0.01348675 Ry

     total magnetization       =    88.75 Bohr mag/cell
     absolute magnetization    =    90.11 Bohr mag/cell

     iteration # 40     ecut=    50.00 Ry     beta= 0.10
     Davidson diagonalization with overlap
     c_bands:  1 eigenvalues not converged
     ethr =  1.23E-06,  avg # of iterations = 11.0

     negative rho (up, down):  3.583E-03 3.863E-03
 
     Adding external electric field

     Computed dipole along edir(3) : 
        Dipole               -0.5024 Ry au,         -1.2769 Debye
        Dipole field         -0.0003 Ry au, 
 
        Potential amp.        0.0339 Ry
        Total length         55.1515 bohr
 
 
     Adding external electric field

     Computed dipole along edir(3) : 
        Dipole               -0.5024 Ry au,         -1.2769 Debye
        Dipole field         -0.0003 Ry au, 
 
        Potential amp.        0.0339 Ry
        Total length         55.1515 bohr
 

     total cpu time spent up to now is      664.3 secs

     total energy              =   -7738.31702243 Ry
     estimated scf accuracy    <       0.00899081 Ry

     total magnetization       =    88.65 Bohr mag/cell
     absolute magnetization    =    89.98 Bohr mag/cell

     iteration # 41     ecut=    50.00 Ry     beta= 0.10
     Davidson diagonalization with overlap
     ethr =  8.23E-07,  avg # of iterations =  2.0

     negative rho (up, down):  4.568E-03 5.077E-03
 
     Adding external electric field

     Computed dipole along edir(3) : 
        Dipole               -0.4240 Ry au,         -1.0776 Debye
        Dipole field         -0.0003 Ry au, 
 
        Potential amp.        0.0286 Ry
        Total length         55.1515 bohr
 
 
     Adding external electric field

     Computed dipole along edir(3) : 
        Dipole               -0.4240 Ry au,         -1.0776 Debye
        Dipole field         -0.0003 Ry au, 
 
        Potential amp.        0.0286 Ry
        Total length         55.1515 bohr
 

     total cpu time spent up to now is      679.5 secs

     total energy              =   -7738.31672701 Ry
     estimated scf accuracy    <       0.00689901 Ry

     total magnetization       =    88.67 Bohr mag/cell
     absolute magnetization    =    89.99 Bohr mag/cell

     iteration # 42     ecut=    50.00 Ry     beta= 0.10
     Davidson diagonalization with overlap
     ethr =  6.31E-07,  avg # of iterations =  8.0

     negative rho (up, down):  2.071E-03 2.174E-03
 
     Adding external electric field

     Computed dipole along edir(3) : 
        Dipole               -0.3249 Ry au,         -0.8259 Debye
        Dipole field         -0.0002 Ry au, 
 
        Potential amp.        0.0219 Ry
        Total length         55.1515 bohr
 
 
     Adding external electric field

     Computed dipole along edir(3) : 
        Dipole               -0.3249 Ry au,         -0.8259 Debye
        Dipole field         -0.0002 Ry au, 
 
        Potential amp.        0.0219 Ry
        Total length         55.1515 bohr
 

     total cpu time spent up to now is      698.0 secs

     total energy              =   -7738.31652093 Ry
     estimated scf accuracy    <       0.00503673 Ry

     total magnetization       =    88.70 Bohr mag/cell
     absolute magnetization    =    90.03 Bohr mag/cell

     iteration # 43     ecut=    50.00 Ry     beta= 0.10
     Davidson diagonalization with overlap
     c_bands:  1 eigenvalues not converged
     ethr =  4.61E-07,  avg # of iterations = 12.0

     negative rho (up, down):  2.001E-03 1.839E-03
 
     Adding external electric field

     Computed dipole along edir(3) : 
        Dipole               -0.2653 Ry au,         -0.6742 Debye
        Dipole field         -0.0002 Ry au, 
 
        Potential amp.        0.0179 Ry
        Total length         55.1515 bohr
 
 
     Adding external electric field

     Computed dipole along edir(3) : 
        Dipole               -0.2653 Ry au,         -0.6742 Debye
        Dipole field         -0.0002 Ry au, 
 
        Potential amp.        0.0179 Ry
        Total length         55.1515 bohr
 

     total cpu time spent up to now is      719.3 secs

     total energy              =   -7738.31653305 Ry
     estimated scf accuracy    <       0.00289651 Ry

     total magnetization       =    88.73 Bohr mag/cell
     absolute magnetization    =    90.07 Bohr mag/cell

     iteration # 44     ecut=    50.00 Ry     beta= 0.10
     Davidson diagonalization with overlap
     c_bands:  2 eigenvalues not converged
     ethr =  2.65E-07,  avg # of iterations = 11.0

     negative rho (up, down):  8.039E-04 6.840E-04
 
     Adding external electric field

     Computed dipole along edir(3) : 
        Dipole               -0.3063 Ry au,         -0.7784 Debye
        Dipole field         -0.0002 Ry au, 
 
        Potential amp.        0.0207 Ry
        Total length         55.1515 bohr
 
 
     Adding external electric field

     Computed dipole along edir(3) : 
        Dipole               -0.3063 Ry au,         -0.7784 Debye
        Dipole field         -0.0002 Ry au, 
 
        Potential amp.        0.0207 Ry
        Total length         55.1515 bohr
 

     total cpu time spent up to now is      739.7 secs

     total energy              =   -7738.31657710 Ry
     estimated scf accuracy    <       0.00199213 Ry

     total magnetization       =    88.72 Bohr mag/cell
     absolute magnetization    =    90.06 Bohr mag/cell

     iteration # 45     ecut=    50.00 Ry     beta= 0.10
     Davidson diagonalization with overlap
     ethr =  1.82E-07,  avg # of iterations =  2.0

     negative rho (up, down):  2.306E-04 1.973E-04
 
     Adding external electric field

     Computed dipole along edir(3) : 
        Dipole               -0.3137 Ry au,         -0.7973 Debye
        Dipole field         -0.0002 Ry au, 
 
        Potential amp.        0.0212 Ry
        Total length         55.1515 bohr
 
 
     Adding external electric field

     Computed dipole along edir(3) : 
        Dipole               -0.3137 Ry au,         -0.7973 Debye
        Dipole field         -0.0002 Ry au, 
 
        Potential amp.        0.0212 Ry
        Total length         55.1515 bohr
 

     total cpu time spent up to now is      753.6 secs

     total energy              =   -7738.31658321 Ry
     estimated scf accuracy    <       0.00172028 Ry

     total magnetization       =    88.72 Bohr mag/cell
     absolute magnetization    =    90.06 Bohr mag/cell

     iteration # 46     ecut=    50.00 Ry     beta= 0.10
     Davidson diagonalization with overlap
     ethr =  1.57E-07,  avg # of iterations =  2.0

     negative rho (up, down):  2.244E-04 1.971E-04
 
     Adding external electric field

     Computed dipole along edir(3) : 
        Dipole               -0.3105 Ry au,         -0.7893 Debye
        Dipole field         -0.0002 Ry au, 
 
        Potential amp.        0.0210 Ry
        Total length         55.1515 bohr
 
 
     Adding external electric field

     Computed dipole along edir(3) : 
        Dipole               -0.3105 Ry au,         -0.7893 Debye
        Dipole field         -0.0002 Ry au, 
 
        Potential amp.        0.0210 Ry
        Total length         55.1515 bohr
 

     total cpu time spent up to now is      768.4 secs

     total energy              =   -7738.31661982 Ry
     estimated scf accuracy    <       0.00135365 Ry

     total magnetization       =    88.67 Bohr mag/cell
     absolute magnetization    =    90.03 Bohr mag/cell

     iteration # 47     ecut=    50.00 Ry     beta= 0.10
     Davidson diagonalization with overlap
     ethr =  1.24E-07,  avg # of iterations =  2.0

     negative rho (up, down):  3.266E-05 2.689E-05
 
     Adding external electric field

     Computed dipole along edir(3) : 
        Dipole               -0.3615 Ry au,         -0.9187 Debye
        Dipole field         -0.0002 Ry au, 
 
        Potential amp.        0.0244 Ry
        Total length         55.1515 bohr
 
 
     Adding external electric field

     Computed dipole along edir(3) : 
        Dipole               -0.3615 Ry au,         -0.9187 Debye
        Dipole field         -0.0002 Ry au, 
 
        Potential amp.        0.0244 Ry
        Total length         55.1515 bohr
 

     total cpu time spent up to now is      783.2 secs

     total energy              =   -7738.31662777 Ry
     estimated scf accuracy    <       0.00112609 Ry

     total magnetization       =    88.67 Bohr mag/cell
     absolute magnetization    =    90.04 Bohr mag/cell

     iteration # 48     ecut=    50.00 Ry     beta= 0.10
     Davidson diagonalization with overlap
     ethr =  1.03E-07,  avg # of iterations =  2.0

     negative rho (up, down):  2.432E-05 1.914E-05
 
     Adding external electric field

     Computed dipole along edir(3) : 
        Dipole               -0.3709 Ry au,         -0.9426 Debye
        Dipole field         -0.0002 Ry au, 
 
        Potential amp.        0.0250 Ry
        Total length         55.1515 bohr
 
 
     Adding external electric field

     Computed dipole along edir(3) : 
        Dipole               -0.3709 Ry au,         -0.9426 Debye
        Dipole field         -0.0002 Ry au, 
 
        Potential amp.        0.0250 Ry
        Total length         55.1515 bohr
 

     total cpu time spent up to now is      797.7 secs

     total energy              =   -7738.31666302 Ry
     estimated scf accuracy    <       0.00074668 Ry

     total magnetization       =    88.67 Bohr mag/cell
     absolute magnetization    =    90.04 Bohr mag/cell

     iteration # 49     ecut=    50.00 Ry     beta= 0.10
     Davidson diagonalization with overlap
     ethr =  6.83E-08,  avg # of iterations =  2.0

     negative rho (up, down):  4.613E-05 2.556E-05
 
     Adding external electric field

     Computed dipole along edir(3) : 
        Dipole               -0.3571 Ry au,         -0.9076 Debye
        Dipole field         -0.0002 Ry au, 
 
        Potential amp.        0.0241 Ry
        Total length         55.1515 bohr
 
 
     Adding external electric field

     Computed dipole along edir(3) : 
        Dipole               -0.3571 Ry au,         -0.9076 Debye
        Dipole field         -0.0002 Ry au, 
 
        Potential amp.        0.0241 Ry
        Total length         55.1515 bohr
 

     total cpu time spent up to now is      812.5 secs

     total energy              =   -7738.31675150 Ry
     estimated scf accuracy    <       0.00064746 Ry

     total magnetization       =    88.67 Bohr mag/cell
     absolute magnetization    =    90.04 Bohr mag/cell

     iteration # 50     ecut=    50.00 Ry     beta= 0.10
     Davidson diagonalization with overlap
     ethr =  5.92E-08,  avg # of iterations =  4.0

     negative rho (up, down):  2.039E-05 5.766E-06
 
     Adding external electric field

     Computed dipole along edir(3) : 
        Dipole               -0.3888 Ry au,         -0.9882 Debye
        Dipole field         -0.0002 Ry au, 
 
        Potential amp.        0.0263 Ry
        Total length         55.1515 bohr
 
 
     Adding external electric field

     Computed dipole along edir(3) : 
        Dipole               -0.3888 Ry au,         -0.9882 Debye
        Dipole field         -0.0002 Ry au, 
 
        Potential amp.        0.0263 Ry
        Total length         55.1515 bohr
 

     total cpu time spent up to now is      828.2 secs

     total energy              =   -7738.31677584 Ry
     estimated scf accuracy    <       0.00047101 Ry

     total magnetization       =    88.65 Bohr mag/cell
     absolute magnetization    =    90.03 Bohr mag/cell

     iteration # 51     ecut=    50.00 Ry     beta= 0.10
     Davidson diagonalization with overlap
     ethr =  4.31E-08,  avg # of iterations =  2.0

     negative rho (up, down):  6.596E-05 2.177E-05
 
     Adding external electric field

     Computed dipole along edir(3) : 
        Dipole               -0.3743 Ry au,         -0.9514 Debye
        Dipole field         -0.0002 Ry au, 
 
        Potential amp.        0.0253 Ry
        Total length         55.1515 bohr
 
 
     Adding external electric field

     Computed dipole along edir(3) : 
        Dipole               -0.3743 Ry au,         -0.9514 Debye
        Dipole field         -0.0002 Ry au, 
 
        Potential amp.        0.0253 Ry
        Total length         55.1515 bohr
 

     total cpu time spent up to now is      842.1 secs

     total energy              =   -7738.31682699 Ry
     estimated scf accuracy    <       0.00041066 Ry

     total magnetization       =    88.66 Bohr mag/cell
     absolute magnetization    =    90.03 Bohr mag/cell

     iteration # 52     ecut=    50.00 Ry     beta= 0.10
     Davidson diagonalization with overlap
     ethr =  3.76E-08,  avg # of iterations =  2.0

     negative rho (up, down):  1.557E-04 6.115E-05
 
     Adding external electric field

     Computed dipole along edir(3) : 
        Dipole               -0.3540 Ry au,         -0.8998 Debye
        Dipole field         -0.0002 Ry au, 
 
        Potential amp.        0.0239 Ry
        Total length         55.1515 bohr
 
 
     Adding external electric field

     Computed dipole along edir(3) : 
        Dipole               -0.3540 Ry au,         -0.8998 Debye
        Dipole field         -0.0002 Ry au, 
 
        Potential amp.        0.0239 Ry
        Total length         55.1515 bohr
 

     total cpu time spent up to now is      857.2 secs

     total energy              =   -7738.31686384 Ry
     estimated scf accuracy    <       0.00035622 Ry

     total magnetization       =    88.65 Bohr mag/cell
     absolute magnetization    =    90.03 Bohr mag/cell

     iteration # 53     ecut=    50.00 Ry     beta= 0.10
     Davidson diagonalization with overlap
     ethr =  3.26E-08,  avg # of iterations =  2.0

     negative rho (up, down):  6.876E-04 4.116E-04
 
     Adding external electric field

     Computed dipole along edir(3) : 
        Dipole               -0.3519 Ry au,         -0.8946 Debye
        Dipole field         -0.0002 Ry au, 
 
        Potential amp.        0.0238 Ry
        Total length         55.1515 bohr
 
 
     Adding external electric field

     Computed dipole along edir(3) : 
        Dipole               -0.3519 Ry au,         -0.8946 Debye
        Dipole field         -0.0002 Ry au, 
 
        Potential amp.        0.0238 Ry
        Total length         55.1515 bohr
 

     total cpu time spent up to now is      871.4 secs

     total energy              =   -7738.31687626 Ry
     estimated scf accuracy    <       0.00028989 Ry

     total magnetization       =    88.65 Bohr mag/cell
     absolute magnetization    =    90.03 Bohr mag/cell

     iteration # 54     ecut=    50.00 Ry     beta= 0.10
     Davidson diagonalization with overlap
     ethr =  2.65E-08,  avg # of iterations =  2.0

     negative rho (up, down):  1.897E-03 1.612E-03
 
     Adding external electric field

     Computed dipole along edir(3) : 
        Dipole               -0.3262 Ry au,         -0.8291 Debye
        Dipole field         -0.0002 Ry au, 
 
        Potential amp.        0.0220 Ry
        Total length         55.1515 bohr
 
 
     Adding external electric field

     Computed dipole along edir(3) : 
        Dipole               -0.3262 Ry au,         -0.8291 Debye
        Dipole field         -0.0002 Ry au, 
 
        Potential amp.        0.0220 Ry
        Total length         55.1515 bohr
 

     total cpu time spent up to now is      885.5 secs

     total energy              =   -7738.31688938 Ry
     estimated scf accuracy    <       0.00028475 Ry

     total magnetization       =    88.67 Bohr mag/cell
     absolute magnetization    =    90.04 Bohr mag/cell

     iteration # 55     ecut=    50.00 Ry     beta= 0.10
     Davidson diagonalization with overlap
     ethr =  2.61E-08,  avg # of iterations =  2.0

     negative rho (up, down):  1.916E-03 1.632E-03
 
     Adding external electric field

     Computed dipole along edir(3) : 
        Dipole               -0.3224 Ry au,         -0.8194 Debye
        Dipole field         -0.0002 Ry au, 
 
        Potential amp.        0.0218 Ry
        Total length         55.1515 bohr
 
 
     Adding external electric field

     Computed dipole along edir(3) : 
        Dipole               -0.3224 Ry au,         -0.8194 Debye
        Dipole field         -0.0002 Ry au, 
 
        Potential amp.        0.0218 Ry
        Total length         55.1515 bohr
 

     total cpu time spent up to now is      901.0 secs

     total energy              =   -7738.31689279 Ry
     estimated scf accuracy    <       0.00024497 Ry

     total magnetization       =    88.66 Bohr mag/cell
     absolute magnetization    =    90.04 Bohr mag/cell

     iteration # 56     ecut=    50.00 Ry     beta= 0.10
     Davidson diagonalization with overlap
     ethr =  2.24E-08,  avg # of iterations =  2.0

     negative rho (up, down):  1.948E-03 1.655E-03
 
     Adding external electric field

     Computed dipole along edir(3) : 
        Dipole               -0.3234 Ry au,         -0.8221 Debye
        Dipole field         -0.0002 Ry au, 
 
        Potential amp.        0.0218 Ry
        Total length         55.1515 bohr
 
 
     Adding external electric field

     Computed dipole along edir(3) : 
        Dipole               -0.3234 Ry au,         -0.8221 Debye
        Dipole field         -0.0002 Ry au, 
 
        Potential amp.        0.0218 Ry
        Total length         55.1515 bohr
 

     total cpu time spent up to now is      915.6 secs

     total energy              =   -7738.31688645 Ry
     estimated scf accuracy    <       0.00020393 Ry

     total magnetization       =    88.66 Bohr mag/cell
     absolute magnetization    =    90.04 Bohr mag/cell

     iteration # 57     ecut=    50.00 Ry     beta= 0.10
     Davidson diagonalization with overlap
     ethr =  1.87E-08,  avg # of iterations =  2.0

     negative rho (up, down):  2.385E-03 2.092E-03
 
     Adding external electric field

     Computed dipole along edir(3) : 
        Dipole               -0.3015 Ry au,         -0.7663 Debye
        Dipole field         -0.0002 Ry au, 
 
        Potential amp.        0.0204 Ry
        Total length         55.1515 bohr
 
 
     Adding external electric field

     Computed dipole along edir(3) : 
        Dipole               -0.3015 Ry au,         -0.7663 Debye
        Dipole field         -0.0002 Ry au, 
 
        Potential amp.        0.0204 Ry
        Total length         55.1515 bohr
 

     total cpu time spent up to now is      930.0 secs

     total energy              =   -7738.31689251 Ry
     estimated scf accuracy    <       0.00017396 Ry

     total magnetization       =    88.66 Bohr mag/cell
     absolute magnetization    =    90.04 Bohr mag/cell

     iteration # 58     ecut=    50.00 Ry     beta= 0.10
     Davidson diagonalization with overlap
     ethr =  1.59E-08,  avg # of iterations =  2.0

     negative rho (up, down):  2.636E-03 2.371E-03
 
     Adding external electric field

[...]
    -5.9697  -5.9361  -5.9292  -5.9060  -5.8865  -5.8771  -5.8644  -5.8394
    -5.8255  -5.7782  -5.7500  -5.7404  -5.7278  -5.6921  -5.6662  -5.6512
    -5.6374  -5.6283  -5.5846  -5.5674  -5.5623  -5.5456  -5.5384  -5.5239
    -5.5140  -5.4867  -5.4741  -5.4424  -5.3983  -5.3623  -5.3309  -5.3148
    -5.2771  -5.2590  -5.2331  -5.1635  -5.1450  -5.1403  -5.1251  -5.1027
    -5.0638  -5.0099  -4.9631  -4.9276  -4.8976  -4.8871  -4.8585  -4.8434
    -4.8156  -4.7914  -4.7772  -4.7406  -4.7171  -4.6895  -4.6366  -4.6019
    -4.5394  -4.4654  -4.4395  -4.4212  -4.4003  -4.3835  -4.3615  -4.3496
    -4.3239  -4.2758  -4.2518  -4.2406  -4.2033  -4.1863  -4.1075  -4.1030
    -4.0863  -4.0434  -4.0337  -4.0147  -3.9549  -3.9310  -3.9185  -3.8780
    -3.8538  -3.8192  -3.8106  -3.7925  -3.7729  -3.7418  -3.7031  -3.6921
    -3.6859  -3.6674  -3.6558  -3.5857  -3.5767  -3.5753  -3.5595  -3.5438
    -3.5311  -3.5138  -3.5041  -3.4796  -3.4471  -3.4417  -3.4273  -3.4054
    -3.3824  -3.3728  -3.3684  -3.3530  -3.3359  -3.3047  -3.2853  -3.2565
    -3.2445  -3.2101  -3.1884  -3.1653  -3.1409  -3.1173  -3.0997  -3.0820
    -3.0742  -3.0625  -3.0518  -3.0314  -3.0175  -3.0016  -2.9850  -2.9349
    -2.9220  -2.9115  -2.8981  -2.8891  -2.8682  -2.8446  -2.8107  -2.7880
    -2.7844  -2.7566  -2.7514  -2.7258  -2.7202  -2.7130  -2.7067  -2.6913
    -2.6726  -2.6650  -2.6615  -2.6358  -2.6261  -2.6128  -2.6065  -2.5778
    -2.5723  -2.5707  -2.5364  -2.5249  -2.5045  -2.4793  -2.4700  -2.4577
    -2.4510  -2.4079  -2.3989  -2.3716  -2.3563  -2.3410  -2.3142  -2.2789
    -2.2725  -2.2681  -2.2235  -2.2084  -2.1870  -2.1739  -2.1514  -2.1392
    -2.1073  -2.0860  -2.0703  -2.0664  -2.0504  -2.0372  -2.0259  -2.0201
    -1.9942  -1.9489  -1.9376  -1.9174  -1.9063  -1.8869  -1.8800  -1.8626
    -1.8387  -1.8335  -1.8287  -1.8188  -1.7915  -1.7137  -1.7081  -1.6749
    -1.6699  -1.6500  -1.6312  -1.6271  -1.6141  -1.6026  -1.5874  -1.5780
    -1.5490  -1.5423  -1.5009  -1.4894  -1.4633  -1.4540  -1.4450  -1.4202
    -1.4019  -1.3911  -1.3818  -1.3610  -1.3560  -1.3303  -1.3043  -1.2951
    -1.2323  -1.2222  -1.1685  -1.1477  -1.1323  -1.1305  -1.0927  -1.0491
    -1.0266  -0.9939  -0.9278  -0.8556  -0.7281  -0.7114  -0.6262  -0.5675
    -0.5222  -0.5080  -0.3556  -0.2208   0.1803   0.2158   0.2383   0.2481
     0.2980   0.3092   0.3211   0.3303   0.3474   0.3594   0.3677   0.3709
     0.3776   0.3876   0.3997   0.4011   0.4055   0.4162   0.4205   0.4277
     0.4355   0.4403   0.4641   0.4665   0.4774   0.4837   0.4901   0.4933
     0.4988   0.4991   0.5103   0.5164   0.5234   0.5334   0.5377   0.5401
     0.5427   0.5662   0.5693   0.5744   0.5980   0.6006   0.6168   0.6203
     0.6269   0.6351   0.6441   0.6478   0.6539   0.6640   0.6652   0.6790
     0.6828   0.6860   0.6994   0.7043   0.7146   0.7157   0.7220   0.7339
     0.7434   0.7502   0.7659   0.7669   0.7786   0.7826   0.7925   0.8098
     0.8112   0.8278   0.8496   0.8565   0.8635   0.8681   0.8708   0.8786
     0.8848   0.9025   0.9096   0.9155   0.9210   0.9534   0.9673   0.9841
     0.9873   1.0372   1.0839   1.1129   1.1238   1.6880   1.7365   1.7483
     1.7764   1.8002   1.8117   1.8180   1.8231   1.8409   1.9097   1.9207
     1.9334   1.9711   1.9795   2.0069   2.0426   2.0463   2.0860   2.0922
     2.1392   2.1447   2.1752   2.1916   2.1972   2.2010   2.2110   2.2365
     2.2442   2.2755   2.2854   2.3042   2.3137   2.3260   2.3436   2.3590
     2.3727   2.3832   2.3867   2.4086   2.4175   2.4229   2.4405   2.4893
     2.5281   2.5324   2.5397   2.5489   2.5536   2.5778   2.5963   2.6139
     2.6596   2.6812   2.7032   2.7075   2.7276   2.8030   2.8037   2.8732
     2.8780   2.8865   3.7082   3.7217   3.7274   3.7842   3.7876   3.7986
     3.9070   3.9370   3.9593   3.9603   3.9834   4.0014   4.0151   4.0384
     4.0545   4.0610   4.1464   4.1488   4.1610   4.1824   4.6612   4.7213
     4.7976   4.8580   4.8857   4.9138   4.9384   4.9701   5.0434   5.0982
     5.1188   5.1491   5.4247   6.2435   6.3754   6.6151   6.6595   6.7604
     6.8109   6.8856   6.8913   6.9225   7.0233   7.0831   7.0927   7.1345
     7.2689   7.3514   7.3558   7.4363   7.4816   7.5358   7.5874   7.6316
     7.6408   7.6806   7.7373   7.7592   7.8099   7.8842   7.9007   7.9090
     8.0157   8.0293   8.0646   8.0908   8.1122   8.1784   8.1915   8.2100
     8.2629   8.2842   8.3011   8.3320   8.3797   8.4251   8.4309   8.4501
     8.4662   8.4789   8.4977   8.5268   8.5550   8.5741   8.5999   8.6225
     8.6662   8.6850   8.7256   8.7547   8.7840   8.7887   8.8427   8.9018

     the Fermi energy is     1.6608 ev

!    total energy              =   -7738.31688644 Ry
     estimated scf accuracy    <       0.00000093 Ry
     smearing contrib. (-TS)   =      -0.02223960 Ry
     internal energy E=F+TS    =   -7738.29464684 Ry

     The total energy is F=E-TS. E is the sum of the following terms:
     one-electron contribution =  -94696.25312174 Ry
     hartree contribution      =   47965.47742677 Ry
     xc contribution           =   -2218.70573110 Ry
     ewald contribution        =   41212.99389005 Ry
     Dispersion Correction     =      -1.80716926 Ry
     electric field correction =       0.00005844 Ry

     total magnetization       =    88.66 Bohr mag/cell
     absolute magnetization    =    90.03 Bohr mag/cell

     convergence has been achieved in  64 iterations

     negative rho (up, down):  1.053E-03 5.883E-04

     Forces acting on atoms (cartesian axes, Ry/au):

     atom    1 type  1   force =    -0.00035255   -0.00023462   -0.00003987
     atom    2 type  2   force =     0.00011023    0.00025428    0.00040052
     atom    3 type  1   force =     0.00049023   -0.00018935   -0.00009298
     atom    4 type  1   force =     0.00005035    0.00005100    0.00000165
     atom    5 type  1   force =    -0.00091837    0.00049914    0.00013623
     atom    6 type  1   force =     0.00020802    0.00038542    0.00001040
     atom    7 type  3   force =    -0.00025530    0.00024456   -0.00030506
     atom    8 type  3   force =     0.00001657    0.00029391    0.00001304
     atom    9 type  3   force =     0.00002452    0.00033126   -0.00006127
     atom   10 type  3   force =    -0.00034875    0.00001924    0.00020895
     atom   11 type  4   force =     0.00028904    0.00027597   -0.00027524
     atom   12 type  4   force =    -0.00021149   -0.00007287   -0.00018039
     atom   13 type  4   force =     0.00053406   -0.00002913   -0.00013495
     atom   14 type  4   force =     0.00012525    0.00009844   -0.00000715
     atom   15 type  4   force =     0.00036826   -0.00046291   -0.00004996
     atom   16 type  4   force =    -0.00011099   -0.00052121   -0.00004105
     atom   17 type  4   force =    -0.00035072   -0.00024886   -0.00009891
     atom   18 type  4   force =    -0.00003515   -0.00017501    0.00042613
     atom   19 type  4   force =     0.00063045    0.00014977    0.00011745
     atom   20 type  4   force =     0.00014857    0.00022317    0.00041018
     atom   21 type  4   force =    -0.00002974   -0.00021964   -0.00002976
     atom   22 type  4   force =    -0.00010342   -0.00001866   -0.00012902
     atom   23 type  4   force =     0.00007176    0.00036815    0.00026224
     atom   24 type  4   force =    -0.00055115    0.00030192   -0.00055564
     atom   25 type  4   force =    -0.00030834   -0.00008193    0.00039203
     atom   26 type  4   force =     0.00032648   -0.00007523    0.00000263
     atom   27 type  1   force =    -0.00596499   -0.00842443   -0.00393825
     atom   28 type  2   force =    -0.01216909    0.00013443   -0.00208922
     atom   29 type  1   force =     0.00289964   -0.00420268    0.00039647
     atom   30 type  1   force =     0.00247386    0.00387791   -0.00163298
     atom   31 type  1   force =     0.00179182   -0.00476298   -0.00021922
     atom   32 type  1   force =    -0.00089035    0.00111691    0.00198468
     atom   33 type  3   force =    -0.00704950   -0.00078633   -0.00046230
     atom   34 type  3   force =    -0.00690668    0.00229957   -0.00045732
     atom   35 type  3   force =     0.00399187   -0.00044607   -0.00491275
     atom   36 type  3   force =     0.00118639   -0.00128559    0.00292149
     atom   37 type  4   force =     0.00867293    0.00525902   -0.00762535
     atom   38 type  4   force =     0.00351588   -0.00097171    0.02028226
     atom   39 type  4   force =    -0.00136939    0.00353724    0.01011917
     atom   40 type  4   force =    -0.00158847   -0.00229699   -0.00888723
     atom   41 type  4   force =     0.00206132    0.00852537    0.00654760
     atom   42 type  4   force =    -0.00570698   -0.00309055   -0.01947191
     atom   43 type  4   force =     0.00989573    0.00663029   -0.00819099
     atom   44 type  4   force =     0.00725499   -0.00306634    0.00596350
     atom   45 type  4   force =     0.00220765    0.00591019   -0.00062760
     atom   46 type  4   force =     0.00347574    0.00118932    0.00495325
     atom   47 type  4   force =    -0.01326672    0.00021935    0.00323904
     atom   48 type  4   force =    -0.01452883    0.00259392   -0.00355646
     atom   49 type  4   force =     0.01260320    0.00289355   -0.00450178
     atom   50 type  4   force =    -0.00381942   -0.00402302   -0.00040940
     atom   51 type  4   force =    -0.00443929    0.00269266   -0.00067140
     atom   52 type  4   force =     0.01633559   -0.00322038    0.00419090
     atom   53 type  1   force =    -0.00755408   -0.00707768   -0.00849471
     atom   54 type  2   force =     0.01577364    0.01719663   -0.00986356
     atom   55 type  1   force =     0.00581122   -0.00483518   -0.00597664
     atom   56 type  1   force =    -0.02041724    0.01922279    0.01979681
     atom   57 type  1   force =     0.00444044   -0.00757962   -0.00147707
     atom   58 type  1   force =    -0.00386790   -0.00527389   -0.00098132
     atom   59 type  3   force =    -0.03903204   -0.03834177   -0.05604794
     atom   60 type  3   force =    -0.00485564   -0.00127091   -0.00116573
     atom   61 type  3   force =     0.00273274   -0.00100694   -0.01014807
     atom   62 type  3   force =     0.02909749   -0.04950404   -0.06060253
     atom   63 type  4   force =     0.00626484    0.00348459    0.02097761
     atom   64 type  4   force =     0.00449594    0.00232174    0.01454634
     atom   65 type  4   force =    -0.00066176    0.00293374    0.01273370
     atom   66 type  4   force =     0.00014649    0.00213753    0.01618944
     atom   67 type  4   force =     0.00105181   -0.00065110    0.03908601
     atom   68 type  4   force =    -0.00569623   -0.00391074   -0.01719081
     atom   69 type  4   force =     0.00783372    0.00451596   -0.00257267
     atom   70 type  4   force =     0.00175564   -0.00736287    0.03538686
     atom   71 type  4   force =    -0.00910209    0.03918086    0.00092771
     atom   72 type  4   force =     0.00229155   -0.00048728    0.00793312
     atom   73 type  4   force =    -0.03010586    0.00088005    0.00762894
     atom   74 type  4   force =    -0.01353259    0.00142835   -0.00043734
     atom   75 type  4   force =     0.01198217    0.00349745   -0.00252177
     atom   76 type  4   force =    -0.00241520   -0.00291320    0.00255272
     atom   77 type  4   force =     0.00916877    0.02579402   -0.00257419
     atom   78 type  4   force =     0.03353061   -0.00638532    0.00616705
     atom   79 type  1   force =    -0.00006165   -0.00025813    0.00006033
     atom   80 type  2   force =    -0.00002743   -0.00019586    0.00065933
     atom   81 type  1   force =     0.00096594    0.00167903    0.00084085
     atom   82 type  1   force =    -0.00001575    0.00015129    0.00018129
     atom   83 type  1   force =    -0.00077842    0.00055594    0.00057387
     atom   84 type  1   force =     0.00039823    0.00016966    0.00057585
     atom   85 type  3   force =     0.00001476   -0.00009083   -0.00028829
     atom   86 type  3   force =    -0.00021729   -0.00005594   -0.00000658
     atom   87 type  3   force =    -0.00009526   -0.00026489   -0.00020527
     atom   88 type  3   force =    -0.00036125    0.00037283    0.00008685
     atom   89 type  4   force =     0.00041572    0.00030125   -0.00004656
     atom   90 type  4   force =    -0.00002997    0.00022178   -0.00005712
     atom   91 type  4   force =     0.00025614    0.00034903    0.00005484
     atom   92 type  4   force =    -0.00019614    0.00060681    0.00008496
     atom   93 type  4   force =     0.00008351   -0.00033956    0.00017598
     atom   94 type  4   force =     0.00013378   -0.00039382   -0.00017658
     atom   95 type  4   force =    -0.00054751    0.00032296    0.00002983
     atom   96 type  4   force =     0.00024803   -0.00000605   -0.00017923
     atom   97 type  4   force =     0.00055619   -0.00003839   -0.00021895
     atom   98 type  4   force =    -0.00010828   -0.00006872    0.00029821
     atom   99 type  4   force =     0.00014780    0.00010172    0.00024400
     atom  100 type  4   force =     0.00010470   -0.00010301    0.00032540
     atom  101 type  4   force =    -0.00005661    0.00028068   -0.00032203
     atom  102 type  4   force =    -0.00008514    0.00010502    0.00014035
     atom  103 type  4   force =    -0.00044751    0.00029762    0.00040124
     atom  104 type  4   force =    -0.00005084   -0.00043596    0.00016104
     atom  105 type  1   force =    -0.00651841   -0.00788872   -0.00361664
     atom  106 type  2   force =    -0.01200574    0.00018804   -0.00214274
     atom  107 type  1   force =     0.00427278   -0.00285613    0.00335683
     atom  108 type  1   force =     0.00248078    0.00396167   -0.00167327
     atom  109 type  1   force =     0.00183820   -0.00479729   -0.00021858
     atom  110 type  1   force =    -0.00122197    0.00112162    0.00185245
     atom  111 type  3   force =    -0.00708575   -0.00082586   -0.00047507
     atom  112 type  3   force =    -0.00616764    0.00299547   -0.00225858
     atom  113 type  3   force =     0.00408826   -0.00001567   -0.00391330
     atom  114 type  3   force =     0.00105429   -0.00132680    0.00298404
     atom  115 type  4   force =     0.00869730    0.00502891   -0.00757325
     atom  116 type  4   force =     0.00363105   -0.00111549    0.02065801
     atom  117 type  4   force =    -0.00096362    0.00372499    0.01016361
     atom  118 type  4   force =    -0.00151028   -0.00244569   -0.00888593
     atom  119 type  4   force =     0.00214628    0.00850804    0.00637195
     atom  120 type  4   force =    -0.00692876   -0.00292947   -0.01966063
     atom  121 type  4   force =     0.00980732    0.00731864   -0.00649536
     atom  122 type  4   force =     0.00708492   -0.00306966    0.00595172
     atom  123 type  4   force =     0.00217089    0.00597392   -0.00057904
     atom  124 type  4   force =     0.00326098    0.00080748    0.00506615
     atom  125 type  4   force =    -0.01321174    0.00024092    0.00329098
     atom  126 type  4   force =    -0.01460528    0.00250280   -0.00330348
     atom  127 type  4   force =     0.01323947    0.00298699   -0.00435977
     atom  128 type  4   force =    -0.00438136   -0.00382728   -0.00005109
     atom  129 type  4   force =    -0.00441394    0.00271780   -0.00056190
     atom  130 type  4   force =     0.01644458   -0.00323687    0.00417918
     atom  131 type  1   force =    -0.00757898   -0.00707877   -0.00850430
     atom  132 type  2   force =     0.01575586    0.01718631   -0.00987353
     atom  133 type  1   force =     0.00580082   -0.00482908   -0.00597789
     atom  134 type  1   force =    -0.02040121    0.01921381    0.01978282
     atom  135 type  1   force =     0.00442884   -0.00757098   -0.00147726
     atom  136 type  1   force =    -0.00387854   -0.00526984   -0.00098164
     atom  137 type  3   force =    -0.03903498   -0.03834212   -0.05605036
     atom  138 type  3   force =    -0.00486050   -0.00127052   -0.00117284
     atom  139 type  3   force =     0.00273512   -0.00101233   -0.01014895
     atom  140 type  3   force =     0.02909161   -0.04950111   -0.06060496
     atom  141 type  4   force =     0.00620079    0.00350787    0.02104715
     atom  142 type  4   force =     0.00442364    0.00231571    0.01456193
     atom  143 type  4   force =    -0.00058857    0.00283460    0.01277716
     atom  144 type  4   force =     0.00019231    0.00222098    0.01639211
     atom  145 type  4   force =     0.00120271   -0.00065052    0.03907728
     atom  146 type  4   force =    -0.00546625   -0.00391172   -0.01718875
     atom  147 type  4   force =     0.00783018    0.00456637   -0.00275199
     atom  148 type  4   force =     0.00165038   -0.00740288    0.03543724
     atom  149 type  4   force =    -0.00930352    0.03918156    0.00092907
     atom  150 type  4   force =     0.00208718   -0.00048239    0.00793242
     atom  151 type  4   force =    -0.02999309    0.00088132    0.00763079
     atom  152 type  4   force =    -0.01363749    0.00143690   -0.00044157
     atom  153 type  4   force =     0.01213292    0.00360477   -0.00253464
     atom  154 type  4   force =    -0.00245763   -0.00280202    0.00247325
     atom  155 type  4   force =     0.00907078    0.02581997   -0.00263218
     atom  156 type  4   force =     0.03350085   -0.00619739    0.00600092
     atom  157 type  4   force =     0.00666070   -0.00780141    0.00003133
     atom  158 type  5   force =    -0.00663345    0.00688354   -0.00242883

     Total force =     0.237442     Total SCF correction =     0.002723
 
     init_run     :      8.85s CPU      9.59s WALL (       1 calls)
     electrons    :    967.12s CPU   1019.06s WALL (       1 calls)
     forces       :      4.20s CPU      4.62s WALL (       1 calls)
     force_london :      0.12s CPU      0.12s WALL (       1 calls)

     Called by init_run:
     wfcinit      :      5.60s CPU      5.80s WALL (       1 calls)
     potinit      :      0.52s CPU      0.71s WALL (       1 calls)
     hinit0       :      1.48s CPU      1.59s WALL (       1 calls)

     Called by electrons:
     c_bands      :    762.40s CPU    790.12s WALL (      64 calls)
     sum_band     :    129.45s CPU    142.38s WALL (      64 calls)
     v_of_rho     :     18.08s CPU     19.21s WALL (      65 calls)
     newd         :     36.45s CPU     46.72s WALL (      65 calls)
     mix_rho      :     19.87s CPU     20.00s WALL (      64 calls)
     energy_londo :      0.11s CPU      0.11s WALL (       1 calls)

     Called by c_bands:
     init_us_2    :      2.44s CPU      2.48s WALL (     260 calls)
     init_us_2:cp :      2.44s CPU      2.48s WALL (     260 calls)
     regterg      :    745.06s CPU    771.30s WALL (     129 calls)

     Called by *egterg:
     rdiaghg      :    222.12s CPU    234.99s WALL (     546 calls)
     h_psi        :    297.83s CPU    303.79s WALL (     548 calls)
     s_psi        :     57.15s CPU     57.19s WALL (     548 calls)
     g_psi        :      0.42s CPU      0.42s WALL (     417 calls)

     Called by h_psi:
     h_psi:calbec :     71.91s CPU     76.42s WALL (     548 calls)
     vloc_psi     :    168.64s CPU    169.48s WALL (     548 calls)
     add_vuspsi   :     56.55s CPU     57.14s WALL (     548 calls)

     General routines
     calbec       :    107.00s CPU    113.72s WALL (     684 calls)
     fft          :     13.67s CPU     15.15s WALL (    1183 calls)
     ffts         :     12.30s CPU     12.35s WALL (    7943 calls)
     fftw         :    188.57s CPU    189.43s WALL (  218432 calls)
     interpolate  :      1.31s CPU      1.39s WALL (     130 calls)
 
     Parallel routines
 
     PWSCF        :  16m22.27s CPU  17m15.67s WALL

 
   This run was terminated on:   0: 1:30  18Nov2025            

=------------------------------------------------------------------------------=
   JOB DONE.
=------------------------------------------------------------------------------=
