
     Program PWSCF v.7.2 starts on 18Nov2025 at  1:50:35 

     This program is part of the open-source Quantum ESPRESSO suite
     for quantum simulation of materials; please cite
         "P. Giannozzi et al., J. Phys.:Condens. Matter 21 395502 (2009);
         "P. Giannozzi et al., J. Phys.:Condens. Matter 29 465901 (2017);
         "P. Giannozzi et al., J. Chem. Phys. 152 154105 (2020);
          URL http://www.quantum-espresso.org", 
     in publications or presentations arising from this work. More details at
     http://www.quantum-espresso.org/quote

     Parallel version (MPI), running on    64 processors

     MPI processes distributed on     4 nodes
     461947 MiB available memory on the printing compute node when the environment starts
 
     Reading input from PWINPUT_atm158_yp

     Current dimensions of program PWSCF are:
     Max number of different atomic species (ntypx) = 10
     Max number of k-points (npk) =  40000
     Max angular momentum in pseudopotentials (lmaxx) =  4
     Presently no symmetry can be used with electric field

     file Ni.pbe-n-rrkjus_psl.1.0.0.UPF: wavefunction(s)  3D renormalized
     file Mn.pbe-spn-rrkjus_psl.0.3.1.UPF: wavefunction(s)  3D renormalized
     file O.pbe-rrkjus.UPF: wavefunction(s)  2S renormalized
     file H.pbe-rrkjus.UPF: wavefunction(s)  1S renormalized

     gamma-point specific algorithms are used
 
     R & G space division:  proc/nbgrp/npool/nimage =      64
     Subspace diagonalization in iterative solution of the eigenvalue problem:
     one sub-group per band group will be used
     custom distributed-memory algorithm (size of sub-group:  7*  7 procs)

 
     Parallelization info
     --------------------
     sticks:   dense  smooth     PW     G-vecs:    dense   smooth      PW
     Min         207      82     20                60552    15302    1896
     Max         210      84     22                60574    15336    1950
     Sum       13325    5345   1333              3876045   980655  122653
 
     Using Slab Decomposition
 


     bravais-lattice index     =            0
     lattice parameter (alat)  =      17.4067  a.u.
     unit-cell volume          =   20529.8182 (a.u.)^3
     number of atoms/cell      =          158
     number of atomic types    =            5
     number of electrons       =      1093.00
     number of Kohn-Sham states=          656
     kinetic-energy cutoff     =      50.0000  Ry
     charge density cutoff     =     500.0000  Ry
     scf convergence threshold =      1.0E-06
     mixing beta               =       0.1000
     number of iterations used =            8  local-TF  mixing
     Exchange-correlation=  SLA  PW   PBE  PBE
                           (   1   4   3   4   0   0   0)

     celldm(1)=  17.406729  celldm(2)=   0.000000  celldm(3)=   0.000000
     celldm(4)=   0.000000  celldm(5)=   0.000000  celldm(6)=   0.000000

     crystal axes: (cart. coord. in units of alat)
               a(1) = (   1.000000   0.000000   0.000000 )  
               a(2) = (  -0.001404   1.105696   0.000000 )  
               a(3) = (   0.000000   0.000000   3.520448 )  

     reciprocal axes: (cart. coord. in units 2 pi/alat)
               b(1) = (  1.000000  0.001270  0.000000 )  
               b(2) = (  0.000000  0.904408  0.000000 )  
               b(3) = (  0.000000  0.000000  0.284055 )  


     PseudoPot. # 1 for Ni read from file:
     ~/PSEUDO/Ni.pbe-n-rrkjus_psl.1.0.0.UPF
     MD5 check sum: Not computed, couldn't open file
     Pseudo is Ultrasoft + core correction, Zval = 10.0
     Generated using "atomic" code by A. Dal Corso  v.5.1.2
     Using radial grid of 1195 points,  6 beta functions with: 
                l(1) =   0
                l(2) =   0
                l(3) =   1
                l(4) =   1
                l(5) =   2
                l(6) =   2
     Q(r) pseudized with 0 coefficients 


     PseudoPot. # 2 for Mn read from file:
     ~/PSEUDO/Mn.pbe-spn-rrkjus_psl.0.3.1.UPF
     MD5 check sum: Not computed, couldn't open file
     Pseudo is Ultrasoft + core correction, Zval = 15.0
     Generated using &quot;atomic&quot; code by A. Dal Corso  v.6.2.2
     Using radial grid of 1187 points,  6 beta functions with: 
                l(1) =   0
                l(2) =   0
                l(3) =   1
                l(4) =   1
                l(5) =   2
                l(6) =   2
     Q(r) pseudized with 0 coefficients 


     PseudoPot. # 3 for P  read from file:
     ~/PSEUDO/P.pbe-n-rrkjus_psl.1.0.0.UPF
     MD5 check sum: Not computed, couldn't open file
     Pseudo is Ultrasoft + core correction, Zval =  5.0
     Generated using "atomic" code by A. Dal Corso  v.5.1
     Using radial grid of 1147 points,  6 beta functions with: 
                l(1) =   0
                l(2) =   0
                l(3) =   1
                l(4) =   1
                l(5) =   2
                l(6) =   2
     Q(r) pseudized with 0 coefficients 


     PseudoPot. # 4 for O  read from file:
     ~/PSEUDO/O.pbe-rrkjus.UPF
     MD5 check sum: Not computed, couldn't open file
     Pseudo is Ultrasoft, Zval =  6.0
     Generated by new atomic code, or converted to UPF format
     Using radial grid of 1269 points,  4 beta functions with: 
                l(1) =   0
                l(2) =   0
                l(3) =   1
                l(4) =   1
     Q(r) pseudized with 0 coefficients 


     PseudoPot. # 5 for H  read from file:
     ~/PSEUDO/H.pbe-rrkjus.UPF
     MD5 check sum: Not computed, couldn't open file
     Pseudo is Ultrasoft, Zval =  1.0
     Generated by new atomic code, or converted to UPF format
     Using radial grid of 1061 points,  2 beta functions with: 
                l(1) =   0
                l(2) =   0
     Q(r) pseudized with 0 coefficients 


     atomic species   valence    mass     pseudopotential
     Ni               10.00    58.69300     Ni( 1.00)
     Mn               15.00    54.93800     Mn( 1.00)
     P                 5.00    30.97300     P ( 1.00)
     O                 6.00    15.99900     O ( 1.00)
     H                 1.00     1.00790     H ( 1.00)

     Starting magnetic structure 
     atomic species   magnetization
     Ni              1.000
     Mn              1.000
     P               1.000
     O               1.000
     H               0.000

     No symmetry found



   Cartesian axes

     site n.     atom                  positions (alat units)
         1        Ni     tau(   1) = (   0.2516924   0.8633449   1.7463431  )
         2        Mn     tau(   2) = (   0.4858702   0.7924072   1.4296398  )
         3        Ni     tau(   3) = (  -0.0004960   0.3052069   1.7433305  )
         4        Ni     tau(   4) = (   0.2564981   0.2439079   1.4294353  )
         5        Ni     tau(   5) = (   0.4974217   1.1099092   1.5983921  )
         6        Ni     tau(   6) = (   0.2522981   0.5514414   1.6004118  )
         7        P      tau(   7) = (   0.2082091   1.0035384   1.4306784  )
         8        P      tau(   8) = (   0.4616835   0.6681301   1.7674811  )
         9        P      tau(   9) = (   0.2867076   0.1153356   1.7548632  )
        10        P      tau(  10) = (   0.0394718   0.4432333   1.4316675  )
        11        O      tau(  11) = (   0.1330537   0.9306336   1.5703788  )
        12        O      tau(  12) = (   0.3824580   0.7326833   1.6196685  )
        13        O      tau(  13) = (   0.3632794   0.1756131   1.6084910  )
        14        O      tau(  14) = (   0.1181909   0.3720715   1.5705068  )
        15        O      tau(  15) = (   0.1497429   0.9117647   1.3026676  )
        16        O      tau(  16) = (   0.4024605   0.7699543   1.8833170  )
        17        O      tau(  17) = (   0.3436717   0.2148734   1.8743526  )
        18        O      tau(  18) = (   0.0995925   0.3561393   1.3016093  )
        19        O      tau(  19) = (   0.0985164   0.6018581   1.4374099  )
        20        O      tau(  20) = (   0.3415582   1.0599765   1.7584409  )
        21        O      tau(  21) = (   0.3722969   0.4384776   1.4449122  )
        22        O      tau(  22) = (   0.1186468   0.1181077   1.7426368  )
        23        O      tau(  23) = (   0.1302304   0.6725321   1.7481513  )
        24        O      tau(  24) = (   0.4019428   0.5092918   1.7599288  )
        25        O      tau(  25) = (   0.1467744   0.0543371   1.4323260  )
        26        O      tau(  26) = (   0.3746526   0.9957152   1.4432161  )
        27        Ni     tau(  27) = (   0.2413539   0.8509941   1.1121345  )
        28        Mn     tau(  28) = (   0.4917018   0.7787406   0.7768134  )
        29        Ni     tau(  29) = (   0.0044877   0.2932623   1.1138982  )
        30        Ni     tau(  30) = (   0.2563139   0.2275682   0.7805625  )
        31        Ni     tau(  31) = (   0.4969120   1.0949007   0.9459116  )
        32        Ni     tau(  32) = (   0.2488318   0.5341111   0.9469721  )
        33        P      tau(  33) = (   0.2076029   0.9882917   0.7835381  )
        34        P      tau(  34) = (   0.4577012   0.6460068   1.1076436  )
        35        P      tau(  35) = (   0.2881931   0.0932770   1.1104179  )
        36        P      tau(  36) = (   0.0392916   0.4238898   0.7837243  )
        37        O      tau(  37) = (   0.1306755   0.9148866   0.9233554  )
        38        O      tau(  38) = (   0.3789780   0.7172835   0.9680652  )
        39        O      tau(  39) = (   0.3654852   0.1662865   0.9702638  )
        40        O      tau(  40) = (   0.1163776   0.3546954   0.9254186  )
        41        O      tau(  41) = (   0.1502901   0.8969129   0.6541592  )
        42        O      tau(  42) = (   0.3974525   0.7354243   1.2370031  )
        43        O      tau(  43) = (   0.3483097   0.1789497   1.2412670  )
        44        O      tau(  44) = (   0.0974932   0.3376387   0.6529083  )
        45        O      tau(  45) = (   0.0984699   0.5818903   0.7881021  )
        46        O      tau(  46) = (   0.3459978   1.0405493   1.1018526  )
        47        O      tau(  47) = (   0.3731719   0.4204123   0.7945555  )
        48        O      tau(  48) = (   0.1223503   0.0989699   1.1000566  )
        49        O      tau(  49) = (   0.1235438   0.6536772   1.0980598  )
        50        O      tau(  50) = (   0.4004339   0.4872435   1.1047245  )
        51        O      tau(  51) = (   0.1476543   0.0398268   0.7872561  )
        52        O      tau(  52) = (   0.3728637   0.9843360   0.7931368  )
        53        Ni     tau(  53) = (   0.2406075   0.8410745   0.4603118  )
        54        Mn     tau(  54) = (   0.4909555   0.7688210   0.1249907  )
        55        Ni     tau(  55) = (   0.0037414   0.2833427   0.4620755  )
        56        Ni     tau(  56) = (   0.2555676   0.2176485   0.1287398  )
        57        Ni     tau(  57) = (   0.4961657   1.0849810   0.2940889  )
        58        Ni     tau(  58) = (   0.2480854   0.5241915   0.2951494  )
        59        P      tau(  59) = (   0.2068565   0.9783721   0.1317154  )
        60        P      tau(  60) = (   0.4569549   0.6360871   0.4558210  )
        61        P      tau(  61) = (   0.2874467   0.0833574   0.4585952  )
        62        P      tau(  62) = (   0.0385452   0.4139702   0.1319017  )
        63        O      tau(  63) = (   0.1299291   0.9049669   0.2715327  )
        64        O      tau(  64) = (   0.3782317   0.7073639   0.3162425  )
        65        O      tau(  65) = (   0.3647389   0.1563669   0.3184411  )
        66        O      tau(  66) = (   0.1156313   0.3447757   0.2735959  )
        67        O      tau(  67) = (   0.1495437   0.8869933   0.0023366  )
        68        O      tau(  68) = (   0.3967062   0.7255047   0.5851804  )
        69        O      tau(  69) = (   0.3475634   0.1690300   0.5894443  )
        70        O      tau(  70) = (   0.0967469   0.3277190   0.0010856  )
        71        O      tau(  71) = (   0.0977236   0.5719706   0.1362794  )
        72        O      tau(  72) = (   0.3452514   1.0306297   0.4500300  )
        73        O      tau(  73) = (   0.3724256   0.4104926   0.1427328  )
        74        O      tau(  74) = (   0.1216040   0.0890503   0.4482339  )
        75        O      tau(  75) = (   0.1227974   0.6437575   0.4462371  )
        76        O      tau(  76) = (   0.3996875   0.4773239   0.4529018  )
        77        O      tau(  77) = (   0.1469079   0.0299071   0.1354334  )
        78        O      tau(  78) = (   0.3721173   0.9744163   0.1413141  )
        79        Ni     tau(  79) = (   0.7511442   0.8590986   1.7465183  )
        80        Mn     tau(  80) = (   0.9851786   0.7929476   1.4293410  )
        81        Ni     tau(  81) = (   0.5099060   0.3149023   1.7767454  )
        82        Ni     tau(  82) = (   0.7562539   0.2440975   1.4309243  )
        83        Ni     tau(  83) = (   0.9966662   1.1069876   1.5954472  )
        84        Ni     tau(  84) = (   0.7501035   0.5484652   1.6044081  )
        85        P      tau(  85) = (   0.7074250   1.0033585   1.4315958  )
        86        P      tau(  86) = (   0.9633441   0.6641721   1.7673712  )
        87        P      tau(  87) = (   0.7881158   0.1083139   1.7616461  )
        88        P      tau(  88) = (   0.5391541   0.4408841   1.4350599  )
        89        O      tau(  89) = (   0.6330814   0.9308437   1.5713498  )
        90        O      tau(  90) = (   0.8832988   0.7267971   1.6201843  )
        91        O      tau(  91) = (   0.8626660   0.1747425   1.6135060  )
        92        O      tau(  92) = (   0.6161594   0.3680366   1.5731814  )
        93        O      tau(  93) = (   0.6491944   0.9122217   1.3030297  )
        94        O      tau(  94) = (   0.9010897   0.7628351   1.8841046  )
        95        O      tau(  95) = (   0.8533634   0.2040969   1.8804377  )
        96        O      tau(  96) = (   0.5988697   0.3546669   1.3037880  )
        97        O      tau(  97) = (   0.5982753   0.5999241   1.4409412  )
        98        O      tau(  98) = (   0.8444194   1.0540898   1.7576604  )
        99        O      tau(  99) = (   0.8730497   0.4376093   1.4459304  )
       100        O      tau( 100) = (   0.6208336   0.1136689   1.7512496  )
       101        O      tau( 101) = (   0.6284804   0.6736478   1.7466144  )
       102        O      tau( 102) = (   0.9101301   0.5023464   1.7626648  )
       103        O      tau( 103) = (   0.6477665   0.0546849   1.4347078  )
       104        O      tau( 104) = (   0.8741629   0.9946264   1.4428581  )
       105        Ni     tau( 105) = (   0.7413539   0.8509941   1.1121345  )
       106        Mn     tau( 106) = (   0.9917018   0.7787406   0.7768134  )
       107        Ni     tau( 107) = (   0.5044877   0.2932623   1.1138982  )
       108        Ni     tau( 108) = (   0.7563139   0.2275682   0.7805625  )
       109        Ni     tau( 109) = (   0.9969120   1.0949007   0.9459116  )
       110        Ni     tau( 110) = (   0.7488318   0.5341111   0.9469721  )
       111        P      tau( 111) = (   0.7076029   0.9882917   0.7835381  )
       112        P      tau( 112) = (   0.9577012   0.6460068   1.1076436  )
       113        P      tau( 113) = (   0.7881931   0.0932770   1.1104179  )
       114        P      tau( 114) = (   0.5392916   0.4238898   0.7837243  )
       115        O      tau( 115) = (   0.6306755   0.9148866   0.9233554  )
       116        O      tau( 116) = (   0.8789780   0.7172835   0.9680652  )
       117        O      tau( 117) = (   0.8654852   0.1662865   0.9702638  )
       118        O      tau( 118) = (   0.6163776   0.3546954   0.9254186  )
       119        O      tau( 119) = (   0.6502901   0.8969129   0.6541592  )
       120        O      tau( 120) = (   0.8974525   0.7354243   1.2370031  )
       121        O      tau( 121) = (   0.8483097   0.1789497   1.2412670  )
       122        O      tau( 122) = (   0.5974932   0.3376387   0.6529083  )
       123        O      tau( 123) = (   0.5984699   0.5818903   0.7881021  )
       124        O      tau( 124) = (   0.8459978   1.0405493   1.1018526  )
       125        O      tau( 125) = (   0.8731719   0.4204123   0.7945555  )
       126        O      tau( 126) = (   0.6223503   0.0989699   1.1000566  )
       127        O      tau( 127) = (   0.6235438   0.6536772   1.0980598  )
       128        O      tau( 128) = (   0.9004339   0.4872435   1.1047245  )
       129        O      tau( 129) = (   0.6476543   0.0398268   0.7872561  )
       130        O      tau( 130) = (   0.8728637   0.9843360   0.7931368  )
       131        Ni     tau( 131) = (   0.7406075   0.8410745   0.4603118  )
       132        Mn     tau( 132) = (   0.9909555   0.7688210   0.1249907  )
       133        Ni     tau( 133) = (   0.5037414   0.2833427   0.4620755  )
       134        Ni     tau( 134) = (   0.7555676   0.2176485   0.1287398  )
       135        Ni     tau( 135) = (   0.9961657   1.0849810   0.2940889  )
       136        Ni     tau( 136) = (   0.7480854   0.5241915   0.2951494  )
       137        P      tau( 137) = (   0.7068565   0.9783721   0.1317154  )
       138        P      tau( 138) = (   0.9569549   0.6360871   0.4558210  )
       139        P      tau( 139) = (   0.7874467   0.0833574   0.4585952  )
       140        P      tau( 140) = (   0.5385452   0.4139702   0.1319017  )
       141        O      tau( 141) = (   0.6299291   0.9049669   0.2715327  )
       142        O      tau( 142) = (   0.8782317   0.7073639   0.3162425  )
       143        O      tau( 143) = (   0.8647389   0.1563669   0.3184411  )
       144        O      tau( 144) = (   0.6156313   0.3447757   0.2735959  )
       145        O      tau( 145) = (   0.6495437   0.8869933   0.0023366  )
       146        O      tau( 146) = (   0.8967062   0.7255047   0.5851804  )
       147        O      tau( 147) = (   0.8475634   0.1690300   0.5894443  )
       148        O      tau( 148) = (   0.5967469   0.3277190   0.0010856  )
       149        O      tau( 149) = (   0.5977236   0.5719706   0.1362794  )
       150        O      tau( 150) = (   0.8452514   1.0306297   0.4500300  )
       151        O      tau( 151) = (   0.8724256   0.4104926   0.1427328  )
       152        O      tau( 152) = (   0.6216040   0.0890503   0.4482339  )
       153        O      tau( 153) = (   0.6227974   0.6437575   0.4462371  )
       154        O      tau( 154) = (   0.8996875   0.4773239   0.4529018  )
       155        O      tau( 155) = (   0.6469079   0.0299071   0.1354334  )
       156        O      tau( 156) = (   0.8721173   0.9744163   0.1413141  )
       157        O      tau( 157) = (   0.6257083   0.3971071   1.9134588  )
       158        H      tau( 158) = (   0.7088529   0.3349784   1.9393986  )

     -------------------------------------------------
     Parameters for Dispersion (Grimme-D2) Correction:
     -------------------------------------------------
       atom      VdW radius       C_6     

        Ni         2.952        374.666
        Mn         2.952        374.666
        P          3.222        271.980
        O          2.536         24.284
        H          1.892          4.857

     number of k points=     1  Gaussian smearing, width (Ry)=  0.0100
                       cart. coord. in units 2pi/alat
        k(    1) = (   0.0000000   0.0000000   0.0000000), wk =   1.0000000

     Dense  grid:  1938023 G-vectors     FFT dimensions: ( 125, 144, 450)

     Smooth grid:   490328 G-vectors     FFT dimensions: (  80,  90, 288)

     Estimated max dynamical RAM per process >     326.29 MB

     Estimated total dynamical RAM >      20.39 GB

     Check: negative core charge=   -0.000001
     Generating pointlists ...
     new r_m :   0.0813 (alat units)  1.4154 (a.u.) for type    1
     new r_m :   0.0904 (alat units)  1.5731 (a.u.) for type    2
     new r_m :   0.0681 (alat units)  1.1850 (a.u.) for type    3
     new r_m :   0.0441 (alat units)  0.7682 (a.u.) for type    4
     new r_m :   0.0441 (alat units)  0.7682 (a.u.) for type    5

     Initial potential from superposition of free atoms

     starting charge    1092.8893, renormalised to    1093.0000

     negative rho (up, down):  1.395E-03 4.540E-04
 
     Adding external electric field

     Computed dipole along edir(3) : 
        Dipole                1.6577 Ry au,          4.2136 Debye
        Dipole field          0.0010 Ry au, 
 
        Potential amp.       -0.1119 Ry
        Total length         55.1515 bohr
 
 
     Adding external electric field

     Computed dipole along edir(3) : 
        Dipole                1.6577 Ry au,          4.2136 Debye
        Dipole field          0.0010 Ry au, 
 
        Potential amp.       -0.1119 Ry
        Total length         55.1515 bohr
 
     Starting wfcs are  815 randomized atomic wfcs

     total cpu time spent up to now is       11.3 secs

     Self-consistent Calculation

     iteration #  1     ecut=    50.00 Ry     beta= 0.10
     Davidson diagonalization with overlap
     ethr =  1.00E-02,  avg # of iterations =  6.0

     negative rho (up, down):  3.925E-01 4.102E-06
 
     Adding external electric field

     Computed dipole along edir(3) : 
        Dipole               -3.5802 Ry au,         -9.1000 Debye
        Dipole field         -0.0022 Ry au, 
 
        Potential amp.        0.2417 Ry
        Total length         55.1515 bohr
 
 
     Adding external electric field

     Computed dipole along edir(3) : 
        Dipole               -3.5802 Ry au,         -9.1000 Debye
        Dipole field         -0.0022 Ry au, 
 
        Potential amp.        0.2417 Ry
        Total length         55.1515 bohr
 

     total cpu time spent up to now is       41.7 secs

     total energy              =   -7519.26240535 Ry
     estimated scf accuracy    <     801.68365003 Ry

     total magnetization       =   219.00 Bohr mag/cell
     absolute magnetization    =   307.55 Bohr mag/cell

     iteration #  2     ecut=    50.00 Ry     beta= 0.10
     Davidson diagonalization with overlap
     ethr =  1.00E-02,  avg # of iterations =  2.0

     negative rho (up, down):  3.668E-01 3.292E-06
 
     Adding external electric field

     Computed dipole along edir(3) : 
        Dipole               -2.4827 Ry au,         -6.3103 Debye
        Dipole field         -0.0015 Ry au, 
 
        Potential amp.        0.1676 Ry
        Total length         55.1515 bohr
 
 
     Adding external electric field

     Computed dipole along edir(3) : 
        Dipole               -2.4827 Ry au,         -6.3103 Debye
        Dipole field         -0.0015 Ry au, 
 
        Potential amp.        0.1676 Ry
        Total length         55.1515 bohr
 

     total cpu time spent up to now is       60.2 secs

     total energy              =   -7601.46422180 Ry
     estimated scf accuracy    <     196.04412137 Ry

     total magnetization       =   156.76 Bohr mag/cell
     absolute magnetization    =   205.71 Bohr mag/cell

     iteration #  3     ecut=    50.00 Ry     beta= 0.10
     Davidson diagonalization with overlap
     ethr =  1.00E-02,  avg # of iterations =  1.5

     negative rho (up, down):  3.254E-01 3.350E-06
 
     Adding external electric field

     Computed dipole along edir(3) : 
        Dipole               -2.0937 Ry au,         -5.3216 Debye
        Dipole field         -0.0013 Ry au, 
 
        Potential amp.        0.1414 Ry
        Total length         55.1515 bohr
 
 
     Adding external electric field

     Computed dipole along edir(3) : 
        Dipole               -2.0937 Ry au,         -5.3216 Debye
        Dipole field         -0.0013 Ry au, 
 
        Potential amp.        0.1414 Ry
        Total length         55.1515 bohr
 

     total cpu time spent up to now is       74.6 secs

     total energy              =   -7632.25079195 Ry
     estimated scf accuracy    <     103.71489836 Ry

     total magnetization       =   133.32 Bohr mag/cell
     absolute magnetization    =   184.29 Bohr mag/cell

     iteration #  4     ecut=    50.00 Ry     beta= 0.10
     Davidson diagonalization with overlap
     ethr =  9.49E-03,  avg # of iterations =  1.0

     negative rho (up, down):  2.543E-01 1.169E-06
 
     Adding external electric field

     Computed dipole along edir(3) : 
        Dipole               -1.9440 Ry au,         -4.9413 Debye
        Dipole field         -0.0012 Ry au, 
 
        Potential amp.        0.1313 Ry
        Total length         55.1515 bohr
 
 
     Adding external electric field

     Computed dipole along edir(3) : 
        Dipole               -1.9440 Ry au,         -4.9413 Debye
        Dipole field         -0.0012 Ry au, 
 
        Potential amp.        0.1313 Ry
        Total length         55.1515 bohr
 

     total cpu time spent up to now is       88.2 secs

     total energy              =   -7664.63074948 Ry
     estimated scf accuracy    <      81.54579401 Ry

     total magnetization       =   117.77 Bohr mag/cell
     absolute magnetization    =   169.85 Bohr mag/cell

     iteration #  5     ecut=    50.00 Ry     beta= 0.10
     Davidson diagonalization with overlap
     ethr =  7.46E-03,  avg # of iterations =  1.0

     negative rho (up, down):  2.722E-02 1.517E-07
 
     Adding external electric field

     Computed dipole along edir(3) : 
        Dipole               -1.4762 Ry au,         -3.7522 Debye
        Dipole field         -0.0009 Ry au, 
 
        Potential amp.        0.0997 Ry
        Total length         55.1515 bohr
 
 
     Adding external electric field

     Computed dipole along edir(3) : 
        Dipole               -1.4762 Ry au,         -3.7522 Debye
        Dipole field         -0.0009 Ry au, 
 
        Potential amp.        0.0997 Ry
        Total length         55.1515 bohr
 

     total cpu time spent up to now is      100.5 secs

     total energy              =   -7724.23099003 Ry
     estimated scf accuracy    <      64.93101765 Ry

     total magnetization       =    97.12 Bohr mag/cell
     absolute magnetization    =   151.65 Bohr mag/cell

     iteration #  6     ecut=    50.00 Ry     beta= 0.10
     Davidson diagonalization with overlap
     ethr =  5.94E-03,  avg # of iterations =  1.0

     negative rho (up, down):  4.804E-04 8.453E-04
 
     Adding external electric field

     Computed dipole along edir(3) : 
        Dipole               -1.1063 Ry au,         -2.8119 Debye
        Dipole field         -0.0007 Ry au, 
 
        Potential amp.        0.0747 Ry
        Total length         55.1515 bohr
 
 
     Adding external electric field

     Computed dipole along edir(3) : 
        Dipole               -1.1063 Ry au,         -2.8119 Debye
        Dipole field         -0.0007 Ry au, 
 
        Potential amp.        0.0747 Ry
        Total length         55.1515 bohr
 

     total cpu time spent up to now is      113.7 secs

     total energy              =   -7736.12524581 Ry
     estimated scf accuracy    <      13.09978538 Ry

     total magnetization       =    91.00 Bohr mag/cell
     absolute magnetization    =   123.64 Bohr mag/cell

     iteration #  7     ecut=    50.00 Ry     beta= 0.10
     Davidson diagonalization with overlap
     ethr =  1.20E-03,  avg # of iterations =  6.5

     negative rho (up, down):  4.616E-04 8.371E-04
 
     Adding external electric field

     Computed dipole along edir(3) : 
        Dipole               -1.1113 Ry au,         -2.8247 Debye
        Dipole field         -0.0007 Ry au, 
 
        Potential amp.        0.0750 Ry
        Total length         55.1515 bohr
 
 
     Adding external electric field

     Computed dipole along edir(3) : 
        Dipole               -1.1113 Ry au,         -2.8247 Debye
        Dipole field         -0.0007 Ry au, 
 
        Potential amp.        0.0750 Ry
        Total length         55.1515 bohr
 

     total cpu time spent up to now is      137.7 secs

     total energy              =   -7738.31248764 Ry
     estimated scf accuracy    <      20.41195480 Ry

     total magnetization       =    70.30 Bohr mag/cell
     absolute magnetization    =    87.35 Bohr mag/cell

     iteration #  8     ecut=    50.00 Ry     beta= 0.10
     Davidson diagonalization with overlap
     ethr =  1.20E-03,  avg # of iterations =  1.0

     negative rho (up, down):  4.536E-04 8.106E-04
 
     Adding external electric field

     Computed dipole along edir(3) : 
        Dipole               -1.1070 Ry au,         -2.8137 Debye
        Dipole field         -0.0007 Ry au, 
 
        Potential amp.        0.0747 Ry
        Total length         55.1515 bohr
 
 
     Adding external electric field

     Computed dipole along edir(3) : 
        Dipole               -1.1070 Ry au,         -2.8137 Debye
        Dipole field         -0.0007 Ry au, 
 
        Potential amp.        0.0747 Ry
        Total length         55.1515 bohr
 

     total cpu time spent up to now is      150.6 secs

     total energy              =   -7738.34140352 Ry
     estimated scf accuracy    <      19.72790330 Ry

     total magnetization       =    70.55 Bohr mag/cell
     absolute magnetization    =    87.13 Bohr mag/cell

     iteration #  9     ecut=    50.00 Ry     beta= 0.10
     Davidson diagonalization with overlap
     ethr =  1.20E-03,  avg # of iterations =  1.0

     negative rho (up, down):  6.208E-04 9.615E-04
 
     Adding external electric field

     Computed dipole along edir(3) : 
        Dipole               -1.0445 Ry au,         -2.6549 Debye
        Dipole field         -0.0006 Ry au, 
 
        Potential amp.        0.0705 Ry
        Total length         55.1515 bohr
 
 
     Adding external electric field

     Computed dipole along edir(3) : 
        Dipole               -1.0445 Ry au,         -2.6549 Debye
        Dipole field         -0.0006 Ry au, 
 
        Potential amp.        0.0705 Ry
        Total length         55.1515 bohr
 

     total cpu time spent up to now is      163.7 secs

     total energy              =   -7738.22153813 Ry
     estimated scf accuracy    <      19.22504985 Ry

     total magnetization       =    70.74 Bohr mag/cell
     absolute magnetization    =    86.99 Bohr mag/cell

     iteration # 10     ecut=    50.00 Ry     beta= 0.10
     Davidson diagonalization with overlap
     ethr =  1.20E-03,  avg # of iterations =  1.0

     negative rho (up, down):  3.949E-03 5.304E-03
 
     Adding external electric field

     Computed dipole along edir(3) : 
        Dipole               -0.8651 Ry au,         -2.1989 Debye
        Dipole field         -0.0005 Ry au, 
 
        Potential amp.        0.0584 Ry
        Total length         55.1515 bohr
 
 
     Adding external electric field

     Computed dipole along edir(3) : 
        Dipole               -0.8651 Ry au,         -2.1989 Debye
        Dipole field         -0.0005 Ry au, 
 
        Potential amp.        0.0584 Ry
        Total length         55.1515 bohr
 

     total cpu time spent up to now is      177.0 secs

     total energy              =   -7737.83097470 Ry
     estimated scf accuracy    <      16.79809369 Ry

     total magnetization       =    71.13 Bohr mag/cell
     absolute magnetization    =    86.19 Bohr mag/cell

     iteration # 11     ecut=    50.00 Ry     beta= 0.10
     Davidson diagonalization with overlap
     ethr =  1.20E-03,  avg # of iterations =  1.0

     negative rho (up, down):  3.803E-03 5.431E-03
 
     Adding external electric field

     Computed dipole along edir(3) : 
        Dipole               -0.8559 Ry au,         -2.1754 Debye
        Dipole field         -0.0005 Ry au, 
 
        Potential amp.        0.0578 Ry
        Total length         55.1515 bohr
 
 
     Adding external electric field

     Computed dipole along edir(3) : 
        Dipole               -0.8559 Ry au,         -2.1754 Debye
        Dipole field         -0.0005 Ry au, 
 
        Potential amp.        0.0578 Ry
        Total length         55.1515 bohr
 

     total cpu time spent up to now is      189.9 secs

     total energy              =   -7738.09388691 Ry
     estimated scf accuracy    <       7.81290595 Ry

     total magnetization       =    82.15 Bohr mag/cell
     absolute magnetization    =    93.04 Bohr mag/cell

     iteration # 12     ecut=    50.00 Ry     beta= 0.10
     Davidson diagonalization with overlap
     ethr =  7.15E-04,  avg # of iterations =  1.0

     negative rho (up, down):  2.426E-03 4.630E-03
 
     Adding external electric field

     Computed dipole along edir(3) : 
        Dipole               -0.8395 Ry au,         -2.1339 Debye
        Dipole field         -0.0005 Ry au, 
 
        Potential amp.        0.0567 Ry
        Total length         55.1515 bohr
 
 
     Adding external electric field

     Computed dipole along edir(3) : 
        Dipole               -0.8395 Ry au,         -2.1339 Debye
        Dipole field         -0.0005 Ry au, 
 
        Potential amp.        0.0567 Ry
        Total length         55.1515 bohr
 

     total cpu time spent up to now is      202.1 secs

     total energy              =   -7738.05840662 Ry
     estimated scf accuracy    <       6.70676555 Ry

     total magnetization       =    83.00 Bohr mag/cell
     absolute magnetization    =    92.95 Bohr mag/cell

     iteration # 13     ecut=    50.00 Ry     beta= 0.10
     Davidson diagonalization with overlap
     ethr =  6.14E-04,  avg # of iterations =  1.5

     negative rho (up, down):  1.960E-03 4.155E-03
 
     Adding external electric field

     Computed dipole along edir(3) : 
        Dipole               -0.8540 Ry au,         -2.1706 Debye
        Dipole field         -0.0005 Ry au, 
 
        Potential amp.        0.0577 Ry
        Total length         55.1515 bohr
 
 
     Adding external electric field

     Computed dipole along edir(3) : 
        Dipole               -0.8540 Ry au,         -2.1706 Debye
        Dipole field         -0.0005 Ry au, 
 
        Potential amp.        0.0577 Ry
        Total length         55.1515 bohr
 

     total cpu time spent up to now is      215.9 secs

     total energy              =   -7738.07478447 Ry
     estimated scf accuracy    <       3.72645522 Ry

     total magnetization       =    85.42 Bohr mag/cell
     absolute magnetization    =    93.82 Bohr mag/cell

     iteration # 14     ecut=    50.00 Ry     beta= 0.10
     Davidson diagonalization with overlap
     ethr =  3.41E-04,  avg # of iterations =  1.5

     negative rho (up, down):  2.216E-04 7.877E-04
 
     Adding external electric field

     Computed dipole along edir(3) : 
        Dipole               -1.0991 Ry au,         -2.7935 Debye
        Dipole field         -0.0007 Ry au, 
 
        Potential amp.        0.0742 Ry
        Total length         55.1515 bohr
 
 
     Adding external electric field

     Computed dipole along edir(3) : 
        Dipole               -1.0991 Ry au,         -2.7935 Debye
        Dipole field         -0.0007 Ry au, 
 
        Potential amp.        0.0742 Ry
        Total length         55.1515 bohr
 

     total cpu time spent up to now is      229.0 secs

     total energy              =   -7738.02750437 Ry
     estimated scf accuracy    <       3.60541097 Ry

     total magnetization       =    85.34 Bohr mag/cell
     absolute magnetization    =    93.41 Bohr mag/cell

     iteration # 15     ecut=    50.00 Ry     beta= 0.10
     Davidson diagonalization with overlap
     ethr =  3.30E-04,  avg # of iterations =  2.0

     negative rho (up, down):  1.164E-04 5.903E-04
 
     Adding external electric field

     Computed dipole along edir(3) : 
        Dipole               -1.0579 Ry au,         -2.6888 Debye
        Dipole field         -0.0006 Ry au, 
 
        Potential amp.        0.0714 Ry
        Total length         55.1515 bohr
 
 
     Adding external electric field

     Computed dipole along edir(3) : 
        Dipole               -1.0579 Ry au,         -2.6888 Debye
        Dipole field         -0.0006 Ry au, 
 
        Potential amp.        0.0714 Ry
        Total length         55.1515 bohr
 

     total cpu time spent up to now is      243.8 secs

     total energy              =   -7738.15228922 Ry
     estimated scf accuracy    <       1.39405109 Ry

     total magnetization       =    90.82 Bohr mag/cell
     absolute magnetization    =    96.05 Bohr mag/cell

     iteration # 16     ecut=    50.00 Ry     beta= 0.10
     Davidson diagonalization with overlap
     ethr =  1.28E-04,  avg # of iterations =  3.5

     negative rho (up, down):  1.175E-04 5.541E-04
 
     Adding external electric field

     Computed dipole along edir(3) : 
        Dipole               -1.0180 Ry au,         -2.5874 Debye
        Dipole field         -0.0006 Ry au, 
 
        Potential amp.        0.0687 Ry
        Total length         55.1515 bohr
 
 
     Adding external electric field

     Computed dipole along edir(3) : 
        Dipole               -1.0180 Ry au,         -2.5874 Debye
        Dipole field         -0.0006 Ry au, 
 
        Potential amp.        0.0687 Ry
        Total length         55.1515 bohr
 

     total cpu time spent up to now is      258.5 secs

     total energy              =   -7738.17673446 Ry
     estimated scf accuracy    <       1.06075551 Ry

     total magnetization       =    89.97 Bohr mag/cell
     absolute magnetization    =    95.29 Bohr mag/cell

     iteration # 17     ecut=    50.00 Ry     beta= 0.10
     Davidson diagonalization with overlap
     ethr =  9.70E-05,  avg # of iterations =  2.0

     negative rho (up, down):  5.989E-04 1.023E-03
 
     Adding external electric field

     Computed dipole along edir(3) : 
        Dipole               -0.8855 Ry au,         -2.2507 Debye
        Dipole field         -0.0005 Ry au, 
 
        Potential amp.        0.0598 Ry
        Total length         55.1515 bohr
 
 
     Adding external electric field

     Computed dipole along edir(3) : 
        Dipole               -0.8855 Ry au,         -2.2507 Debye
        Dipole field         -0.0005 Ry au, 
 
        Potential amp.        0.0598 Ry
        Total length         55.1515 bohr
 

     total cpu time spent up to now is      272.8 secs

     total energy              =   -7738.27469269 Ry
     estimated scf accuracy    <       0.99507845 Ry

     total magnetization       =    89.88 Bohr mag/cell
     absolute magnetization    =    95.22 Bohr mag/cell

     iteration # 18     ecut=    50.00 Ry     beta= 0.10
     Davidson diagonalization with overlap
     ethr =  9.10E-05,  avg # of iterations =  2.0

     negative rho (up, down):  6.174E-06 1.816E-05
 
     Adding external electric field

     Computed dipole along edir(3) : 
        Dipole               -0.8531 Ry au,         -2.1683 Debye
        Dipole field         -0.0005 Ry au, 
 
        Potential amp.        0.0576 Ry
        Total length         55.1515 bohr
 
 
     Adding external electric field

     Computed dipole along edir(3) : 
        Dipole               -0.8531 Ry au,         -2.1683 Debye
        Dipole field         -0.0005 Ry au, 
 
        Potential amp.        0.0576 Ry
        Total length         55.1515 bohr
 

     total cpu time spent up to now is      287.4 secs

     total energy              =   -7738.27605905 Ry
     estimated scf accuracy    <       0.81706540 Ry

     total magnetization       =    90.05 Bohr mag/cell
     absolute magnetization    =    94.67 Bohr mag/cell

     iteration # 19     ecut=    50.00 Ry     beta= 0.10
     Davidson diagonalization with overlap
     ethr =  7.48E-05,  avg # of iterations = 11.0

     negative rho (up, down):  2.427E-03 1.788E-03
 
     Adding external electric field

     Computed dipole along edir(3) : 
        Dipole               -1.0200 Ry au,         -2.5927 Debye
        Dipole field         -0.0006 Ry au, 
 
        Potential amp.        0.0689 Ry
        Total length         55.1515 bohr
 
 
     Adding external electric field

     Computed dipole along edir(3) : 
        Dipole               -1.0200 Ry au,         -2.5927 Debye
        Dipole field         -0.0006 Ry au, 
 
        Potential amp.        0.0689 Ry
        Total length         55.1515 bohr
 

     total cpu time spent up to now is      309.7 secs

     total energy              =   -7738.28319064 Ry
     estimated scf accuracy    <       1.47597508 Ry

     total magnetization       =    88.03 Bohr mag/cell
     absolute magnetization    =    90.68 Bohr mag/cell

     iteration # 20     ecut=    50.00 Ry     beta= 0.10
     Davidson diagonalization with overlap
     ethr =  7.48E-05,  avg # of iterations =  1.5

     negative rho (up, down):  7.987E-03 6.840E-03
 
     Adding external electric field

     Computed dipole along edir(3) : 
        Dipole               -1.1557 Ry au,         -2.9376 Debye
        Dipole field         -0.0007 Ry au, 
 
        Potential amp.        0.0780 Ry
        Total length         55.1515 bohr
 
 
     Adding external electric field

     Computed dipole along edir(3) : 
        Dipole               -1.1557 Ry au,         -2.9376 Debye
        Dipole field         -0.0007 Ry au, 
 
        Potential amp.        0.0780 Ry
        Total length         55.1515 bohr
 

     total cpu time spent up to now is      323.0 secs

     total energy              =   -7738.31597068 Ry
     estimated scf accuracy    <       0.56525426 Ry

     total magnetization       =    88.78 Bohr mag/cell
     absolute magnetization    =    91.18 Bohr mag/cell

     iteration # 21     ecut=    50.00 Ry     beta= 0.10
     Davidson diagonalization with overlap
     ethr =  5.17E-05,  avg # of iterations =  2.0

     negative rho (up, down):  1.095E-02 9.448E-03
 
     Adding external electric field

     Computed dipole along edir(3) : 
        Dipole               -1.2076 Ry au,         -3.0694 Debye
        Dipole field         -0.0007 Ry au, 
 
        Potential amp.        0.0815 Ry
        Total length         55.1515 bohr
 
 
     Adding external electric field

     Computed dipole along edir(3) : 
        Dipole               -1.2076 Ry au,         -3.0694 Debye
        Dipole field         -0.0007 Ry au, 
 
        Potential amp.        0.0815 Ry
        Total length         55.1515 bohr
 

     total cpu time spent up to now is      336.5 secs

     total energy              =   -7738.33424157 Ry
     estimated scf accuracy    <       0.31404788 Ry

     total magnetization       =    89.95 Bohr mag/cell
     absolute magnetization    =    92.04 Bohr mag/cell

     iteration # 22     ecut=    50.00 Ry     beta= 0.10
     Davidson diagonalization with overlap
     ethr =  2.87E-05,  avg # of iterations =  2.5

     negative rho (up, down):  1.079E-02 9.260E-03
 
     Adding external electric field

     Computed dipole along edir(3) : 
        Dipole               -1.1925 Ry au,         -3.0310 Debye
        Dipole field         -0.0007 Ry au, 
 
        Potential amp.        0.0805 Ry
        Total length         55.1515 bohr
 
 
     Adding external electric field

     Computed dipole along edir(3) : 
        Dipole               -1.1925 Ry au,         -3.0310 Debye
        Dipole field         -0.0007 Ry au, 
 
        Potential amp.        0.0805 Ry
        Total length         55.1515 bohr
 

     total cpu time spent up to now is      351.2 secs

     total energy              =   -7738.33755890 Ry
     estimated scf accuracy    <       0.34515788 Ry

     total magnetization       =    90.33 Bohr mag/cell
     absolute magnetization    =    92.31 Bohr mag/cell

     iteration # 23     ecut=    50.00 Ry     beta= 0.10
     Davidson diagonalization with overlap
     ethr =  2.87E-05,  avg # of iterations =  1.5

     negative rho (up, down):  1.178E-03 1.515E-04
 
     Adding external electric field

     Computed dipole along edir(3) : 
        Dipole               -0.7814 Ry au,         -1.9862 Debye
        Dipole field         -0.0005 Ry au, 
 
        Potential amp.        0.0528 Ry
        Total length         55.1515 bohr
 
 
     Adding external electric field

     Computed dipole along edir(3) : 
        Dipole               -0.7814 Ry au,         -1.9862 Debye
        Dipole field         -0.0005 Ry au, 
 
        Potential amp.        0.0528 Ry
        Total length         55.1515 bohr
 

     total cpu time spent up to now is      364.5 secs

     total energy              =   -7738.26800691 Ry
     estimated scf accuracy    <       0.33237588 Ry

     total magnetization       =    90.31 Bohr mag/cell
     absolute magnetization    =    92.17 Bohr mag/cell

     iteration # 24     ecut=    50.00 Ry     beta= 0.10
     Davidson diagonalization with overlap
     ethr =  2.87E-05,  avg # of iterations = 12.5

     negative rho (up, down):  2.577E-03 1.293E-03
 
     Adding external electric field

     Computed dipole along edir(3) : 
        Dipole               -0.8896 Ry au,         -2.2610 Debye
        Dipole field         -0.0005 Ry au, 
 
        Potential amp.        0.0601 Ry
        Total length         55.1515 bohr
 
 
     Adding external electric field

     Computed dipole along edir(3) : 
        Dipole               -0.8896 Ry au,         -2.2610 Debye
        Dipole field         -0.0005 Ry au, 
 
        Potential amp.        0.0601 Ry
        Total length         55.1515 bohr
 

     total cpu time spent up to now is      391.1 secs

     total energy              =   -7738.31407641 Ry
     estimated scf accuracy    <       0.22941071 Ry

     total magnetization       =    90.15 Bohr mag/cell
     absolute magnetization    =    91.19 Bohr mag/cell

     iteration # 25     ecut=    50.00 Ry     beta= 0.10
     Davidson diagonalization with overlap
     ethr =  2.10E-05,  avg # of iterations =  1.5

     negative rho (up, down):  2.804E-03 2.007E-03
 
     Adding external electric field

     Computed dipole along edir(3) : 
        Dipole               -1.0143 Ry au,         -2.5782 Debye
        Dipole field         -0.0006 Ry au, 
 
        Potential amp.        0.0685 Ry
        Total length         55.1515 bohr
 
 
     Adding external electric field

     Computed dipole along edir(3) : 
        Dipole               -1.0143 Ry au,         -2.5782 Debye
        Dipole field         -0.0006 Ry au, 
 
        Potential amp.        0.0685 Ry
        Total length         55.1515 bohr
 

     total cpu time spent up to now is      404.2 secs

     total energy              =   -7738.33339031 Ry
     estimated scf accuracy    <       0.25266798 Ry

     total magnetization       =    89.79 Bohr mag/cell
     absolute magnetization    =    90.80 Bohr mag/cell

     iteration # 26     ecut=    50.00 Ry     beta= 0.10
     Davidson diagonalization with overlap
     ethr =  2.10E-05,  avg # of iterations =  2.0

     negative rho (up, down):  4.489E-03 3.331E-03
 
     Adding external electric field

     Computed dipole along edir(3) : 
        Dipole               -0.8583 Ry au,         -2.1815 Debye
        Dipole field         -0.0005 Ry au, 
 
        Potential amp.        0.0579 Ry
        Total length         55.1515 bohr
 
 
     Adding external electric field

     Computed dipole along edir(3) : 
        Dipole               -0.8583 Ry au,         -2.1815 Debye
        Dipole field         -0.0005 Ry au, 
 
        Potential amp.        0.0579 Ry
        Total length         55.1515 bohr
 

     total cpu time spent up to now is      418.7 secs

     total energy              =   -7738.32339289 Ry
     estimated scf accuracy    <       0.27688418 Ry

     total magnetization       =    89.91 Bohr mag/cell
     absolute magnetization    =    91.10 Bohr mag/cell

     iteration # 27     ecut=    50.00 Ry     beta= 0.10
     Davidson diagonalization with overlap
     ethr =  2.10E-05,  avg # of iterations =  1.0

     negative rho (up, down):  7.163E-03 4.733E-03
 
     Adding external electric field

     Computed dipole along edir(3) : 
        Dipole               -0.9106 Ry au,         -2.3146 Debye
        Dipole field         -0.0006 Ry au, 
 
        Potential amp.        0.0615 Ry
        Total length         55.1515 bohr
 
 
     Adding external electric field

     Computed dipole along edir(3) : 
        Dipole               -0.9106 Ry au,         -2.3146 Debye
        Dipole field         -0.0006 Ry au, 
 
        Potential amp.        0.0615 Ry
        Total length         55.1515 bohr
 

     total cpu time spent up to now is      431.0 secs

     total energy              =   -7738.30908981 Ry
     estimated scf accuracy    <       0.26222502 Ry

     total magnetization       =    89.72 Bohr mag/cell
     absolute magnetization    =    90.80 Bohr mag/cell

     iteration # 28     ecut=    50.00 Ry     beta= 0.10
     Davidson diagonalization with overlap
     ethr =  2.10E-05,  avg # of iterations =  2.0

     negative rho (up, down):  4.571E-05 1.682E-06
 
     Adding external electric field

     Computed dipole along edir(3) : 
        Dipole               -0.9040 Ry au,         -2.2977 Debye
        Dipole field         -0.0006 Ry au, 
 
        Potential amp.        0.0610 Ry
        Total length         55.1515 bohr
 
 
     Adding external electric field

     Computed dipole along edir(3) : 
        Dipole               -0.9040 Ry au,         -2.2977 Debye
        Dipole field         -0.0006 Ry au, 
 
        Potential amp.        0.0610 Ry
        Total length         55.1515 bohr
 

     total cpu time spent up to now is      444.2 secs

     total energy              =   -7738.29495925 Ry
     estimated scf accuracy    <       0.19945014 Ry

     total magnetization       =    89.81 Bohr mag/cell
     absolute magnetization    =    90.81 Bohr mag/cell

     iteration # 29     ecut=    50.00 Ry     beta= 0.10
     Davidson diagonalization with overlap
     ethr =  1.82E-05,  avg # of iterations =  2.5

     negative rho (up, down):  4.493E-05 1.714E-06
 
     Adding external electric field

     Computed dipole along edir(3) : 
        Dipole               -0.9059 Ry au,         -2.3027 Debye
        Dipole field         -0.0006 Ry au, 
 
        Potential amp.        0.0612 Ry
        Total length         55.1515 bohr
 
 
     Adding external electric field

     Computed dipole along edir(3) : 
        Dipole               -0.9059 Ry au,         -2.3027 Debye
        Dipole field         -0.0006 Ry au, 
 
        Potential amp.        0.0612 Ry
        Total length         55.1515 bohr
 

     total cpu time spent up to now is      457.9 secs

     total energy              =   -7738.30538370 Ry
     estimated scf accuracy    <       0.22482139 Ry

     total magnetization       =    89.23 Bohr mag/cell
     absolute magnetization    =    90.53 Bohr mag/cell

     iteration # 30     ecut=    50.00 Ry     beta= 0.10
     Davidson diagonalization with overlap
     ethr =  1.82E-05,  avg # of iterations =  1.0

     negative rho (up, down):  5.105E-05 1.272E-06
 
     Adding external electric field

     Computed dipole along edir(3) : 
        Dipole               -0.8946 Ry au,         -2.2739 Debye
        Dipole field         -0.0005 Ry au, 
 
        Potential amp.        0.0604 Ry
        Total length         55.1515 bohr
 
 
     Adding external electric field

     Computed dipole along edir(3) : 
        Dipole               -0.8946 Ry au,         -2.2739 Debye
        Dipole field         -0.0005 Ry au, 
 
        Potential amp.        0.0604 Ry
        Total length         55.1515 bohr
 

     total cpu time spent up to now is      470.3 secs

     total energy              =   -7738.29676766 Ry
     estimated scf accuracy    <       0.23385348 Ry

     total magnetization       =    89.24 Bohr mag/cell
     absolute magnetization    =    90.54 Bohr mag/cell

     iteration # 31     ecut=    50.00 Ry     beta= 0.10
     Davidson diagonalization with overlap
     ethr =  1.82E-05,  avg # of iterations =  1.0

     negative rho (up, down):  9.501E-04 1.084E-04
 
     Adding external electric field

     Computed dipole along edir(3) : 
        Dipole               -0.7775 Ry au,         -1.9761 Debye
        Dipole field         -0.0005 Ry au, 
 
        Potential amp.        0.0525 Ry
        Total length         55.1515 bohr
 
 
     Adding external electric field

     Computed dipole along edir(3) : 
        Dipole               -0.7775 Ry au,         -1.9761 Debye
        Dipole field         -0.0005 Ry au, 
 
        Potential amp.        0.0525 Ry
        Total length         55.1515 bohr
 

     total cpu time spent up to now is      482.3 secs

     total energy              =   -7738.28645840 Ry
     estimated scf accuracy    <       0.18300563 Ry

     total magnetization       =    89.47 Bohr mag/cell
     absolute magnetization    =    90.82 Bohr mag/cell

     iteration # 32     ecut=    50.00 Ry     beta= 0.10
     Davidson diagonalization with overlap
     ethr =  1.67E-05,  avg # of iterations =  1.0

     negative rho (up, down):  1.687E-03 1.540E-04
 
     Adding external electric field

     Computed dipole along edir(3) : 
        Dipole               -0.8854 Ry au,         -2.2505 Debye
        Dipole field         -0.0005 Ry au, 
 
        Potential amp.        0.0598 Ry
        Total length         55.1515 bohr
 
 
     Adding external electric field

     Computed dipole along edir(3) : 
        Dipole               -0.8854 Ry au,         -2.2505 Debye
        Dipole field         -0.0005 Ry au, 
 
        Potential amp.        0.0598 Ry
        Total length         55.1515 bohr
 

     total cpu time spent up to now is      494.0 secs

     total energy              =   -7738.28034433 Ry
     estimated scf accuracy    <       0.23927828 Ry

     total magnetization       =    89.14 Bohr mag/cell
     absolute magnetization    =    90.10 Bohr mag/cell

     iteration # 33     ecut=    50.00 Ry     beta= 0.10
     Davidson diagonalization with overlap
     ethr =  1.67E-05,  avg # of iterations =  1.5

     negative rho (up, down):  1.100E-03 1.450E-04
 
     Adding external electric field

     Computed dipole along edir(3) : 
        Dipole               -0.8655 Ry au,         -2.1998 Debye
        Dipole field         -0.0005 Ry au, 
 
        Potential amp.        0.0584 Ry
        Total length         55.1515 bohr
 
 
     Adding external electric field

     Computed dipole along edir(3) : 
        Dipole               -0.8655 Ry au,         -2.1998 Debye
        Dipole field         -0.0005 Ry au, 
 
        Potential amp.        0.0584 Ry
        Total length         55.1515 bohr
 

     total cpu time spent up to now is      507.1 secs

     total energy              =   -7738.29144448 Ry
     estimated scf accuracy    <       0.12675793 Ry

     total magnetization       =    89.46 Bohr mag/cell
     absolute magnetization    =    90.49 Bohr mag/cell

     iteration # 34     ecut=    50.00 Ry     beta= 0.10
     Davidson diagonalization with overlap
     ethr =  1.16E-05,  avg # of iterations =  1.0

     negative rho (up, down):  3.349E-04 2.204E-05
 
     Adding external electric field

     Computed dipole along edir(3) : 
        Dipole               -0.8613 Ry au,         -2.1891 Debye
        Dipole field         -0.0005 Ry au, 
 
        Potential amp.        0.0581 Ry
        Total length         55.1515 bohr
 
 
     Adding external electric field

     Computed dipole along edir(3) : 
        Dipole               -0.8613 Ry au,         -2.1891 Debye
        Dipole field         -0.0005 Ry au, 
 
        Potential amp.        0.0581 Ry
        Total length         55.1515 bohr
 

     total cpu time spent up to now is      519.9 secs

     total energy              =   -7738.29112588 Ry
     estimated scf accuracy    <       0.18211255 Ry

     total magnetization       =    89.06 Bohr mag/cell
     absolute magnetization    =    90.22 Bohr mag/cell

     iteration # 35     ecut=    50.00 Ry     beta= 0.10
     Davidson diagonalization with overlap
     ethr =  1.16E-05,  avg # of iterations =  1.0

     negative rho (up, down):  3.135E-04 1.832E-05
 
     Adding external electric field

     Computed dipole along edir(3) : 
        Dipole               -0.8583 Ry au,         -2.1815 Debye
        Dipole field         -0.0005 Ry au, 
 
        Potential amp.        0.0579 Ry
        Total length         55.1515 bohr
 
 
     Adding external electric field

     Computed dipole along edir(3) : 
        Dipole               -0.8583 Ry au,         -2.1815 Debye
        Dipole field         -0.0005 Ry au, 
 
        Potential amp.        0.0579 Ry
        Total length         55.1515 bohr
 

     total cpu time spent up to now is      532.4 secs

     total energy              =   -7738.29038495 Ry
     estimated scf accuracy    <       0.21568775 Ry

     total magnetization       =    88.95 Bohr mag/cell
     absolute magnetization    =    90.20 Bohr mag/cell

     iteration # 36     ecut=    50.00 Ry     beta= 0.10
     Davidson diagonalization with overlap
     ethr =  1.16E-05,  avg # of iterations =  1.0

     negative rho (up, down):  1.060E-03 4.644E-05
 
     Adding external electric field

     Computed dipole along edir(3) : 
        Dipole               -0.8690 Ry au,         -2.2088 Debye
        Dipole field         -0.0005 Ry au, 
 
        Potential amp.        0.0587 Ry
        Total length         55.1515 bohr
 
 
     Adding external electric field

     Computed dipole along edir(3) : 
        Dipole               -0.8690 Ry au,         -2.2088 Debye
        Dipole field         -0.0005 Ry au, 
 
        Potential amp.        0.0587 Ry
        Total length         55.1515 bohr
 

     total cpu time spent up to now is      544.4 secs

     total energy              =   -7738.27703906 Ry
     estimated scf accuracy    <       0.20386227 Ry

     total magnetization       =    88.95 Bohr mag/cell
     absolute magnetization    =    90.22 Bohr mag/cell

     iteration # 37     ecut=    50.00 Ry     beta= 0.10
     Davidson diagonalization with overlap
     ethr =  1.16E-05,  avg # of iterations =  1.5

     negative rho (up, down):  2.170E-03 2.734E-04
 
     Adding external electric field

     Computed dipole along edir(3) : 
        Dipole               -0.8760 Ry au,         -2.2264 Debye
        Dipole field         -0.0005 Ry au, 
 
        Potential amp.        0.0591 Ry
        Total length         55.1515 bohr
 
 
     Adding external electric field

     Computed dipole along edir(3) : 
        Dipole               -0.8760 Ry au,         -2.2264 Debye
        Dipole field         -0.0005 Ry au, 
 
        Potential amp.        0.0591 Ry
        Total length         55.1515 bohr
 

     total cpu time spent up to now is      557.5 secs

     total energy              =   -7738.28602423 Ry
     estimated scf accuracy    <       0.12493794 Ry

     total magnetization       =    89.30 Bohr mag/cell
     absolute magnetization    =    90.51 Bohr mag/cell

     iteration # 38     ecut=    50.00 Ry     beta= 0.10
     Davidson diagonalization with overlap
     ethr =  1.14E-05,  avg # of iterations =  2.0

     negative rho (up, down):  1.260E-03 1.181E-04
 
     Adding external electric field

     Computed dipole along edir(3) : 
        Dipole               -0.9310 Ry au,         -2.3664 Debye
        Dipole field         -0.0006 Ry au, 
 
        Potential amp.        0.0629 Ry
        Total length         55.1515 bohr
 
 
     Adding external electric field

     Computed dipole along edir(3) : 
        Dipole               -0.9310 Ry au,         -2.3664 Debye
        Dipole field         -0.0006 Ry au, 
 
        Potential amp.        0.0629 Ry
        Total length         55.1515 bohr
 

     total cpu time spent up to now is      571.1 secs

     total energy              =   -7738.28738788 Ry
     estimated scf accuracy    <       0.13035874 Ry

     total magnetization       =    89.25 Bohr mag/cell
     absolute magnetization    =    90.44 Bohr mag/cell

     iteration # 39     ecut=    50.00 Ry     beta= 0.10
     Davidson diagonalization with overlap
     ethr =  1.14E-05,  avg # of iterations =  1.0

     negative rho (up, down):  3.016E-03 1.631E-03
 
     Adding external electric field

     Computed dipole along edir(3) : 
        Dipole               -1.0512 Ry au,         -2.6719 Debye
        Dipole field         -0.0006 Ry au, 
 
        Potential amp.        0.0710 Ry
        Total length         55.1515 bohr
 
 
     Adding external electric field

     Computed dipole along edir(3) : 
        Dipole               -1.0512 Ry au,         -2.6719 Debye
        Dipole field         -0.0006 Ry au, 
 
        Potential amp.        0.0710 Ry
        Total length         55.1515 bohr
 

     total cpu time spent up to now is      583.1 secs

     total energy              =   -7738.29016777 Ry
     estimated scf accuracy    <       0.12320482 Ry

     total magnetization       =    89.12 Bohr mag/cell
     absolute magnetization    =    90.32 Bohr mag/cell

     iteration # 40     ecut=    50.00 Ry     beta= 0.10
     Davidson diagonalization with overlap
     ethr =  1.13E-05,  avg # of iterations =  2.0

     negative rho (up, down):  3.601E-03 2.261E-03
 
     Adding external electric field

     Computed dipole along edir(3) : 
        Dipole               -1.1065 Ry au,         -2.8123 Debye
        Dipole field         -0.0007 Ry au, 
 
        Potential amp.        0.0747 Ry
        Total length         55.1515 bohr
 
 
     Adding external electric field

     Computed dipole along edir(3) : 
        Dipole               -1.1065 Ry au,         -2.8123 Debye
        Dipole field         -0.0007 Ry au, 
 
        Potential amp.        0.0747 Ry
        Total length         55.1515 bohr
 

     total cpu time spent up to now is      597.3 secs

     total energy              =   -7738.29580986 Ry
     estimated scf accuracy    <       0.10330796 Ry

     total magnetization       =    89.17 Bohr mag/cell
     absolute magnetization    =    90.45 Bohr mag/cell

     iteration # 41     ecut=    50.00 Ry     beta= 0.10
     Davidson diagonalization with overlap
     ethr =  9.45E-06,  avg # of iterations =  1.0

     negative rho (up, down):  4.013E-03 3.431E-03
 
     Adding external electric field

     Computed dipole along edir(3) : 
        Dipole               -1.1724 Ry au,         -2.9800 Debye
        Dipole field         -0.0007 Ry au, 
 
        Potential amp.        0.0792 Ry
        Total length         55.1515 bohr
 
 
     Adding external electric field

     Computed dipole along edir(3) : 
        Dipole               -1.1724 Ry au,         -2.9800 Debye
        Dipole field         -0.0007 Ry au, 
 
        Potential amp.        0.0792 Ry
        Total length         55.1515 bohr
 

     total cpu time spent up to now is      609.8 secs

     total energy              =   -7738.31531444 Ry
     estimated scf accuracy    <       0.08865913 Ry

     total magnetization       =    89.25 Bohr mag/cell
     absolute magnetization    =    90.64 Bohr mag/cell

     iteration # 42     ecut=    50.00 Ry     beta= 0.10
     Davidson diagonalization with overlap
     ethr =  8.11E-06,  avg # of iterations =  2.0

     negative rho (up, down):  4.004E-03 3.334E-03
 
     Adding external electric field

     Computed dipole along edir(3) : 
        Dipole               -1.1420 Ry au,         -2.9027 Debye
        Dipole field         -0.0007 Ry au, 
 
        Potential amp.        0.0771 Ry
        Total length         55.1515 bohr
 
 
     Adding external electric field

     Computed dipole along edir(3) : 
        Dipole               -1.1420 Ry au,         -2.9027 Debye
        Dipole field         -0.0007 Ry au, 
 
        Potential amp.        0.0771 Ry
        Total length         55.1515 bohr
 

     total cpu time spent up to now is      623.4 secs

     total energy              =   -7738.31503469 Ry
     estimated scf accuracy    <       0.08146002 Ry

     total magnetization       =    88.66 Bohr mag/cell
     absolute magnetization    =    90.07 Bohr mag/cell

     iteration # 43     ecut=    50.00 Ry     beta= 0.10
     Davidson diagonalization with overlap
     ethr =  7.45E-06,  avg # of iterations =  1.0

     negative rho (up, down):  3.936E-03 3.718E-03
 
     Adding external electric field

     Computed dipole along edir(3) : 
        Dipole               -1.1200 Ry au,         -2.8467 Debye
        Dipole field         -0.0007 Ry au, 
 
        Potential amp.        0.0756 Ry
        Total length         55.1515 bohr
 
 
     Adding external electric field

     Computed dipole along edir(3) : 
        Dipole               -1.1200 Ry au,         -2.8467 Debye
        Dipole field         -0.0007 Ry au, 
 
        Potential amp.        0.0756 Ry
        Total length         55.1515 bohr
 

     total cpu time spent up to now is      636.2 secs

     total energy              =   -7738.31988622 Ry
     estimated scf accuracy    <       0.04656076 Ry

     total magnetization       =    89.09 Bohr mag/cell
     absolute magnetization    =    90.44 Bohr mag/cell

     iteration # 44     ecut=    50.00 Ry     beta= 0.10
     Davidson diagonalization with overlap
     c_bands:  1 eigenvalues not converged
     ethr =  4.26E-06,  avg # of iterations = 11.0

     negative rho (up, down):  3.985E-03 3.827E-03
 
     Adding external electric field

     Computed dipole along edir(3) : 
        Dipole               -1.1118 Ry au,         -2.8259 Debye
        Dipole field         -0.0007 Ry au, 
 
        Potential amp.        0.0751 Ry
        Total length         55.1515 bohr
 
 
     Adding external electric field

     Computed dipole along edir(3) : 
        Dipole               -1.1118 Ry au,         -2.8259 Debye
        Dipole field         -0.0007 Ry au, 
 
        Potential amp.        0.0751 Ry
        Total length         55.1515 bohr
 

     total cpu time spent up to now is      655.5 secs

     total energy              =   -7738.32615057 Ry
     estimated scf accuracy    <       0.39760431 Ry

     total magnetization       =    87.86 Bohr mag/cell
     absolute magnetization    =    89.20 Bohr mag/cell

     iteration # 45     ecut=    50.00 Ry     beta= 0.10
     Davidson diagonalization with overlap
     ethr =  4.26E-06,  avg # of iterations =  1.5

     negative rho (up, down):  4.505E-03 4.155E-03
 
     Adding external electric field

     Computed dipole along edir(3) : 
        Dipole               -1.1148 Ry au,         -2.8335 Debye
        Dipole field         -0.0007 Ry au, 
 
        Potential amp.        0.0753 Ry
        Total length         55.1515 bohr
 
 
     Adding external electric field

     Computed dipole along edir(3) : 
        Dipole               -1.1148 Ry au,         -2.8335 Debye
        Dipole field         -0.0007 Ry au, 
 
        Potential amp.        0.0753 Ry
        Total length         55.1515 bohr
 

     total cpu time spent up to now is      668.7 secs

     total energy              =   -7738.31898530 Ry
     estimated scf accuracy    <       0.32924458 Ry

     total magnetization       =    87.94 Bohr mag/cell
     absolute magnetization    =    89.29 Bohr mag/cell

     iteration # 46     ecut=    50.00 Ry     beta= 0.10
     Davidson diagonalization with overlap
     ethr =  4.26E-06,  avg # of iterations =  2.0

     negative rho (up, down):  4.567E-03 4.251E-03
 
     Adding external electric field

     Computed dipole along edir(3) : 
        Dipole               -1.1430 Ry au,         -2.9051 Debye
        Dipole field         -0.0007 Ry au, 
 
        Potential amp.        0.0772 Ry
        Total length         55.1515 bohr
 
 
     Adding external electric field

     Computed dipole along edir(3) : 
        Dipole               -1.1430 Ry au,         -2.9051 Debye
        Dipole field         -0.0007 Ry au, 
 
        Potential amp.        0.0772 Ry
        Total length         55.1515 bohr
 

     total cpu time spent up to now is      682.8 secs

     total energy              =   -7738.32060395 Ry
     estimated scf accuracy    <       0.07563270 Ry

     total magnetization       =    88.63 Bohr mag/cell
     absolute magnetization    =    89.86 Bohr mag/cell

     iteration # 47     ecut=    50.00 Ry     beta= 0.10
     Davidson diagonalization with overlap
     ethr =  4.26E-06,  avg # of iterations =  2.0

     negative rho (up, down):  5.083E-03 4.647E-03
 
     Adding external electric field

     Computed dipole along edir(3) : 
        Dipole               -1.1119 Ry au,         -2.8263 Debye
        Dipole field         -0.0007 Ry au, 
 
        Potential amp.        0.0751 Ry
        Total length         55.1515 bohr
 
 
     Adding external electric field

     Computed dipole along edir(3) : 
        Dipole               -1.1119 Ry au,         -2.8263 Debye
        Dipole field         -0.0007 Ry au, 
 
        Potential amp.        0.0751 Ry
        Total length         55.1515 bohr
 

     total cpu time spent up to now is      696.4 secs

     total energy              =   -7738.32005703 Ry
     estimated scf accuracy    <       0.04461389 Ry

     total magnetization       =    88.96 Bohr mag/cell
     absolute magnetization    =    90.18 Bohr mag/cell

     iteration # 48     ecut=    50.00 Ry     beta= 0.10
     Davidson diagonalization with overlap
     ethr =  4.08E-06,  avg # of iterations =  2.0

     negative rho (up, down):  5.682E-03 5.241E-03
 
     Adding external electric field

     Computed dipole along edir(3) : 
        Dipole               -1.1024 Ry au,         -2.8021 Debye
        Dipole field         -0.0007 Ry au, 
 
        Potential amp.        0.0744 Ry
        Total length         55.1515 bohr
 
 
     Adding external electric field

     Computed dipole along edir(3) : 
        Dipole               -1.1024 Ry au,         -2.8021 Debye
        Dipole field         -0.0007 Ry au, 
 
        Potential amp.        0.0744 Ry
        Total length         55.1515 bohr
 

     total cpu time spent up to now is      710.5 secs

     total energy              =   -7738.31964802 Ry
     estimated scf accuracy    <       0.04311541 Ry

     total magnetization       =    88.92 Bohr mag/cell
     absolute magnetization    =    90.14 Bohr mag/cell

     iteration # 49     ecut=    50.00 Ry     beta= 0.10
     Davidson diagonalization with overlap
     ethr =  3.94E-06,  avg # of iterations =  2.0

     negative rho (up, down):  5.886E-03 5.462E-03
 
     Adding external electric field

     Computed dipole along edir(3) : 
        Dipole               -1.1101 Ry au,         -2.8217 Debye
        Dipole field         -0.0007 Ry au, 
 
        Potential amp.        0.0750 Ry
        Total length         55.1515 bohr
 
 
     Adding external electric field

     Computed dipole along edir(3) : 
        Dipole               -1.1101 Ry au,         -2.8217 Debye
        Dipole field         -0.0007 Ry au, 
 
        Potential amp.        0.0750 Ry
        Total length         55.1515 bohr
 

     total cpu time spent up to now is      724.5 secs

     total energy              =   -7738.32003924 Ry
     estimated scf accuracy    <       0.04387075 Ry

     total magnetization       =    88.89 Bohr mag/cell
     absolute magnetization    =    90.10 Bohr mag/cell

     iteration # 50     ecut=    50.00 Ry     beta= 0.10
     Davidson diagonalization with overlap
     ethr =  3.94E-06,  avg # of iterations =  2.0

     negative rho (up, down):  5.795E-03 5.301E-03
 
     Adding external electric field

     Computed dipole along edir(3) : 
        Dipole               -1.0919 Ry au,         -2.7753 Debye
        Dipole field         -0.0007 Ry au, 
 
        Potential amp.        0.0737 Ry
        Total length         55.1515 bohr
 
 
     Adding external electric field

     Computed dipole along edir(3) : 
        Dipole               -1.0919 Ry au,         -2.7753 Debye
        Dipole field         -0.0007 Ry au, 
 
        Potential amp.        0.0737 Ry
        Total length         55.1515 bohr
 

     total cpu time spent up to now is      738.3 secs

     total energy              =   -7738.31923689 Ry
     estimated scf accuracy    <       0.04530968 Ry

     total magnetization       =    88.86 Bohr mag/cell
     absolute magnetization    =    90.10 Bohr mag/cell

     iteration # 51     ecut=    50.00 Ry     beta= 0.10
     Davidson diagonalization with overlap
     ethr =  3.94E-06,  avg # of iterations =  1.5

     negative rho (up, down):  5.933E-03 5.428E-03
 
     Adding external electric field

     Computed dipole along edir(3) : 
        Dipole               -1.1079 Ry au,         -2.8161 Debye
        Dipole field         -0.0007 Ry au, 
 
        Potential amp.        0.0748 Ry
        Total length         55.1515 bohr
 
 
     Adding external electric field

     Computed dipole along edir(3) : 
        Dipole               -1.1079 Ry au,         -2.8161 Debye
        Dipole field         -0.0007 Ry au, 
 
        Potential amp.        0.0748 Ry
        Total length         55.1515 bohr
 

     total cpu time spent up to now is      751.5 secs

     total energy              =   -7738.31882334 Ry
     estimated scf accuracy    <       0.05143409 Ry

     total magnetization       =    88.81 Bohr mag/cell
     absolute magnetization    =    90.03 Bohr mag/cell

     iteration # 52     ecut=    50.00 Ry     beta= 0.10
     Davidson diagonalization with overlap
     ethr =  3.94E-06,  avg # of iterations =  1.5

     negative rho (up, down):  6.093E-03 5.524E-03
 
     Adding external electric field

     Computed dipole along edir(3) : 
        Dipole               -1.1244 Ry au,         -2.8579 Debye
        Dipole field         -0.0007 Ry au, 
 
        Potential amp.        0.0759 Ry
        Total length         55.1515 bohr
 
 
     Adding external electric field

     Computed dipole along edir(3) : 
        Dipole               -1.1244 Ry au,         -2.8579 Debye
        Dipole field         -0.0007 Ry au, 
 
        Potential amp.        0.0759 Ry
        Total length         55.1515 bohr
 

     total cpu time spent up to now is      764.6 secs

     total energy              =   -7738.31826800 Ry
     estimated scf accuracy    <       0.04120512 Ry

     total magnetization       =    88.98 Bohr mag/cell
     absolute magnetization    =    90.19 Bohr mag/cell

     iteration # 53     ecut=    50.00 Ry     beta= 0.10
     Davidson diagonalization with overlap
     ethr =  3.77E-06,  avg # of iterations =  2.0

     negative rho (up, down):  6.336E-03 5.860E-03
 
     Adding external electric field

     Computed dipole along edir(3) : 
        Dipole               -1.1335 Ry au,         -2.8811 Debye
        Dipole field         -0.0007 Ry au, 
 
        Potential amp.        0.0765 Ry
        Total length         55.1515 bohr
 
 
     Adding external electric field

     Computed dipole along edir(3) : 
        Dipole               -1.1335 Ry au,         -2.8811 Debye
        Dipole field         -0.0007 Ry au, 
 
        Potential amp.        0.0765 Ry
        Total length         55.1515 bohr
 

     total cpu time spent up to now is      778.7 secs

     total energy              =   -7738.31934056 Ry
     estimated scf accuracy    <       0.04474805 Ry

     total magnetization       =    89.05 Bohr mag/cell
     absolute magnetization    =    90.28 Bohr mag/cell

     iteration # 54     ecut=    50.00 Ry     beta= 0.10
     Davidson diagonalization with overlap
     ethr =  3.77E-06,  avg # of iterations =  1.5

     negative rho (up, down):  5.020E-03 5.002E-03
 
     Adding external electric field

     Computed dipole along edir(3) : 
        Dipole               -1.1474 Ry au,         -2.9163 Debye
        Dipole field         -0.0007 Ry au, 
 
        Potential amp.        0.0775 Ry
        Total length         55.1515 bohr
 
 
     Adding external electric field

     Computed dipole along edir(3) : 
        Dipole               -1.1474 Ry au,         -2.9163 Debye
        Dipole field         -0.0007 Ry au, 
 
        Potential amp.        0.0775 Ry
        Total length         55.1515 bohr
 

     total cpu time spent up to now is      792.4 secs

     total energy              =   -7738.31960898 Ry
     estimated scf accuracy    <       0.04191653 Ry

     total magnetization       =    88.97 Bohr mag/cell
     absolute magnetization    =    90.23 Bohr mag/cell

     iteration # 55     ecut=    50.00 Ry     beta= 0.10
     Davidson diagonalization with overlap
     ethr =  3.77E-06,  avg # of iterations =  2.0

     negative rho (up, down):  5.653E-03 5.707E-03
 
     Adding external electric field

     Computed dipole along edir(3) : 
        Dipole               -1.1367 Ry au,         -2.8893 Debye
        Dipole field         -0.0007 Ry au, 
 
        Potential amp.        0.0767 Ry
        Total length         55.1515 bohr
 
 
     Adding external electric field

     Computed dipole along edir(3) : 
        Dipole               -1.1367 Ry au,         -2.8893 Debye
        Dipole field         -0.0007 Ry au, 
 
        Potential amp.        0.0767 Ry
        Total length         55.1515 bohr
 

     total cpu time spent up to now is      806.1 secs

     total energy              =   -7738.31921184 Ry
     estimated scf accuracy    <       0.11892892 Ry

     total magnetization       =    88.24 Bohr mag/cell
     absolute magnetization    =    89.55 Bohr mag/cell

     iteration # 56     ecut=    50.00 Ry     beta= 0.10
     Davidson diagonalization with overlap
     ethr =  3.77E-06,  avg # of iterations =  2.0

     negative rho (up, down):  5.800E-03 6.106E-03
 
     Adding external electric field

     Computed dipole along edir(3) : 
        Dipole               -1.1552 Ry au,         -2.9361 Debye
        Dipole field         -0.0007 Ry au, 
 
        Potential amp.        0.0780 Ry
        Total length         55.1515 bohr
 
 
     Adding external electric field

     Computed dipole along edir(3) : 
        Dipole               -1.1552 Ry au,         -2.9361 Debye
        Dipole field         -0.0007 Ry au, 
 
        Potential amp.        0.0780 Ry
        Total length         55.1515 bohr
 

     total cpu time spent up to now is      819.8 secs

     total energy              =   -7738.32057017 Ry
     estimated scf accuracy    <       0.03641022 Ry

     total magnetization       =    88.60 Bohr mag/cell
     absolute magnetization    =    89.84 Bohr mag/cell

     iteration # 57     ecut=    50.00 Ry     beta= 0.10
     Davidson diagonalization with overlap
     ethr =  3.33E-06,  avg # of iterations =  2.0

     negative rho (up, down):  5.391E-03 5.639E-03
 
     Adding external electric field

     Computed dipole along edir(3) : 
        Dipole               -1.1569 Ry au,         -2.9406 Debye
        Dipole field         -0.0007 Ry au, 
 
        Potential amp.        0.0781 Ry
        Total length         55.1515 bohr
 
 
     Adding external electric field

     Computed dipole along edir(3) : 
        Dipole               -1.1569 Ry au,         -2.9406 Debye
        Dipole field         -0.0007 Ry au, 
 
        Potential amp.        0.0781 Ry
        Total length         55.1515 bohr
 

     total cpu time spent up to now is      833.0 secs

     total energy              =   -7738.32100489 Ry
     estimated scf accuracy    <       0.04880733 Ry

     total magnetization       =    88.47 Bohr mag/cell
     absolute magnetization    =    89.70 Bohr mag/cell

     iteration # 58     ecut=    50.00 Ry     beta= 0.10
     Davidson diagonalization with overlap
     ethr =  3.33E-06,  avg # of iterations =  2.0

     negative rho (up, down):  3.828E-03 4.010E-03
 
     Adding external electric field

     Computed dipole along edir(3) : 
        Dipole               -1.1617 Ry au,         -2.9528 Debye
        Dipole field         -0.0007 Ry au, 
 
        Potential amp.        0.0784 Ry
        Total length         55.1515 bohr
 
 
[...]
    -5.9719  -5.9382  -5.9313  -5.9081  -5.8884  -5.8795  -5.8666  -5.8413
    -5.8274  -5.7803  -5.7519  -5.7422  -5.7298  -5.6940  -5.6680  -5.6531
    -5.6392  -5.6305  -5.5864  -5.5695  -5.5642  -5.5475  -5.5402  -5.5259
    -5.5161  -5.4886  -5.4760  -5.4442  -5.4004  -5.3642  -5.3330  -5.3171
    -5.2790  -5.2611  -5.2347  -5.1657  -5.1470  -5.1424  -5.1267  -5.1047
    -5.0657  -5.0117  -4.9648  -4.9300  -4.8999  -4.8896  -4.8608  -4.8453
    -4.8180  -4.7936  -4.7792  -4.7427  -4.7197  -4.6917  -4.6394  -4.6041
    -4.5413  -4.4710  -4.4415  -4.4234  -4.4040  -4.3928  -4.3653  -4.3532
    -4.3258  -4.2833  -4.2562  -4.2435  -4.2052  -4.1916  -4.1096  -4.1053
    -4.0881  -4.0452  -4.0360  -4.0167  -3.9569  -3.9330  -3.9205  -3.8808
    -3.8555  -3.8209  -3.8126  -3.7945  -3.7758  -3.7436  -3.7047  -3.6945
    -3.6881  -3.6700  -3.6590  -3.5878  -3.5785  -3.5775  -3.5616  -3.5459
    -3.5330  -3.5162  -3.5070  -3.4831  -3.4493  -3.4436  -3.4294  -3.4074
    -3.3845  -3.3747  -3.3704  -3.3552  -3.3381  -3.3071  -3.2872  -3.2587
    -3.2466  -3.2143  -3.1910  -3.1666  -3.1430  -3.1196  -3.1019  -3.0840
    -3.0764  -3.0645  -3.0536  -3.0334  -3.0194  -3.0037  -2.9869  -2.9365
    -2.9238  -2.9133  -2.9002  -2.8915  -2.8702  -2.8469  -2.8125  -2.7902
    -2.7867  -2.7603  -2.7536  -2.7279  -2.7229  -2.7151  -2.7084  -2.6931
    -2.6747  -2.6671  -2.6637  -2.6378  -2.6282  -2.6149  -2.6086  -2.5798
    -2.5742  -2.5728  -2.5394  -2.5270  -2.5068  -2.4818  -2.4721  -2.4600
    -2.4534  -2.4103  -2.4008  -2.3742  -2.3586  -2.3426  -2.3163  -2.2810
    -2.2745  -2.2702  -2.2254  -2.2104  -2.1889  -2.1762  -2.1535  -2.1411
    -2.1093  -2.0880  -2.0728  -2.0686  -2.0523  -2.0386  -2.0280  -2.0220
    -1.9962  -1.9511  -1.9399  -1.9192  -1.9084  -1.8893  -1.8823  -1.8650
    -1.8405  -1.8359  -1.8305  -1.8211  -1.7935  -1.7155  -1.7099  -1.6768
    -1.6717  -1.6516  -1.6324  -1.6292  -1.6157  -1.6039  -1.5888  -1.5801
    -1.5511  -1.5428  -1.5024  -1.4915  -1.4656  -1.4558  -1.4468  -1.4223
    -1.4040  -1.3930  -1.3838  -1.3633  -1.3582  -1.3322  -1.3062  -1.2962
    -1.2346  -1.2240  -1.1695  -1.1495  -1.1339  -1.1324  -1.0941  -1.0502
    -1.0293  -0.9958  -0.9297  -0.8557  -0.7299  -0.7127  -0.6237  -0.5697
    -0.5241  -0.5097  -0.3573  -0.2369   0.1784   0.2139   0.2364   0.2462
     0.2960   0.3073   0.3189   0.3283   0.3453   0.3576   0.3654   0.3689
     0.3756   0.3852   0.3975   0.3991   0.4033   0.4142   0.4183   0.4255
     0.4333   0.4383   0.4619   0.4643   0.4752   0.4814   0.4879   0.4910
     0.4966   0.4969   0.5081   0.5144   0.5214   0.5314   0.5354   0.5381
     0.5407   0.5642   0.5673   0.5724   0.5959   0.5985   0.6148   0.6181
     0.6248   0.6330   0.6420   0.6456   0.6517   0.6618   0.6633   0.6770
     0.6806   0.6840   0.6975   0.7024   0.7123   0.7135   0.7201   0.7316
     0.7412   0.7482   0.7639   0.7648   0.7780   0.7808   0.7914   0.8078
     0.8094   0.8260   0.8479   0.8550   0.8618   0.8658   0.8687   0.8767
     0.8828   0.9012   0.9074   0.9136   0.9188   0.9512   0.9657   0.9822
     0.9851   1.0351   1.0836   1.1106   1.1215   1.6855   1.7344   1.7462
     1.7746   1.7981   1.8096   1.8160   1.8210   1.8388   1.9077   1.9188
     1.9312   1.9690   1.9775   2.0049   2.0405   2.0442   2.0832   2.0899
     2.1370   2.1428   2.1729   2.1896   2.1949   2.1988   2.2087   2.2342
     2.2422   2.2734   2.2832   2.3022   2.3117   2.3237   2.3418   2.3567
     2.3705   2.3810   2.3846   2.4065   2.4152   2.4209   2.4386   2.4874
     2.5260   2.5302   2.5376   2.5470   2.5514   2.5758   2.5944   2.6123
     2.6576   2.6791   2.7011   2.7051   2.7257   2.8006   2.8023   2.8708
     2.8758   2.8849   3.7059   3.7194   3.7248   3.7818   3.7850   3.7963
     3.9046   3.9344   3.9567   3.9579   3.9810   3.9990   4.0124   4.0358
     4.0522   4.0587   4.1439   4.1464   4.1581   4.1795   4.6593   4.7186
     4.7950   4.8556   4.8832   4.9115   4.9362   4.9680   5.0410   5.0961
     5.1165   5.1471   5.4233   6.2416   6.3731   6.6132   6.6574   6.7589
     6.8090   6.8843   6.8897   6.9206   7.0214   7.0812   7.0915   7.1326
     7.2668   7.3495   7.3539   7.4344   7.4795   7.5343   7.5859   7.6305
     7.6391   7.6787   7.7354   7.7572   7.8081   7.8826   7.8995   7.9074
     8.0139   8.0275   8.0625   8.0890   8.1112   8.1769   8.1897   8.2080
     8.2616   8.2834   8.3008   8.3301   8.3779   8.4232   8.4290   8.4483
     8.4645   8.4769   8.4963   8.5259   8.5531   8.5719   8.5977   8.6201
     8.6636   8.6818   8.7227   8.7530   8.7659   8.7826   8.8283   8.8326

     the Fermi energy is     1.6586 ev

!    total energy              =   -7738.31690870 Ry
     estimated scf accuracy    <       0.00000099 Ry
     smearing contrib. (-TS)   =      -0.02223362 Ry
     internal energy E=F+TS    =   -7738.29467507 Ry

     The total energy is F=E-TS. E is the sum of the following terms:
     one-electron contribution =  -94696.47549164 Ry
     hartree contribution      =   47965.58397121 Ry
     xc contribution           =   -2218.71581203 Ry
     ewald contribution        =   41213.11977850 Ry
     Dispersion Correction     =      -1.80718292 Ry
     electric field correction =       0.00006181 Ry

     total magnetization       =    88.66 Bohr mag/cell
     absolute magnetization    =    90.03 Bohr mag/cell

     convergence has been achieved in 112 iterations

     negative rho (up, down):  1.053E-03 5.883E-04

     Forces acting on atoms (cartesian axes, Ry/au):

     atom    1 type  1   force =    -0.00003835   -0.00030019   -0.00006201
     atom    2 type  2   force =     0.00013449    0.00045719    0.00004442
     atom    3 type  1   force =     0.00014775   -0.00053336    0.00017409
     atom    4 type  1   force =     0.00003744   -0.00014926   -0.00017314
     atom    5 type  1   force =    -0.00092440    0.00042692    0.00008296
     atom    6 type  1   force =     0.00028130    0.00059269    0.00003476
     atom    7 type  3   force =    -0.00024707    0.00024755   -0.00026190
     atom    8 type  3   force =    -0.00006962    0.00030842    0.00007350
     atom    9 type  3   force =    -0.00001265    0.00028730   -0.00002473
     atom   10 type  3   force =    -0.00033341   -0.00000048    0.00024556
     atom   11 type  4   force =     0.00026034    0.00020786   -0.00019177
     atom   12 type  4   force =    -0.00023490   -0.00001955   -0.00023787
     atom   13 type  4   force =     0.00054838    0.00011259   -0.00028785
     atom   14 type  4   force =     0.00019294    0.00004307    0.00014382
     atom   15 type  4   force =     0.00035406   -0.00048586   -0.00008060
     atom   16 type  4   force =    -0.00011227   -0.00047974    0.00012490
     atom   17 type  4   force =    -0.00040195   -0.00018300   -0.00000313
     atom   18 type  4   force =     0.00000886   -0.00021924    0.00029561
     atom   19 type  4   force =     0.00070608    0.00027521    0.00009175
     atom   20 type  4   force =     0.00019317    0.00008450    0.00046593
     atom   21 type  4   force =    -0.00018723   -0.00019282   -0.00004991
     atom   22 type  4   force =    -0.00020062   -0.00002965   -0.00009274
     atom   23 type  4   force =     0.00020832    0.00034681    0.00031052
     atom   24 type  4   force =    -0.00045132    0.00018832   -0.00034834
     atom   25 type  4   force =    -0.00035705    0.00000891    0.00035609
     atom   26 type  4   force =     0.00039564   -0.00008598   -0.00001952
     atom   27 type  1   force =    -0.00582352   -0.00843523   -0.00417365
     atom   28 type  2   force =    -0.01213068    0.00003635   -0.00195346
     atom   29 type  1   force =     0.00279860   -0.00427627   -0.00004924
     atom   30 type  1   force =     0.00236018    0.00380224   -0.00156953
     atom   31 type  1   force =     0.00177348   -0.00488079   -0.00043063
     atom   32 type  1   force =    -0.00082323    0.00119292    0.00186029
     atom   33 type  3   force =    -0.00705102   -0.00078865   -0.00041607
     atom   34 type  3   force =    -0.00689342    0.00229766   -0.00041717
     atom   35 type  3   force =     0.00398903   -0.00046126   -0.00487135
     atom   36 type  3   force =     0.00117348   -0.00129700    0.00296197
     atom   37 type  4   force =     0.00870194    0.00528369   -0.00763249
     atom   38 type  4   force =     0.00354583   -0.00099199    0.02033092
     atom   39 type  4   force =    -0.00137598    0.00351619    0.01015206
     atom   40 type  4   force =    -0.00159950   -0.00228541   -0.00891237
     atom   41 type  4   force =     0.00207024    0.00853507    0.00659215
     atom   42 type  4   force =    -0.00570609   -0.00308008   -0.01947994
     atom   43 type  4   force =     0.00994197    0.00665309   -0.00814995
     atom   44 type  4   force =     0.00724751   -0.00305991    0.00604595
     atom   45 type  4   force =     0.00219677    0.00590259   -0.00058442
     atom   46 type  4   force =     0.00346484    0.00121652    0.00494187
     atom   47 type  4   force =    -0.01319218    0.00020548    0.00327840
     atom   48 type  4   force =    -0.01450705    0.00259446   -0.00357068
     atom   49 type  4   force =     0.01259129    0.00289602   -0.00450683
     atom   50 type  4   force =    -0.00380383   -0.00400834   -0.00042884
     atom   51 type  4   force =    -0.00438955    0.00263058   -0.00062515
     atom   52 type  4   force =     0.01628026   -0.00323172    0.00423092
     atom   53 type  1   force =    -0.00748666   -0.00703350   -0.00836198
     atom   54 type  2   force =     0.01588026    0.01721574   -0.01010277
     atom   55 type  1   force =     0.00583183   -0.00486332   -0.00594699
     atom   56 type  1   force =    -0.02060079    0.01941766    0.01960188
     atom   57 type  1   force =     0.00444619   -0.00749931   -0.00158686
     atom   58 type  1   force =    -0.00394831   -0.00544644   -0.00120662
     atom   59 type  3   force =    -0.03903168   -0.03835710   -0.05603307
     atom   60 type  3   force =    -0.00485593   -0.00126877   -0.00113960
     atom   61 type  3   force =     0.00273454   -0.00100736   -0.01011521
     atom   62 type  3   force =     0.02909242   -0.04950240   -0.06057783
     atom   63 type  4   force =     0.00626613    0.00348810    0.02096322
     atom   64 type  4   force =     0.00450756    0.00231899    0.01454031
     atom   65 type  4   force =    -0.00066567    0.00293676    0.01273513
     atom   66 type  4   force =     0.00014603    0.00214620    0.01617812
     atom   67 type  4   force =     0.00107157   -0.00060809    0.03919891
     atom   68 type  4   force =    -0.00568096   -0.00391754   -0.01714103
     atom   69 type  4   force =     0.00781751    0.00449647   -0.00255599
     atom   70 type  4   force =     0.00173187   -0.00730322    0.03555644
     atom   71 type  4   force =    -0.00913882    0.03912531    0.00094165
     atom   72 type  4   force =     0.00229726   -0.00048101    0.00796281
     atom   73 type  4   force =    -0.03005116    0.00087046    0.00763625
     atom   74 type  4   force =    -0.01351008    0.00143382   -0.00040845
     atom   75 type  4   force =     0.01200389    0.00348125   -0.00250204
     atom   76 type  4   force =    -0.00240389   -0.00291098    0.00257716
     atom   77 type  4   force =     0.00919761    0.02575811   -0.00257104
     atom   78 type  4   force =     0.03349423   -0.00639370    0.00616782
     atom   79 type  1   force =     0.00015459   -0.00030528   -0.00001302
     atom   80 type  2   force =    -0.00001722   -0.00002651    0.00028812
     atom   81 type  1   force =     0.00030476   -0.00005430    0.00030690
     atom   82 type  1   force =    -0.00010842    0.00000672   -0.00002600
     atom   83 type  1   force =    -0.00080253    0.00051065    0.00051716
     atom   84 type  1   force =     0.00033974    0.00031405    0.00056763
     atom   85 type  3   force =     0.00002393   -0.00007604   -0.00023667
     atom   86 type  3   force =    -0.00017927    0.00003489    0.00001939
     atom   87 type  3   force =    -0.00001538    0.00030766    0.00058013
     atom   88 type  3   force =    -0.00034213    0.00036631    0.00009275
     atom   89 type  4   force =     0.00036044    0.00021671    0.00002240
     atom   90 type  4   force =    -0.00008022    0.00026766   -0.00013431
     atom   91 type  4   force =     0.00038567    0.00045485   -0.00020974
     atom   92 type  4   force =    -0.00013326    0.00054125    0.00021564
     atom   93 type  4   force =     0.00006415   -0.00035984    0.00015088
     atom   94 type  4   force =     0.00010642   -0.00036684    0.00002427
     atom   95 type  4   force =     0.00005514   -0.00004932   -0.00043914
     atom   96 type  4   force =     0.00028265   -0.00004209   -0.00029021
     atom   97 type  4   force =     0.00061667    0.00008630   -0.00024144
     atom   98 type  4   force =    -0.00002231   -0.00042346    0.00027622
     atom   99 type  4   force =    -0.00001697    0.00012913    0.00023386
     atom  100 type  4   force =    -0.00018035   -0.00039053    0.00008627
     atom  101 type  4   force =     0.00010863    0.00010564   -0.00017185
     atom  102 type  4   force =    -0.00021614   -0.00003861    0.00026569
     atom  103 type  4   force =    -0.00050113    0.00037108    0.00035617
     atom  104 type  4   force =     0.00003360   -0.00044474    0.00013164
     atom  105 type  1   force =    -0.00648782   -0.00788680   -0.00382362
     atom  106 type  2   force =    -0.01198825    0.00019141   -0.00190010
     atom  107 type  1   force =     0.00420804   -0.00291168    0.00294968
     atom  108 type  1   force =     0.00238384    0.00390757   -0.00160914
     atom  109 type  1   force =     0.00180724   -0.00480306   -0.00039765
     atom  110 type  1   force =    -0.00126388    0.00118525    0.00172365
     atom  111 type  3   force =    -0.00709578   -0.00082700   -0.00042784
     atom  112 type  3   force =    -0.00615557    0.00299375   -0.00221140
     atom  113 type  3   force =     0.00408607   -0.00002823   -0.00387080
     atom  114 type  3   force =     0.00104329   -0.00133124    0.00302569
     atom  115 type  4   force =     0.00871300    0.00506481   -0.00759947
     atom  116 type  4   force =     0.00364079   -0.00112526    0.02068697
     atom  117 type  4   force =    -0.00097666    0.00370563    0.01019613
     atom  118 type  4   force =    -0.00152978   -0.00243032   -0.00891036
     atom  119 type  4   force =     0.00214352    0.00852611    0.00643528
     atom  120 type  4   force =    -0.00693539   -0.00291909   -0.01966423
     atom  121 type  4   force =     0.00984685    0.00733790   -0.00647314
     atom  122 type  4   force =     0.00707120   -0.00305883    0.00603750
     atom  123 type  4   force =     0.00213448    0.00595538   -0.00053422
     atom  124 type  4   force =     0.00324176    0.00083691    0.00505887
     atom  125 type  4   force =    -0.01315023    0.00021970    0.00332825
     atom  126 type  4   force =    -0.01458397    0.00249997   -0.00332058
     atom  127 type  4   force =     0.01319161    0.00299244   -0.00437052
     atom  128 type  4   force =    -0.00437524   -0.00382927   -0.00006470
     atom  129 type  4   force =    -0.00436574    0.00263774   -0.00051200
     atom  130 type  4   force =     0.01639705   -0.00324175    0.00422302
     atom  131 type  1   force =    -0.00759269   -0.00702228   -0.00838312
     atom  132 type  2   force =     0.01596126    0.01726601   -0.01012261
     atom  133 type  1   force =     0.00582402   -0.00483205   -0.00593759
     atom  134 type  1   force =    -0.02057105    0.01943103    0.01959855
     atom  135 type  1   force =     0.00444133   -0.00750570   -0.00159946
     atom  136 type  1   force =    -0.00394028   -0.00546666   -0.00121567
     atom  137 type  3   force =    -0.03903398   -0.03835834   -0.05603569
     atom  138 type  3   force =    -0.00486239   -0.00127007   -0.00114716
     atom  139 type  3   force =     0.00273551   -0.00101143   -0.01011695
     atom  140 type  3   force =     0.02908746   -0.04950013   -0.06057912
     atom  141 type  4   force =     0.00620093    0.00350747    0.02104676
     atom  142 type  4   force =     0.00443221    0.00231548    0.01455115
     atom  143 type  4   force =    -0.00059324    0.00283579    0.01278008
     atom  144 type  4   force =     0.00019104    0.00223213    0.01638355
     atom  145 type  4   force =     0.00122227   -0.00060954    0.03918350
     atom  146 type  4   force =    -0.00547529   -0.00391054   -0.01712433
     atom  147 type  4   force =     0.00780737    0.00454951   -0.00273816
     atom  148 type  4   force =     0.00162650   -0.00734410    0.03560340
     atom  149 type  4   force =    -0.00933746    0.03912975    0.00094198
     atom  150 type  4   force =     0.00208131   -0.00047171    0.00795593
     atom  151 type  4   force =    -0.02993266    0.00086959    0.00763818
     atom  152 type  4   force =    -0.01361962    0.00143723   -0.00040797
     atom  153 type  4   force =     0.01213455    0.00359571   -0.00250780
     atom  154 type  4   force =    -0.00245274   -0.00281145    0.00249586
     atom  155 type  4   force =     0.00910020    0.02579077   -0.00263117
     atom  156 type  4   force =     0.03346541   -0.00620592    0.00600127
     atom  157 type  4   force =    -0.00742923    0.00706279   -0.00283676
     atom  158 type  5   force =     0.00742551   -0.00547125    0.00181194

     Total force =     0.237503     Total SCF correction =     0.003533
 
     init_run     :      8.27s CPU      9.02s WALL (       1 calls)
     electrons    :   1518.72s CPU   1599.97s WALL (       1 calls)
     forces       :      3.88s CPU      4.37s WALL (       1 calls)
     force_london :      0.11s CPU      0.11s WALL (       1 calls)

     Called by init_run:
     wfcinit      :      4.99s CPU      5.19s WALL (       1 calls)
     potinit      :      0.53s CPU      0.75s WALL (       1 calls)
     hinit0       :      1.52s CPU      1.59s WALL (       1 calls)

     Called by electrons:
     c_bands      :   1182.81s CPU   1224.34s WALL (     112 calls)
     sum_band     :    214.02s CPU    235.25s WALL (     112 calls)
     v_of_rho     :     27.72s CPU     29.15s WALL (     113 calls)
     newd         :     60.94s CPU     78.03s WALL (     113 calls)
     mix_rho      :     31.40s CPU     31.53s WALL (     112 calls)
     energy_londo :      0.16s CPU      0.16s WALL (       1 calls)

     Called by c_bands:
     init_us_2    :      3.91s CPU      4.02s WALL (     452 calls)
     init_us_2:cp :      3.90s CPU      4.02s WALL (     452 calls)
     regterg      :   1153.46s CPU   1194.55s WALL (     225 calls)

     Called by *egterg:
     rdiaghg      :    310.62s CPU    330.10s WALL (     859 calls)
     h_psi        :    482.11s CPU    492.00s WALL (     861 calls)
     s_psi        :     94.54s CPU     94.59s WALL (     861 calls)
     g_psi        :      0.70s CPU      0.71s WALL (     634 calls)

     Called by h_psi:
     h_psi:calbec :    115.64s CPU    123.32s WALL (     861 calls)
     vloc_psi     :    271.31s CPU    272.50s WALL (     861 calls)
     add_vuspsi   :     93.90s CPU     94.89s WALL (     861 calls)

     General routines
     calbec       :    171.64s CPU    183.06s WALL (    1093 calls)
     fft          :     18.80s CPU     20.77s WALL (    2047 calls)
     ffts         :     20.18s CPU     20.23s WALL (   13991 calls)
     fftw         :    303.45s CPU    304.72s WALL (  376022 calls)
     interpolate  :      2.14s CPU      2.29s WALL (     226 calls)
 
     Parallel routines
 
     PWSCF        :  25m33.00s CPU  26m55.79s WALL

 
   This run was terminated on:   2:17:30  18Nov2025            

=------------------------------------------------------------------------------=
   JOB DONE.
=------------------------------------------------------------------------------=
