
     Program PWSCF v.7.2 starts on 18Nov2025 at  0:40: 7 

     This program is part of the open-source Quantum ESPRESSO suite
     for quantum simulation of materials; please cite
         "P. Giannozzi et al., J. Phys.:Condens. Matter 21 395502 (2009);
         "P. Giannozzi et al., J. Phys.:Condens. Matter 29 465901 (2017);
         "P. Giannozzi et al., J. Chem. Phys. 152 154105 (2020);
          URL http://www.quantum-espresso.org", 
     in publications or presentations arising from this work. More details at
     http://www.quantum-espresso.org/quote

     Parallel version (MPI), running on    64 processors

     MPI processes distributed on     4 nodes
     465099 MiB available memory on the printing compute node when the environment starts
 
     Reading input from PWINPUT_atm157_zm

     Current dimensions of program PWSCF are:
     Max number of different atomic species (ntypx) = 10
     Max number of k-points (npk) =  40000
     Max angular momentum in pseudopotentials (lmaxx) =  4
     Presently no symmetry can be used with electric field

     file Ni.pbe-n-rrkjus_psl.1.0.0.UPF: wavefunction(s)  3D renormalized
     file Mn.pbe-spn-rrkjus_psl.0.3.1.UPF: wavefunction(s)  3D renormalized
     file O.pbe-rrkjus.UPF: wavefunction(s)  2S renormalized
     file H.pbe-rrkjus.UPF: wavefunction(s)  1S renormalized

     gamma-point specific algorithms are used
 
     R & G space division:  proc/nbgrp/npool/nimage =      64
     Subspace diagonalization in iterative solution of the eigenvalue problem:
     one sub-group per band group will be used
     custom distributed-memory algorithm (size of sub-group:  7*  7 procs)

 
     Parallelization info
     --------------------
     sticks:   dense  smooth     PW     G-vecs:    dense   smooth      PW
     Min         207      82     20                60552    15302    1896
     Max         210      84     22                60574    15336    1950
     Sum       13325    5345   1333              3876045   980655  122653
 
     Using Slab Decomposition
 


     bravais-lattice index     =            0
     lattice parameter (alat)  =      17.4067  a.u.
     unit-cell volume          =   20529.8182 (a.u.)^3
     number of atoms/cell      =          158
     number of atomic types    =            5
     number of electrons       =      1093.00
     number of Kohn-Sham states=          656
     kinetic-energy cutoff     =      50.0000  Ry
     charge density cutoff     =     500.0000  Ry
     scf convergence threshold =      1.0E-06
     mixing beta               =       0.1000
     number of iterations used =            8  local-TF  mixing
     Exchange-correlation=  SLA  PW   PBE  PBE
                           (   1   4   3   4   0   0   0)

     celldm(1)=  17.406729  celldm(2)=   0.000000  celldm(3)=   0.000000
     celldm(4)=   0.000000  celldm(5)=   0.000000  celldm(6)=   0.000000

     crystal axes: (cart. coord. in units of alat)
               a(1) = (   1.000000   0.000000   0.000000 )  
               a(2) = (  -0.001404   1.105696   0.000000 )  
               a(3) = (   0.000000   0.000000   3.520448 )  

     reciprocal axes: (cart. coord. in units 2 pi/alat)
               b(1) = (  1.000000  0.001270  0.000000 )  
               b(2) = (  0.000000  0.904408  0.000000 )  
               b(3) = (  0.000000  0.000000  0.284055 )  


     PseudoPot. # 1 for Ni read from file:
     ~/PSEUDO/Ni.pbe-n-rrkjus_psl.1.0.0.UPF
     MD5 check sum: Not computed, couldn't open file
     Pseudo is Ultrasoft + core correction, Zval = 10.0
     Generated using "atomic" code by A. Dal Corso  v.5.1.2
     Using radial grid of 1195 points,  6 beta functions with: 
                l(1) =   0
                l(2) =   0
                l(3) =   1
                l(4) =   1
                l(5) =   2
                l(6) =   2
     Q(r) pseudized with 0 coefficients 


     PseudoPot. # 2 for Mn read from file:
     ~/PSEUDO/Mn.pbe-spn-rrkjus_psl.0.3.1.UPF
     MD5 check sum: Not computed, couldn't open file
     Pseudo is Ultrasoft + core correction, Zval = 15.0
     Generated using &quot;atomic&quot; code by A. Dal Corso  v.6.2.2
     Using radial grid of 1187 points,  6 beta functions with: 
                l(1) =   0
                l(2) =   0
                l(3) =   1
                l(4) =   1
                l(5) =   2
                l(6) =   2
     Q(r) pseudized with 0 coefficients 


     PseudoPot. # 3 for P  read from file:
     ~/PSEUDO/P.pbe-n-rrkjus_psl.1.0.0.UPF
     MD5 check sum: Not computed, couldn't open file
     Pseudo is Ultrasoft + core correction, Zval =  5.0
     Generated using "atomic" code by A. Dal Corso  v.5.1
     Using radial grid of 1147 points,  6 beta functions with: 
                l(1) =   0
                l(2) =   0
                l(3) =   1
                l(4) =   1
                l(5) =   2
                l(6) =   2
     Q(r) pseudized with 0 coefficients 


     PseudoPot. # 4 for O  read from file:
     ~/PSEUDO/O.pbe-rrkjus.UPF
     MD5 check sum: Not computed, couldn't open file
     Pseudo is Ultrasoft, Zval =  6.0
     Generated by new atomic code, or converted to UPF format
     Using radial grid of 1269 points,  4 beta functions with: 
                l(1) =   0
                l(2) =   0
                l(3) =   1
                l(4) =   1
     Q(r) pseudized with 0 coefficients 


     PseudoPot. # 5 for H  read from file:
     ~/PSEUDO/H.pbe-rrkjus.UPF
     MD5 check sum: Not computed, couldn't open file
     Pseudo is Ultrasoft, Zval =  1.0
     Generated by new atomic code, or converted to UPF format
     Using radial grid of 1061 points,  2 beta functions with: 
                l(1) =   0
                l(2) =   0
     Q(r) pseudized with 0 coefficients 


     atomic species   valence    mass     pseudopotential
     Ni               10.00    58.69300     Ni( 1.00)
     Mn               15.00    54.93800     Mn( 1.00)
     P                 5.00    30.97300     P ( 1.00)
     O                 6.00    15.99900     O ( 1.00)
     H                 1.00     1.00790     H ( 1.00)

     Starting magnetic structure 
     atomic species   magnetization
     Ni              1.000
     Mn              1.000
     P               1.000
     O               1.000
     H               0.000

     No symmetry found



   Cartesian axes

     site n.     atom                  positions (alat units)
         1        Ni     tau(   1) = (   0.2516924   0.8633449   1.7463431  )
         2        Mn     tau(   2) = (   0.4858702   0.7924072   1.4296398  )
         3        Ni     tau(   3) = (  -0.0004960   0.3052069   1.7433305  )
         4        Ni     tau(   4) = (   0.2564981   0.2439079   1.4294353  )
         5        Ni     tau(   5) = (   0.4974217   1.1099092   1.5983921  )
         6        Ni     tau(   6) = (   0.2522981   0.5514414   1.6004118  )
         7        P      tau(   7) = (   0.2082091   1.0035384   1.4306784  )
         8        P      tau(   8) = (   0.4616835   0.6681301   1.7674811  )
         9        P      tau(   9) = (   0.2867076   0.1153356   1.7548632  )
        10        P      tau(  10) = (   0.0394718   0.4432333   1.4316675  )
        11        O      tau(  11) = (   0.1330537   0.9306336   1.5703788  )
        12        O      tau(  12) = (   0.3824580   0.7326833   1.6196685  )
        13        O      tau(  13) = (   0.3632794   0.1756131   1.6084910  )
        14        O      tau(  14) = (   0.1181909   0.3720715   1.5705068  )
        15        O      tau(  15) = (   0.1497429   0.9117647   1.3026676  )
        16        O      tau(  16) = (   0.4024605   0.7699543   1.8833170  )
        17        O      tau(  17) = (   0.3436717   0.2148734   1.8743526  )
        18        O      tau(  18) = (   0.0995925   0.3561393   1.3016093  )
        19        O      tau(  19) = (   0.0985164   0.6018581   1.4374099  )
        20        O      tau(  20) = (   0.3415582   1.0599765   1.7584409  )
        21        O      tau(  21) = (   0.3722969   0.4384776   1.4449122  )
        22        O      tau(  22) = (   0.1186468   0.1181077   1.7426368  )
        23        O      tau(  23) = (   0.1302304   0.6725321   1.7481513  )
        24        O      tau(  24) = (   0.4019428   0.5092918   1.7599288  )
        25        O      tau(  25) = (   0.1467744   0.0543371   1.4323260  )
        26        O      tau(  26) = (   0.3746526   0.9957152   1.4432161  )
        27        Ni     tau(  27) = (   0.2413539   0.8509941   1.1121345  )
        28        Mn     tau(  28) = (   0.4917018   0.7787406   0.7768134  )
        29        Ni     tau(  29) = (   0.0044877   0.2932623   1.1138982  )
        30        Ni     tau(  30) = (   0.2563139   0.2275682   0.7805625  )
        31        Ni     tau(  31) = (   0.4969120   1.0949007   0.9459116  )
        32        Ni     tau(  32) = (   0.2488318   0.5341111   0.9469721  )
        33        P      tau(  33) = (   0.2076029   0.9882917   0.7835381  )
        34        P      tau(  34) = (   0.4577012   0.6460068   1.1076436  )
        35        P      tau(  35) = (   0.2881931   0.0932770   1.1104179  )
        36        P      tau(  36) = (   0.0392916   0.4238898   0.7837243  )
        37        O      tau(  37) = (   0.1306755   0.9148866   0.9233554  )
        38        O      tau(  38) = (   0.3789780   0.7172835   0.9680652  )
        39        O      tau(  39) = (   0.3654852   0.1662865   0.9702638  )
        40        O      tau(  40) = (   0.1163776   0.3546954   0.9254186  )
        41        O      tau(  41) = (   0.1502901   0.8969129   0.6541592  )
        42        O      tau(  42) = (   0.3974525   0.7354243   1.2370031  )
        43        O      tau(  43) = (   0.3483097   0.1789497   1.2412670  )
        44        O      tau(  44) = (   0.0974932   0.3376387   0.6529083  )
        45        O      tau(  45) = (   0.0984699   0.5818903   0.7881021  )
        46        O      tau(  46) = (   0.3459978   1.0405493   1.1018526  )
        47        O      tau(  47) = (   0.3731719   0.4204123   0.7945555  )
        48        O      tau(  48) = (   0.1223503   0.0989699   1.1000566  )
        49        O      tau(  49) = (   0.1235438   0.6536772   1.0980598  )
        50        O      tau(  50) = (   0.4004339   0.4872435   1.1047245  )
        51        O      tau(  51) = (   0.1476543   0.0398268   0.7872561  )
        52        O      tau(  52) = (   0.3728637   0.9843360   0.7931368  )
        53        Ni     tau(  53) = (   0.2406075   0.8410745   0.4603118  )
        54        Mn     tau(  54) = (   0.4909555   0.7688210   0.1249907  )
        55        Ni     tau(  55) = (   0.0037414   0.2833427   0.4620755  )
        56        Ni     tau(  56) = (   0.2555676   0.2176485   0.1287398  )
        57        Ni     tau(  57) = (   0.4961657   1.0849810   0.2940889  )
        58        Ni     tau(  58) = (   0.2480854   0.5241915   0.2951494  )
        59        P      tau(  59) = (   0.2068565   0.9783721   0.1317154  )
        60        P      tau(  60) = (   0.4569549   0.6360871   0.4558210  )
        61        P      tau(  61) = (   0.2874467   0.0833574   0.4585952  )
        62        P      tau(  62) = (   0.0385452   0.4139702   0.1319017  )
        63        O      tau(  63) = (   0.1299291   0.9049669   0.2715327  )
        64        O      tau(  64) = (   0.3782317   0.7073639   0.3162425  )
        65        O      tau(  65) = (   0.3647389   0.1563669   0.3184411  )
        66        O      tau(  66) = (   0.1156313   0.3447757   0.2735959  )
        67        O      tau(  67) = (   0.1495437   0.8869933   0.0023366  )
        68        O      tau(  68) = (   0.3967062   0.7255047   0.5851804  )
        69        O      tau(  69) = (   0.3475634   0.1690300   0.5894443  )
        70        O      tau(  70) = (   0.0967469   0.3277190   0.0010856  )
        71        O      tau(  71) = (   0.0977236   0.5719706   0.1362794  )
        72        O      tau(  72) = (   0.3452514   1.0306297   0.4500300  )
        73        O      tau(  73) = (   0.3724256   0.4104926   0.1427328  )
        74        O      tau(  74) = (   0.1216040   0.0890503   0.4482339  )
        75        O      tau(  75) = (   0.1227974   0.6437575   0.4462371  )
        76        O      tau(  76) = (   0.3996875   0.4773239   0.4529018  )
        77        O      tau(  77) = (   0.1469079   0.0299071   0.1354334  )
        78        O      tau(  78) = (   0.3721173   0.9744163   0.1413141  )
        79        Ni     tau(  79) = (   0.7511442   0.8590986   1.7465183  )
        80        Mn     tau(  80) = (   0.9851786   0.7929476   1.4293410  )
        81        Ni     tau(  81) = (   0.5099060   0.3149023   1.7767454  )
        82        Ni     tau(  82) = (   0.7562539   0.2440975   1.4309243  )
        83        Ni     tau(  83) = (   0.9966662   1.1069876   1.5954472  )
        84        Ni     tau(  84) = (   0.7501035   0.5484652   1.6044081  )
        85        P      tau(  85) = (   0.7074250   1.0033585   1.4315958  )
        86        P      tau(  86) = (   0.9633441   0.6641721   1.7673712  )
        87        P      tau(  87) = (   0.7881158   0.1083139   1.7616461  )
        88        P      tau(  88) = (   0.5391541   0.4408841   1.4350599  )
        89        O      tau(  89) = (   0.6330814   0.9308437   1.5713498  )
        90        O      tau(  90) = (   0.8832988   0.7267971   1.6201843  )
        91        O      tau(  91) = (   0.8626660   0.1747425   1.6135060  )
        92        O      tau(  92) = (   0.6161594   0.3680366   1.5731814  )
        93        O      tau(  93) = (   0.6491944   0.9122217   1.3030297  )
        94        O      tau(  94) = (   0.9010897   0.7628351   1.8841046  )
        95        O      tau(  95) = (   0.8533634   0.2040969   1.8804377  )
        96        O      tau(  96) = (   0.5988697   0.3546669   1.3037880  )
        97        O      tau(  97) = (   0.5982753   0.5999241   1.4409412  )
        98        O      tau(  98) = (   0.8444194   1.0540898   1.7576604  )
        99        O      tau(  99) = (   0.8730497   0.4376093   1.4459304  )
       100        O      tau( 100) = (   0.6208336   0.1136689   1.7512496  )
       101        O      tau( 101) = (   0.6284804   0.6736478   1.7466144  )
       102        O      tau( 102) = (   0.9101301   0.5023464   1.7626648  )
       103        O      tau( 103) = (   0.6477665   0.0546849   1.4347078  )
       104        O      tau( 104) = (   0.8741629   0.9946264   1.4428581  )
       105        Ni     tau( 105) = (   0.7413539   0.8509941   1.1121345  )
       106        Mn     tau( 106) = (   0.9917018   0.7787406   0.7768134  )
       107        Ni     tau( 107) = (   0.5044877   0.2932623   1.1138982  )
       108        Ni     tau( 108) = (   0.7563139   0.2275682   0.7805625  )
       109        Ni     tau( 109) = (   0.9969120   1.0949007   0.9459116  )
       110        Ni     tau( 110) = (   0.7488318   0.5341111   0.9469721  )
       111        P      tau( 111) = (   0.7076029   0.9882917   0.7835381  )
       112        P      tau( 112) = (   0.9577012   0.6460068   1.1076436  )
       113        P      tau( 113) = (   0.7881931   0.0932770   1.1104179  )
       114        P      tau( 114) = (   0.5392916   0.4238898   0.7837243  )
       115        O      tau( 115) = (   0.6306755   0.9148866   0.9233554  )
       116        O      tau( 116) = (   0.8789780   0.7172835   0.9680652  )
       117        O      tau( 117) = (   0.8654852   0.1662865   0.9702638  )
       118        O      tau( 118) = (   0.6163776   0.3546954   0.9254186  )
       119        O      tau( 119) = (   0.6502901   0.8969129   0.6541592  )
       120        O      tau( 120) = (   0.8974525   0.7354243   1.2370031  )
       121        O      tau( 121) = (   0.8483097   0.1789497   1.2412670  )
       122        O      tau( 122) = (   0.5974932   0.3376387   0.6529083  )
       123        O      tau( 123) = (   0.5984699   0.5818903   0.7881021  )
       124        O      tau( 124) = (   0.8459978   1.0405493   1.1018526  )
       125        O      tau( 125) = (   0.8731719   0.4204123   0.7945555  )
       126        O      tau( 126) = (   0.6223503   0.0989699   1.1000566  )
       127        O      tau( 127) = (   0.6235438   0.6536772   1.0980598  )
       128        O      tau( 128) = (   0.9004339   0.4872435   1.1047245  )
       129        O      tau( 129) = (   0.6476543   0.0398268   0.7872561  )
       130        O      tau( 130) = (   0.8728637   0.9843360   0.7931368  )
       131        Ni     tau( 131) = (   0.7406075   0.8410745   0.4603118  )
       132        Mn     tau( 132) = (   0.9909555   0.7688210   0.1249907  )
       133        Ni     tau( 133) = (   0.5037414   0.2833427   0.4620755  )
       134        Ni     tau( 134) = (   0.7555676   0.2176485   0.1287398  )
       135        Ni     tau( 135) = (   0.9961657   1.0849810   0.2940889  )
       136        Ni     tau( 136) = (   0.7480854   0.5241915   0.2951494  )
       137        P      tau( 137) = (   0.7068565   0.9783721   0.1317154  )
       138        P      tau( 138) = (   0.9569549   0.6360871   0.4558210  )
       139        P      tau( 139) = (   0.7874467   0.0833574   0.4585952  )
       140        P      tau( 140) = (   0.5385452   0.4139702   0.1319017  )
       141        O      tau( 141) = (   0.6299291   0.9049669   0.2715327  )
       142        O      tau( 142) = (   0.8782317   0.7073639   0.3162425  )
       143        O      tau( 143) = (   0.8647389   0.1563669   0.3184411  )
       144        O      tau( 144) = (   0.6156313   0.3447757   0.2735959  )
       145        O      tau( 145) = (   0.6495437   0.8869933   0.0023366  )
       146        O      tau( 146) = (   0.8967062   0.7255047   0.5851804  )
       147        O      tau( 147) = (   0.8475634   0.1690300   0.5894443  )
       148        O      tau( 148) = (   0.5967469   0.3277190   0.0010856  )
       149        O      tau( 149) = (   0.5977236   0.5719706   0.1362794  )
       150        O      tau( 150) = (   0.8452514   1.0306297   0.4500300  )
       151        O      tau( 151) = (   0.8724256   0.4104926   0.1427328  )
       152        O      tau( 152) = (   0.6216040   0.0890503   0.4482339  )
       153        O      tau( 153) = (   0.6227974   0.6437575   0.4462371  )
       154        O      tau( 154) = (   0.8996875   0.4773239   0.4529018  )
       155        O      tau( 155) = (   0.6469079   0.0299071   0.1354334  )
       156        O      tau( 156) = (   0.8721173   0.9744163   0.1413141  )
       157        O      tau( 157) = (   0.6257083   0.3971071   1.9123732  )
       158        H      tau( 158) = (   0.7088529   0.3338928   1.9393986  )

     -------------------------------------------------
     Parameters for Dispersion (Grimme-D2) Correction:
     -------------------------------------------------
       atom      VdW radius       C_6     

        Ni         2.952        374.666
        Mn         2.952        374.666
        P          3.222        271.980
        O          2.536         24.284
        H          1.892          4.857

     number of k points=     1  Gaussian smearing, width (Ry)=  0.0100
                       cart. coord. in units 2pi/alat
        k(    1) = (   0.0000000   0.0000000   0.0000000), wk =   1.0000000

     Dense  grid:  1938023 G-vectors     FFT dimensions: ( 125, 144, 450)

     Smooth grid:   490328 G-vectors     FFT dimensions: (  80,  90, 288)

     Estimated max dynamical RAM per process >     326.29 MB

     Estimated total dynamical RAM >      20.39 GB

     Check: negative core charge=   -0.000001
     Generating pointlists ...
     new r_m :   0.0810 (alat units)  1.4100 (a.u.) for type    1
     new r_m :   0.0904 (alat units)  1.5731 (a.u.) for type    2
     new r_m :   0.0681 (alat units)  1.1850 (a.u.) for type    3
     new r_m :   0.0445 (alat units)  0.7747 (a.u.) for type    4
     new r_m :   0.0445 (alat units)  0.7747 (a.u.) for type    5

     Initial potential from superposition of free atoms

     starting charge    1092.8893, renormalised to    1093.0000

     negative rho (up, down):  1.395E-03 4.535E-04
 
     Adding external electric field

     Computed dipole along edir(3) : 
        Dipole                1.6578 Ry au,          4.2136 Debye
        Dipole field          0.0010 Ry au, 
 
        Potential amp.       -0.1119 Ry
        Total length         55.1515 bohr
 
 
     Adding external electric field

     Computed dipole along edir(3) : 
        Dipole                1.6578 Ry au,          4.2136 Debye
        Dipole field          0.0010 Ry au, 
 
        Potential amp.       -0.1119 Ry
        Total length         55.1515 bohr
 
     Starting wfcs are  815 randomized atomic wfcs

     total cpu time spent up to now is       12.3 secs

     Self-consistent Calculation

     iteration #  1     ecut=    50.00 Ry     beta= 0.10
     Davidson diagonalization with overlap
     ethr =  1.00E-02,  avg # of iterations =  6.0

     negative rho (up, down):  3.844E-01 2.231E-06
 
     Adding external electric field

     Computed dipole along edir(3) : 
        Dipole               -3.7440 Ry au,         -9.5163 Debye
        Dipole field         -0.0023 Ry au, 
 
        Potential amp.        0.2528 Ry
        Total length         55.1515 bohr
 
 
     Adding external electric field

     Computed dipole along edir(3) : 
        Dipole               -3.7440 Ry au,         -9.5163 Debye
        Dipole field         -0.0023 Ry au, 
 
        Potential amp.        0.2528 Ry
        Total length         55.1515 bohr
 

     total cpu time spent up to now is       45.3 secs

     total energy              =   -7517.92562500 Ry
     estimated scf accuracy    <     802.27043448 Ry

     total magnetization       =   219.00 Bohr mag/cell
     absolute magnetization    =   307.57 Bohr mag/cell

     iteration #  2     ecut=    50.00 Ry     beta= 0.10
     Davidson diagonalization with overlap
     ethr =  1.00E-02,  avg # of iterations =  2.0

     negative rho (up, down):  3.641E-01 1.230E-06
 
     Adding external electric field

     Computed dipole along edir(3) : 
        Dipole               -2.4873 Ry au,         -6.3221 Debye
        Dipole field         -0.0015 Ry au, 
 
        Potential amp.        0.1679 Ry
        Total length         55.1515 bohr
 
 
     Adding external electric field

     Computed dipole along edir(3) : 
        Dipole               -2.4873 Ry au,         -6.3221 Debye
        Dipole field         -0.0015 Ry au, 
 
        Potential amp.        0.1679 Ry
        Total length         55.1515 bohr
 

     total cpu time spent up to now is       65.3 secs

     total energy              =   -7600.42396925 Ry
     estimated scf accuracy    <     222.13363251 Ry

     total magnetization       =   159.14 Bohr mag/cell
     absolute magnetization    =   207.56 Bohr mag/cell

     iteration #  3     ecut=    50.00 Ry     beta= 0.10
     Davidson diagonalization with overlap
     ethr =  1.00E-02,  avg # of iterations =  1.5

     negative rho (up, down):  3.256E-01 1.348E-06
 
     Adding external electric field

     Computed dipole along edir(3) : 
        Dipole               -2.1504 Ry au,         -5.4658 Debye
        Dipole field         -0.0013 Ry au, 
 
        Potential amp.        0.1452 Ry
        Total length         55.1515 bohr
 
 
     Adding external electric field

     Computed dipole along edir(3) : 
        Dipole               -2.1504 Ry au,         -5.4658 Debye
        Dipole field         -0.0013 Ry au, 
 
        Potential amp.        0.1452 Ry
        Total length         55.1515 bohr
 

     total cpu time spent up to now is       80.4 secs

     total energy              =   -7629.73119130 Ry
     estimated scf accuracy    <     103.45759661 Ry

     total magnetization       =   135.34 Bohr mag/cell
     absolute magnetization    =   186.00 Bohr mag/cell

     iteration #  4     ecut=    50.00 Ry     beta= 0.10
     Davidson diagonalization with overlap
     ethr =  9.47E-03,  avg # of iterations =  1.5

     negative rho (up, down):  2.563E-01 7.800E-07
 
     Adding external electric field

     Computed dipole along edir(3) : 
        Dipole               -1.9837 Ry au,         -5.0422 Debye
        Dipole field         -0.0012 Ry au, 
 
        Potential amp.        0.1339 Ry
        Total length         55.1515 bohr
 
 
     Adding external electric field

     Computed dipole along edir(3) : 
        Dipole               -1.9837 Ry au,         -5.0422 Debye
        Dipole field         -0.0012 Ry au, 
 
        Potential amp.        0.1339 Ry
        Total length         55.1515 bohr
 

     total cpu time spent up to now is       95.4 secs

     total energy              =   -7662.52137770 Ry
     estimated scf accuracy    <      82.81265110 Ry

     total magnetization       =   119.88 Bohr mag/cell
     absolute magnetization    =   171.75 Bohr mag/cell

     iteration #  5     ecut=    50.00 Ry     beta= 0.10
     Davidson diagonalization with overlap
     ethr =  7.58E-03,  avg # of iterations =  1.0

     negative rho (up, down):  3.610E-02 4.273E-07
 
     Adding external electric field

     Computed dipole along edir(3) : 
        Dipole               -1.5450 Ry au,         -3.9271 Debye
        Dipole field         -0.0009 Ry au, 
 
        Potential amp.        0.1043 Ry
        Total length         55.1515 bohr
 
 
     Adding external electric field

     Computed dipole along edir(3) : 
        Dipole               -1.5450 Ry au,         -3.9271 Debye
        Dipole field         -0.0009 Ry au, 
 
        Potential amp.        0.1043 Ry
        Total length         55.1515 bohr
 

     total cpu time spent up to now is      109.5 secs

     total energy              =   -7721.96722364 Ry
     estimated scf accuracy    <      66.22515644 Ry

     total magnetization       =    97.47 Bohr mag/cell
     absolute magnetization    =   152.90 Bohr mag/cell

     iteration #  6     ecut=    50.00 Ry     beta= 0.10
     Davidson diagonalization with overlap
     ethr =  6.06E-03,  avg # of iterations =  1.0

     negative rho (up, down):  8.786E-04 1.459E-03
 
     Adding external electric field

     Computed dipole along edir(3) : 
        Dipole               -1.1669 Ry au,         -2.9659 Debye
        Dipole field         -0.0007 Ry au, 
 
        Potential amp.        0.0788 Ry
        Total length         55.1515 bohr
 
 
     Adding external electric field

     Computed dipole along edir(3) : 
        Dipole               -1.1669 Ry au,         -2.9659 Debye
        Dipole field         -0.0007 Ry au, 
 
        Potential amp.        0.0788 Ry
        Total length         55.1515 bohr
 

     total cpu time spent up to now is      123.6 secs

     total energy              =   -7735.85340616 Ry
     estimated scf accuracy    <      15.05892737 Ry

     total magnetization       =    91.00 Bohr mag/cell
     absolute magnetization    =   125.58 Bohr mag/cell

     iteration #  7     ecut=    50.00 Ry     beta= 0.10
     Davidson diagonalization with overlap
     ethr =  1.38E-03,  avg # of iterations =  6.0

     negative rho (up, down):  8.529E-04 1.438E-03
 
     Adding external electric field

     Computed dipole along edir(3) : 
        Dipole               -1.1686 Ry au,         -2.9703 Debye
        Dipole field         -0.0007 Ry au, 
 
        Potential amp.        0.0789 Ry
        Total length         55.1515 bohr
 
 
     Adding external electric field

     Computed dipole along edir(3) : 
        Dipole               -1.1686 Ry au,         -2.9703 Debye
        Dipole field         -0.0007 Ry au, 
 
        Potential amp.        0.0789 Ry
        Total length         55.1515 bohr
 

     total cpu time spent up to now is      148.4 secs

     total energy              =   -7738.25022627 Ry
     estimated scf accuracy    <      19.82592349 Ry

     total magnetization       =    70.67 Bohr mag/cell
     absolute magnetization    =    87.97 Bohr mag/cell

     iteration #  8     ecut=    50.00 Ry     beta= 0.10
     Davidson diagonalization with overlap
     ethr =  1.38E-03,  avg # of iterations =  1.0

     negative rho (up, down):  8.690E-04 1.460E-03
 
     Adding external electric field

     Computed dipole along edir(3) : 
        Dipole               -1.1666 Ry au,         -2.9653 Debye
        Dipole field         -0.0007 Ry au, 
 
        Potential amp.        0.0788 Ry
        Total length         55.1515 bohr
 
 
     Adding external electric field

     Computed dipole along edir(3) : 
        Dipole               -1.1666 Ry au,         -2.9653 Debye
        Dipole field         -0.0007 Ry au, 
 
        Potential amp.        0.0788 Ry
        Total length         55.1515 bohr
 

     total cpu time spent up to now is      162.1 secs

     total energy              =   -7738.33841849 Ry
     estimated scf accuracy    <      19.31947958 Ry

     total magnetization       =    70.83 Bohr mag/cell
     absolute magnetization    =    87.64 Bohr mag/cell

     iteration #  9     ecut=    50.00 Ry     beta= 0.10
     Davidson diagonalization with overlap
     ethr =  1.38E-03,  avg # of iterations =  1.0

     negative rho (up, down):  6.214E-04 1.127E-03
 
     Adding external electric field

     Computed dipole along edir(3) : 
        Dipole               -1.2178 Ry au,         -3.0953 Debye
        Dipole field         -0.0007 Ry au, 
 
        Potential amp.        0.0822 Ry
        Total length         55.1515 bohr
 
 
     Adding external electric field

     Computed dipole along edir(3) : 
        Dipole               -1.2178 Ry au,         -3.0953 Debye
        Dipole field         -0.0007 Ry au, 
 
        Potential amp.        0.0822 Ry
        Total length         55.1515 bohr
 

     total cpu time spent up to now is      176.8 secs

     total energy              =   -7738.05503564 Ry
     estimated scf accuracy    <      19.84153557 Ry

     total magnetization       =    70.66 Bohr mag/cell
     absolute magnetization    =    87.21 Bohr mag/cell

     iteration # 10     ecut=    50.00 Ry     beta= 0.10
     Davidson diagonalization with overlap
     ethr =  1.38E-03,  avg # of iterations =  1.0

     negative rho (up, down):  3.391E-04 7.310E-04
 
     Adding external electric field

     Computed dipole along edir(3) : 
        Dipole               -1.4197 Ry au,         -3.6086 Debye
        Dipole field         -0.0009 Ry au, 
 
        Potential amp.        0.0959 Ry
        Total length         55.1515 bohr
 
 
     Adding external electric field

     Computed dipole along edir(3) : 
        Dipole               -1.4197 Ry au,         -3.6086 Debye
        Dipole field         -0.0009 Ry au, 
 
        Potential amp.        0.0959 Ry
        Total length         55.1515 bohr
 

     total cpu time spent up to now is      190.9 secs

     total energy              =   -7737.34470960 Ry
     estimated scf accuracy    <      15.32202996 Ry

     total magnetization       =    71.66 Bohr mag/cell
     absolute magnetization    =    86.88 Bohr mag/cell

     iteration # 11     ecut=    50.00 Ry     beta= 0.10
     Davidson diagonalization with overlap
     ethr =  1.38E-03,  avg # of iterations =  2.0

     negative rho (up, down):  2.581E-04 6.687E-04
 
     Adding external electric field

     Computed dipole along edir(3) : 
        Dipole               -1.3641 Ry au,         -3.4673 Debye
        Dipole field         -0.0008 Ry au, 
 
        Potential amp.        0.0921 Ry
        Total length         55.1515 bohr
 
 
     Adding external electric field

     Computed dipole along edir(3) : 
        Dipole               -1.3641 Ry au,         -3.4673 Debye
        Dipole field         -0.0008 Ry au, 
 
        Potential amp.        0.0921 Ry
        Total length         55.1515 bohr
 

     total cpu time spent up to now is      205.6 secs

     total energy              =   -7737.92715556 Ry
     estimated scf accuracy    <       1.14536441 Ry

     total magnetization       =    88.73 Bohr mag/cell
     absolute magnetization    =    98.65 Bohr mag/cell

     iteration # 12     ecut=    50.00 Ry     beta= 0.10
     Davidson diagonalization with overlap
     ethr =  1.05E-04,  avg # of iterations = 13.5

     negative rho (up, down):  2.368E-04 6.972E-04
 
     Adding external electric field

     Computed dipole along edir(3) : 
        Dipole               -1.2935 Ry au,         -3.2879 Debye
        Dipole field         -0.0008 Ry au, 
 
        Potential amp.        0.0873 Ry
        Total length         55.1515 bohr
 
 
     Adding external electric field

     Computed dipole along edir(3) : 
        Dipole               -1.2935 Ry au,         -3.2879 Debye
        Dipole field         -0.0008 Ry au, 
 
        Potential amp.        0.0873 Ry
        Total length         55.1515 bohr
 

     total cpu time spent up to now is      229.9 secs

     total energy              =   -7737.90244461 Ry
     estimated scf accuracy    <       1.22626119 Ry

     total magnetization       =    87.91 Bohr mag/cell
     absolute magnetization    =    97.37 Bohr mag/cell

     iteration # 13     ecut=    50.00 Ry     beta= 0.10
     Davidson diagonalization with overlap
     ethr =  1.05E-04,  avg # of iterations =  1.5

     negative rho (up, down):  2.051E-04 7.026E-04
 
     Adding external electric field

     Computed dipole along edir(3) : 
        Dipole               -1.2848 Ry au,         -3.2655 Debye
        Dipole field         -0.0008 Ry au, 
 
        Potential amp.        0.0867 Ry
        Total length         55.1515 bohr
 
 
     Adding external electric field

     Computed dipole along edir(3) : 
        Dipole               -1.2848 Ry au,         -3.2655 Debye
        Dipole field         -0.0008 Ry au, 
 
        Potential amp.        0.0867 Ry
        Total length         55.1515 bohr
 

     total cpu time spent up to now is      244.7 secs

     total energy              =   -7737.92822073 Ry
     estimated scf accuracy    <       2.78831448 Ry

     total magnetization       =    84.47 Bohr mag/cell
     absolute magnetization    =    94.35 Bohr mag/cell

     iteration # 14     ecut=    50.00 Ry     beta= 0.10
     Davidson diagonalization with overlap
     ethr =  1.05E-04,  avg # of iterations =  1.0

     negative rho (up, down):  1.289E-04 4.131E-04
 
     Adding external electric field

     Computed dipole along edir(3) : 
        Dipole               -1.3038 Ry au,         -3.3139 Debye
        Dipole field         -0.0008 Ry au, 
 
        Potential amp.        0.0880 Ry
        Total length         55.1515 bohr
 
 
     Adding external electric field

     Computed dipole along edir(3) : 
        Dipole               -1.3038 Ry au,         -3.3139 Debye
        Dipole field         -0.0008 Ry au, 
 
        Potential amp.        0.0880 Ry
        Total length         55.1515 bohr
 

     total cpu time spent up to now is      258.1 secs

     total energy              =   -7737.98667027 Ry
     estimated scf accuracy    <       2.91963746 Ry

     total magnetization       =    83.87 Bohr mag/cell
     absolute magnetization    =    93.54 Bohr mag/cell

     iteration # 15     ecut=    50.00 Ry     beta= 0.10
     Davidson diagonalization with overlap
     ethr =  1.05E-04,  avg # of iterations =  1.5

     negative rho (up, down):  3.574E-05 1.635E-04
 
     Adding external electric field

     Computed dipole along edir(3) : 
        Dipole               -1.2554 Ry au,         -3.1910 Debye
        Dipole field         -0.0008 Ry au, 
 
        Potential amp.        0.0848 Ry
        Total length         55.1515 bohr
 
 
     Adding external electric field

     Computed dipole along edir(3) : 
        Dipole               -1.2554 Ry au,         -3.1910 Debye
        Dipole field         -0.0008 Ry au, 
 
        Potential amp.        0.0848 Ry
        Total length         55.1515 bohr
 

     total cpu time spent up to now is      272.2 secs

     total energy              =   -7738.14361582 Ry
     estimated scf accuracy    <       0.95003465 Ry

     total magnetization       =    87.08 Bohr mag/cell
     absolute magnetization    =    95.39 Bohr mag/cell

     iteration # 16     ecut=    50.00 Ry     beta= 0.10
     Davidson diagonalization with overlap
     ethr =  8.69E-05,  avg # of iterations =  1.5

     negative rho (up, down):  7.613E-05 1.975E-04
 
     Adding external electric field

     Computed dipole along edir(3) : 
        Dipole               -1.1114 Ry au,         -2.8248 Debye
        Dipole field         -0.0007 Ry au, 
 
        Potential amp.        0.0750 Ry
        Total length         55.1515 bohr
 
 
     Adding external electric field

     Computed dipole along edir(3) : 
        Dipole               -1.1114 Ry au,         -2.8248 Debye
        Dipole field         -0.0007 Ry au, 
 
        Potential amp.        0.0750 Ry
        Total length         55.1515 bohr
 

     total cpu time spent up to now is      286.2 secs

     total energy              =   -7738.22332042 Ry
     estimated scf accuracy    <       0.32046336 Ry

     total magnetization       =    89.24 Bohr mag/cell
     absolute magnetization    =    95.07 Bohr mag/cell

     iteration # 17     ecut=    50.00 Ry     beta= 0.10
     Davidson diagonalization with overlap
     ethr =  2.93E-05,  avg # of iterations =  3.0

     negative rho (up, down):  7.621E-05 1.687E-04
 
     Adding external electric field

     Computed dipole along edir(3) : 
        Dipole               -1.1087 Ry au,         -2.8181 Debye
        Dipole field         -0.0007 Ry au, 
 
        Potential amp.        0.0749 Ry
        Total length         55.1515 bohr
 
 
     Adding external electric field

     Computed dipole along edir(3) : 
        Dipole               -1.1087 Ry au,         -2.8181 Debye
        Dipole field         -0.0007 Ry au, 
 
        Potential amp.        0.0749 Ry
        Total length         55.1515 bohr
 

     total cpu time spent up to now is      302.3 secs

     total energy              =   -7738.25580198 Ry
     estimated scf accuracy    <       1.21483414 Ry

     total magnetization       =    85.18 Bohr mag/cell
     absolute magnetization    =    89.91 Bohr mag/cell

     iteration # 18     ecut=    50.00 Ry     beta= 0.10
     Davidson diagonalization with overlap
     ethr =  2.93E-05,  avg # of iterations =  1.0

     negative rho (up, down):  1.780E-04 2.350E-04
 
     Adding external electric field

     Computed dipole along edir(3) : 
        Dipole               -1.0412 Ry au,         -2.6464 Debye
        Dipole field         -0.0006 Ry au, 
 
        Potential amp.        0.0703 Ry
        Total length         55.1515 bohr
 
 
     Adding external electric field

     Computed dipole along edir(3) : 
        Dipole               -1.0412 Ry au,         -2.6464 Debye
        Dipole field         -0.0006 Ry au, 
 
        Potential amp.        0.0703 Ry
        Total length         55.1515 bohr
 

     total cpu time spent up to now is      315.5 secs

     total energy              =   -7738.28230610 Ry
     estimated scf accuracy    <       1.02062770 Ry

     total magnetization       =    85.72 Bohr mag/cell
     absolute magnetization    =    90.38 Bohr mag/cell

     iteration # 19     ecut=    50.00 Ry     beta= 0.10
     Davidson diagonalization with overlap
     ethr =  2.93E-05,  avg # of iterations =  1.5

     negative rho (up, down):  1.754E-04 2.733E-04
 
     Adding external electric field

     Computed dipole along edir(3) : 
        Dipole               -1.0809 Ry au,         -2.7474 Debye
        Dipole field         -0.0007 Ry au, 
 
        Potential amp.        0.0730 Ry
        Total length         55.1515 bohr
 
 
     Adding external electric field

     Computed dipole along edir(3) : 
        Dipole               -1.0809 Ry au,         -2.7474 Debye
        Dipole field         -0.0007 Ry au, 
 
        Potential amp.        0.0730 Ry
        Total length         55.1515 bohr
 

     total cpu time spent up to now is      329.6 secs

     total energy              =   -7738.27813450 Ry
     estimated scf accuracy    <       1.06661968 Ry

     total magnetization       =    86.18 Bohr mag/cell
     absolute magnetization    =    90.19 Bohr mag/cell

     iteration # 20     ecut=    50.00 Ry     beta= 0.10
     Davidson diagonalization with overlap
     ethr =  2.93E-05,  avg # of iterations =  1.0

     negative rho (up, down):  1.903E-04 2.752E-04
 
     Adding external electric field

     Computed dipole along edir(3) : 
        Dipole               -1.1039 Ry au,         -2.8059 Debye
        Dipole field         -0.0007 Ry au, 
 
        Potential amp.        0.0745 Ry
        Total length         55.1515 bohr
 
 
     Adding external electric field

     Computed dipole along edir(3) : 
        Dipole               -1.1039 Ry au,         -2.8059 Debye
        Dipole field         -0.0007 Ry au, 
 
        Potential amp.        0.0745 Ry
        Total length         55.1515 bohr
 

     total cpu time spent up to now is      343.8 secs

     total energy              =   -7738.27051867 Ry
     estimated scf accuracy    <       1.01425774 Ry

     total magnetization       =    86.08 Bohr mag/cell
     absolute magnetization    =    90.12 Bohr mag/cell

     iteration # 21     ecut=    50.00 Ry     beta= 0.10
     Davidson diagonalization with overlap
     ethr =  2.93E-05,  avg # of iterations =  1.5

     negative rho (up, down):  1.173E-03 1.185E-03
 
     Adding external electric field

     Computed dipole along edir(3) : 
        Dipole               -1.0118 Ry au,         -2.5718 Debye
        Dipole field         -0.0006 Ry au, 
 
        Potential amp.        0.0683 Ry
        Total length         55.1515 bohr
 
 
     Adding external electric field

     Computed dipole along edir(3) : 
        Dipole               -1.0118 Ry au,         -2.5718 Debye
        Dipole field         -0.0006 Ry au, 
 
        Potential amp.        0.0683 Ry
        Total length         55.1515 bohr
 

     total cpu time spent up to now is      357.7 secs

     total energy              =   -7738.30743339 Ry
     estimated scf accuracy    <       0.65650128 Ry

     total magnetization       =    86.83 Bohr mag/cell
     absolute magnetization    =    90.85 Bohr mag/cell

     iteration # 22     ecut=    50.00 Ry     beta= 0.10
     Davidson diagonalization with overlap
     ethr =  2.93E-05,  avg # of iterations =  1.5

     negative rho (up, down):  2.100E-03 1.789E-03
 
     Adding external electric field

     Computed dipole along edir(3) : 
        Dipole               -0.9578 Ry au,         -2.4346 Debye
        Dipole field         -0.0006 Ry au, 
 
        Potential amp.        0.0647 Ry
        Total length         55.1515 bohr
 
 
     Adding external electric field

     Computed dipole along edir(3) : 
        Dipole               -0.9578 Ry au,         -2.4346 Debye
        Dipole field         -0.0006 Ry au, 
 
        Potential amp.        0.0647 Ry
        Total length         55.1515 bohr
 

     total cpu time spent up to now is      371.7 secs

     total energy              =   -7738.30968687 Ry
     estimated scf accuracy    <       0.48658394 Ry

     total magnetization       =    87.56 Bohr mag/cell
     absolute magnetization    =    90.17 Bohr mag/cell

     iteration # 23     ecut=    50.00 Ry     beta= 0.10
     Davidson diagonalization with overlap
     ethr =  2.93E-05,  avg # of iterations =  1.5

     negative rho (up, down):  2.677E-03 2.363E-03
 
     Adding external electric field

     Computed dipole along edir(3) : 
        Dipole               -0.8978 Ry au,         -2.2821 Debye
        Dipole field         -0.0005 Ry au, 
 
        Potential amp.        0.0606 Ry
        Total length         55.1515 bohr
 
 
     Adding external electric field

     Computed dipole along edir(3) : 
        Dipole               -0.8978 Ry au,         -2.2821 Debye
        Dipole field         -0.0005 Ry au, 
 
        Potential amp.        0.0606 Ry
        Total length         55.1515 bohr
 

     total cpu time spent up to now is      385.8 secs

     total energy              =   -7738.31431757 Ry
     estimated scf accuracy    <       0.18082172 Ry

     total magnetization       =    88.33 Bohr mag/cell
     absolute magnetization    =    90.22 Bohr mag/cell

     iteration # 24     ecut=    50.00 Ry     beta= 0.10
     Davidson diagonalization with overlap
     ethr =  1.65E-05,  avg # of iterations = 12.5

     negative rho (up, down):  1.597E-03 1.168E-03
 
     Adding external electric field

     Computed dipole along edir(3) : 
        Dipole               -0.7726 Ry au,         -1.9638 Debye
        Dipole field         -0.0005 Ry au, 
 
        Potential amp.        0.0522 Ry
        Total length         55.1515 bohr
 
 
     Adding external electric field

     Computed dipole along edir(3) : 
        Dipole               -0.7726 Ry au,         -1.9638 Debye
        Dipole field         -0.0005 Ry au, 
 
        Potential amp.        0.0522 Ry
        Total length         55.1515 bohr
 

     total cpu time spent up to now is      413.4 secs

     total energy              =   -7738.31334119 Ry
     estimated scf accuracy    <       0.10023027 Ry

     total magnetization       =    88.80 Bohr mag/cell
     absolute magnetization    =    90.34 Bohr mag/cell

     iteration # 25     ecut=    50.00 Ry     beta= 0.10
     Davidson diagonalization with overlap
     ethr =  9.17E-06,  avg # of iterations =  9.0

     negative rho (up, down):  9.011E-04 6.513E-04
 
     Adding external electric field

     Computed dipole along edir(3) : 
        Dipole               -0.7027 Ry au,         -1.7860 Debye
        Dipole field         -0.0004 Ry au, 
 
        Potential amp.        0.0474 Ry
        Total length         55.1515 bohr
 
 
     Adding external electric field

     Computed dipole along edir(3) : 
        Dipole               -0.7027 Ry au,         -1.7860 Debye
        Dipole field         -0.0004 Ry au, 
 
        Potential amp.        0.0474 Ry
        Total length         55.1515 bohr
 

     total cpu time spent up to now is      432.8 secs

     total energy              =   -7738.31754111 Ry
     estimated scf accuracy    <       0.08891413 Ry

     total magnetization       =    89.14 Bohr mag/cell
     absolute magnetization    =    90.77 Bohr mag/cell

     iteration # 26     ecut=    50.00 Ry     beta= 0.10
     Davidson diagonalization with overlap
     c_bands:  2 eigenvalues not converged
     ethr =  8.13E-06,  avg # of iterations = 11.0

     negative rho (up, down):  1.379E-03 1.126E-03
 
     Adding external electric field

     Computed dipole along edir(3) : 
        Dipole               -0.7711 Ry au,         -1.9600 Debye
        Dipole field         -0.0005 Ry au, 
 
        Potential amp.        0.0521 Ry
        Total length         55.1515 bohr
 
 
     Adding external electric field

     Computed dipole along edir(3) : 
        Dipole               -0.7711 Ry au,         -1.9600 Debye
        Dipole field         -0.0005 Ry au, 
 
        Potential amp.        0.0521 Ry
        Total length         55.1515 bohr
 

     total cpu time spent up to now is      451.9 secs

     total energy              =   -7738.31855945 Ry
     estimated scf accuracy    <       0.15656684 Ry

     total magnetization       =    88.47 Bohr mag/cell
     absolute magnetization    =    90.08 Bohr mag/cell

     iteration # 27     ecut=    50.00 Ry     beta= 0.10
     Davidson diagonalization with overlap
     c_bands:  2 eigenvalues not converged
     ethr =  8.13E-06,  avg # of iterations = 10.5

     negative rho (up, down):  1.962E-03 2.027E-03
 
     Adding external electric field

     Computed dipole along edir(3) : 
        Dipole               -0.8653 Ry au,         -2.1995 Debye
        Dipole field         -0.0005 Ry au, 
 
        Potential amp.        0.0584 Ry
        Total length         55.1515 bohr
 
 
     Adding external electric field

     Computed dipole along edir(3) : 
        Dipole               -0.8653 Ry au,         -2.1995 Debye
        Dipole field         -0.0005 Ry au, 
 
        Potential amp.        0.0584 Ry
        Total length         55.1515 bohr
 

     total cpu time spent up to now is      471.1 secs

     total energy              =   -7738.32159367 Ry
     estimated scf accuracy    <       0.11017578 Ry

     total magnetization       =    88.65 Bohr mag/cell
     absolute magnetization    =    90.25 Bohr mag/cell

     iteration # 28     ecut=    50.00 Ry     beta= 0.10
     Davidson diagonalization with overlap
     ethr =  8.13E-06,  avg # of iterations =  1.5

     negative rho (up, down):  2.334E-03 2.339E-03
 
     Adding external electric field

     Computed dipole along edir(3) : 
        Dipole               -0.8807 Ry au,         -2.2385 Debye
        Dipole field         -0.0005 Ry au, 
 
        Potential amp.        0.0595 Ry
        Total length         55.1515 bohr
 
 
     Adding external electric field

     Computed dipole along edir(3) : 
        Dipole               -0.8807 Ry au,         -2.2385 Debye
        Dipole field         -0.0005 Ry au, 
 
        Potential amp.        0.0595 Ry
        Total length         55.1515 bohr
 

     total cpu time spent up to now is      485.8 secs

     total energy              =   -7738.32136757 Ry
     estimated scf accuracy    <       0.10924821 Ry

     total magnetization       =    88.46 Bohr mag/cell
     absolute magnetization    =    89.99 Bohr mag/cell

     iteration # 29     ecut=    50.00 Ry     beta= 0.10
     Davidson diagonalization with overlap
     ethr =  8.13E-06,  avg # of iterations =  1.0

     negative rho (up, down):  1.837E-03 1.747E-03
 
     Adding external electric field

     Computed dipole along edir(3) : 
        Dipole               -0.7615 Ry au,         -1.9355 Debye
        Dipole field         -0.0005 Ry au, 
 
        Potential amp.        0.0514 Ry
        Total length         55.1515 bohr
 
 
     Adding external electric field

     Computed dipole along edir(3) : 
        Dipole               -0.7615 Ry au,         -1.9355 Debye
        Dipole field         -0.0005 Ry au, 
 
        Potential amp.        0.0514 Ry
        Total length         55.1515 bohr
 

     total cpu time spent up to now is      499.4 secs

     total energy              =   -7738.31996420 Ry
     estimated scf accuracy    <       0.08224581 Ry

     total magnetization       =    88.67 Bohr mag/cell
     absolute magnetization    =    90.20 Bohr mag/cell

     iteration # 30     ecut=    50.00 Ry     beta= 0.10
     Davidson diagonalization with overlap
     ethr =  7.52E-06,  avg # of iterations =  1.5

     negative rho (up, down):  1.934E-03 1.829E-03
 
     Adding external electric field

     Computed dipole along edir(3) : 
        Dipole               -0.7617 Ry au,         -1.9360 Debye
        Dipole field         -0.0005 Ry au, 
 
        Potential amp.        0.0514 Ry
        Total length         55.1515 bohr
 
 
     Adding external electric field

     Computed dipole along edir(3) : 
        Dipole               -0.7617 Ry au,         -1.9360 Debye
        Dipole field         -0.0005 Ry au, 
 
        Potential amp.        0.0514 Ry
        Total length         55.1515 bohr
 

     total cpu time spent up to now is      513.7 secs

     total energy              =   -7738.32043857 Ry
     estimated scf accuracy    <       0.06567612 Ry

     total magnetization       =    88.90 Bohr mag/cell
     absolute magnetization    =    90.45 Bohr mag/cell

     iteration # 31     ecut=    50.00 Ry     beta= 0.10
     Davidson diagonalization with overlap
     ethr =  6.01E-06,  avg # of iterations =  1.0

     negative rho (up, down):  2.380E-03 2.247E-03
 
     Adding external electric field

     Computed dipole along edir(3) : 
        Dipole               -0.7457 Ry au,         -1.8954 Debye
        Dipole field         -0.0005 Ry au, 
 
        Potential amp.        0.0503 Ry
        Total length         55.1515 bohr
 
 
     Adding external electric field

     Computed dipole along edir(3) : 
        Dipole               -0.7457 Ry au,         -1.8954 Debye
        Dipole field         -0.0005 Ry au, 
 
        Potential amp.        0.0503 Ry
        Total length         55.1515 bohr
 

     total cpu time spent up to now is      526.9 secs

     total energy              =   -7738.32006133 Ry
     estimated scf accuracy    <       0.06469030 Ry

     total magnetization       =    88.90 Bohr mag/cell
     absolute magnetization    =    90.44 Bohr mag/cell

     iteration # 32     ecut=    50.00 Ry     beta= 0.10
     Davidson diagonalization with overlap
     ethr =  5.92E-06,  avg # of iterations =  2.0

     negative rho (up, down):  2.253E-03 2.091E-03
 
     Adding external electric field

     Computed dipole along edir(3) : 
        Dipole               -0.7686 Ry au,         -1.9536 Debye
        Dipole field         -0.0005 Ry au, 
 
        Potential amp.        0.0519 Ry
        Total length         55.1515 bohr
 
 
     Adding external electric field

     Computed dipole along edir(3) : 
        Dipole               -0.7686 Ry au,         -1.9536 Debye
        Dipole field         -0.0005 Ry au, 
 
        Potential amp.        0.0519 Ry
        Total length         55.1515 bohr
 

     total cpu time spent up to now is      542.5 secs

     total energy              =   -7738.32028728 Ry
     estimated scf accuracy    <       0.06796173 Ry

     total magnetization       =    88.88 Bohr mag/cell
     absolute magnetization    =    90.31 Bohr mag/cell

     iteration # 33     ecut=    50.00 Ry     beta= 0.10
     Davidson diagonalization with overlap
     ethr =  5.92E-06,  avg # of iterations =  1.0

     negative rho (up, down):  1.995E-03 1.782E-03
 
     Adding external electric field

     Computed dipole along edir(3) : 
        Dipole               -0.6535 Ry au,         -1.6610 Debye
        Dipole field         -0.0004 Ry au, 
 
        Potential amp.        0.0441 Ry
        Total length         55.1515 bohr
 
 
     Adding external electric field

     Computed dipole along edir(3) : 
        Dipole               -0.6535 Ry au,         -1.6610 Debye
        Dipole field         -0.0004 Ry au, 
 
        Potential amp.        0.0441 Ry
        Total length         55.1515 bohr
 

     total cpu time spent up to now is      556.1 secs

     total energy              =   -7738.31809874 Ry
     estimated scf accuracy    <       0.06882118 Ry

     total magnetization       =    88.89 Bohr mag/cell
     absolute magnetization    =    90.32 Bohr mag/cell

     iteration # 34     ecut=    50.00 Ry     beta= 0.10
     Davidson diagonalization with overlap
     ethr =  5.92E-06,  avg # of iterations =  2.0

     negative rho (up, down):  1.858E-03 1.398E-03
 
     Adding external electric field

     Computed dipole along edir(3) : 
        Dipole               -0.4022 Ry au,         -1.0223 Debye
        Dipole field         -0.0002 Ry au, 
 
        Potential amp.        0.0272 Ry
        Total length         55.1515 bohr
 
 
     Adding external electric field

     Computed dipole along edir(3) : 
        Dipole               -0.4022 Ry au,         -1.0223 Debye
        Dipole field         -0.0002 Ry au, 
 
        Potential amp.        0.0272 Ry
        Total length         55.1515 bohr
 

     total cpu time spent up to now is      571.1 secs

     total energy              =   -7738.31258342 Ry
     estimated scf accuracy    <       0.05480102 Ry

     total magnetization       =    88.97 Bohr mag/cell
     absolute magnetization    =    90.49 Bohr mag/cell

     iteration # 35     ecut=    50.00 Ry     beta= 0.10
     Davidson diagonalization with overlap
     ethr =  5.01E-06,  avg # of iterations =  3.0

     negative rho (up, down):  1.594E-03 1.212E-03
 
     Adding external electric field

     Computed dipole along edir(3) : 
        Dipole               -0.3072 Ry au,         -0.7808 Debye
        Dipole field         -0.0002 Ry au, 
 
        Potential amp.        0.0207 Ry
        Total length         55.1515 bohr
 
 
     Adding external electric field

     Computed dipole along edir(3) : 
        Dipole               -0.3072 Ry au,         -0.7808 Debye
        Dipole field         -0.0002 Ry au, 
 
        Potential amp.        0.0207 Ry
        Total length         55.1515 bohr
 

     total cpu time spent up to now is      586.9 secs

     total energy              =   -7738.31446802 Ry
     estimated scf accuracy    <       0.03191173 Ry

     total magnetization       =    88.93 Bohr mag/cell
     absolute magnetization    =    90.41 Bohr mag/cell

     iteration # 36     ecut=    50.00 Ry     beta= 0.10
     Davidson diagonalization with overlap
     c_bands:  3 eigenvalues not converged
     c_bands:  4 eigenvalues not converged
     ethr =  2.92E-06,  avg # of iterations = 20.0

     negative rho (up, down):  6.230E-04 4.478E-04
 
     Adding external electric field

     Computed dipole along edir(3) : 
        Dipole               -0.3461 Ry au,         -0.8796 Debye
        Dipole field         -0.0002 Ry au, 
 
        Potential amp.        0.0234 Ry
        Total length         55.1515 bohr
 
 
     Adding external electric field

     Computed dipole along edir(3) : 
        Dipole               -0.3461 Ry au,         -0.8796 Debye
        Dipole field         -0.0002 Ry au, 
 
        Potential amp.        0.0234 Ry
        Total length         55.1515 bohr
 

     total cpu time spent up to now is      616.5 secs

     total energy              =   -7738.31532934 Ry
     estimated scf accuracy    <       0.01824733 Ry

     total magnetization       =    88.88 Bohr mag/cell
     absolute magnetization    =    90.32 Bohr mag/cell

     iteration # 37     ecut=    50.00 Ry     beta= 0.10
     Davidson diagonalization with overlap
     c_bands:  5 eigenvalues not converged
     ethr =  1.67E-06,  avg # of iterations = 11.5

     negative rho (up, down):  5.671E-04 4.583E-04
 
     Adding external electric field

     Computed dipole along edir(3) : 
        Dipole               -0.3071 Ry au,         -0.7805 Debye
        Dipole field         -0.0002 Ry au, 
 
        Potential amp.        0.0207 Ry
        Total length         55.1515 bohr
 
 
     Adding external electric field

     Computed dipole along edir(3) : 
        Dipole               -0.3071 Ry au,         -0.7805 Debye
        Dipole field         -0.0002 Ry au, 
 
        Potential amp.        0.0207 Ry
        Total length         55.1515 bohr
 

     total cpu time spent up to now is      638.9 secs

     total energy              =   -7738.31646243 Ry
     estimated scf accuracy    <       0.00852498 Ry

     total magnetization       =    88.84 Bohr mag/cell
     absolute magnetization    =    90.34 Bohr mag/cell

     iteration # 38     ecut=    50.00 Ry     beta= 0.10
     Davidson diagonalization with overlap
     c_bands:  2 eigenvalues not converged
     ethr =  7.80E-07,  avg # of iterations = 11.0

     negative rho (up, down):  2.491E-05 2.696E-05
 
     Adding external electric field

     Computed dipole along edir(3) : 
        Dipole               -0.3722 Ry au,         -0.9462 Debye
        Dipole field         -0.0002 Ry au, 
 
        Potential amp.        0.0251 Ry
        Total length         55.1515 bohr
 
 
     Adding external electric field

     Computed dipole along edir(3) : 
        Dipole               -0.3722 Ry au,         -0.9462 Debye
        Dipole field         -0.0002 Ry au, 
 
        Potential amp.        0.0251 Ry
        Total length         55.1515 bohr
 

     total cpu time spent up to now is      658.7 secs

     total energy              =   -7738.31672437 Ry
     estimated scf accuracy    <       0.00512513 Ry

     total magnetization       =    88.73 Bohr mag/cell
     absolute magnetization    =    90.19 Bohr mag/cell

     iteration # 39     ecut=    50.00 Ry     beta= 0.10
     Davidson diagonalization with overlap
     ethr =  4.69E-07,  avg # of iterations =  2.0

     negative rho (up, down):  9.228E-06 1.306E-05
 
     Adding external electric field

     Computed dipole along edir(3) : 
        Dipole               -0.4014 Ry au,         -1.0201 Debye
        Dipole field         -0.0002 Ry au, 
 
        Potential amp.        0.0271 Ry
        Total length         55.1515 bohr
 
 
     Adding external electric field

     Computed dipole along edir(3) : 
        Dipole               -0.4014 Ry au,         -1.0201 Debye
        Dipole field         -0.0002 Ry au, 
 
        Potential amp.        0.0271 Ry
        Total length         55.1515 bohr
 

     total cpu time spent up to now is      674.2 secs

     total energy              =   -7738.31658978 Ry
     estimated scf accuracy    <       0.00395290 Ry

     total magnetization       =    88.66 Bohr mag/cell
     absolute magnetization    =    90.11 Bohr mag/cell

     iteration # 40     ecut=    50.00 Ry     beta= 0.10
     Davidson diagonalization with overlap
     ethr =  3.62E-07,  avg # of iterations =  2.0

     negative rho (up, down):  5.806E-06 9.923E-06
 
     Adding external electric field

     Computed dipole along edir(3) : 
        Dipole               -0.4105 Ry au,         -1.0435 Debye
        Dipole field         -0.0003 Ry au, 
 
        Potential amp.        0.0277 Ry
        Total length         55.1515 bohr
 
 
     Adding external electric field

     Computed dipole along edir(3) : 
        Dipole               -0.4105 Ry au,         -1.0435 Debye
        Dipole field         -0.0003 Ry au, 
 
        Potential amp.        0.0277 Ry
        Total length         55.1515 bohr
 

     total cpu time spent up to now is      688.8 secs

     total energy              =   -7738.31658919 Ry
     estimated scf accuracy    <       0.00361587 Ry

     total magnetization       =    88.60 Bohr mag/cell
     absolute magnetization    =    90.03 Bohr mag/cell

     iteration # 41     ecut=    50.00 Ry     beta= 0.10
     Davidson diagonalization with overlap
     ethr =  3.31E-07,  avg # of iterations =  1.0

     negative rho (up, down):  6.146E-06 8.252E-06
 
     Adding external electric field

     Computed dipole along edir(3) : 
        Dipole               -0.3804 Ry au,         -0.9670 Debye
        Dipole field         -0.0002 Ry au, 
 
        Potential amp.        0.0257 Ry
        Total length         55.1515 bohr
 
 
     Adding external electric field

     Computed dipole along edir(3) : 
        Dipole               -0.3804 Ry au,         -0.9670 Debye
        Dipole field         -0.0002 Ry au, 
 
        Potential amp.        0.0257 Ry
        Total length         55.1515 bohr
 

     total cpu time spent up to now is      702.2 secs

     total energy              =   -7738.31644130 Ry
     estimated scf accuracy    <       0.00330912 Ry

     total magnetization       =    88.61 Bohr mag/cell
     absolute magnetization    =    90.05 Bohr mag/cell

     iteration # 42     ecut=    50.00 Ry     beta= 0.10
     Davidson diagonalization with overlap
     ethr =  3.03E-07,  avg # of iterations =  2.0

     negative rho (up, down):  2.498E-06 2.684E-06
 
     Adding external electric field

     Computed dipole along edir(3) : 
        Dipole               -0.4090 Ry au,         -1.0396 Debye
        Dipole field         -0.0003 Ry au, 
 
        Potential amp.        0.0276 Ry
        Total length         55.1515 bohr
 
 
     Adding external electric field

     Computed dipole along edir(3) : 
        Dipole               -0.4090 Ry au,         -1.0396 Debye
        Dipole field         -0.0003 Ry au, 
 
        Potential amp.        0.0276 Ry
        Total length         55.1515 bohr
 

     total cpu time spent up to now is      717.4 secs

     total energy              =   -7738.31648689 Ry
     estimated scf accuracy    <       0.00271688 Ry

     total magnetization       =    88.61 Bohr mag/cell
     absolute magnetization    =    90.06 Bohr mag/cell

     iteration # 43     ecut=    50.00 Ry     beta= 0.10
     Davidson diagonalization with overlap
     ethr =  2.49E-07,  avg # of iterations =  1.5

     negative rho (up, down):  3.722E-05 3.468E-05
 
     Adding external electric field

     Computed dipole along edir(3) : 
        Dipole               -0.3623 Ry au,         -0.9209 Debye
        Dipole field         -0.0002 Ry au, 
 
        Potential amp.        0.0245 Ry
        Total length         55.1515 bohr
 
 
     Adding external electric field

     Computed dipole along edir(3) : 
        Dipole               -0.3623 Ry au,         -0.9209 Debye
        Dipole field         -0.0002 Ry au, 
 
        Potential amp.        0.0245 Ry
        Total length         55.1515 bohr
 

     total cpu time spent up to now is      730.8 secs

     total energy              =   -7738.31665517 Ry
     estimated scf accuracy    <       0.00188616 Ry

     total magnetization       =    88.64 Bohr mag/cell
     absolute magnetization    =    90.07 Bohr mag/cell

     iteration # 44     ecut=    50.00 Ry     beta= 0.10
     Davidson diagonalization with overlap
     ethr =  1.73E-07,  avg # of iterations =  2.0

     negative rho (up, down):  1.703E-06 1.169E-06
 
     Adding external electric field

     Computed dipole along edir(3) : 
        Dipole               -0.3956 Ry au,         -1.0055 Debye
        Dipole field         -0.0002 Ry au, 
 
        Potential amp.        0.0267 Ry
        Total length         55.1515 bohr
 
 
     Adding external electric field

     Computed dipole along edir(3) : 
        Dipole               -0.3956 Ry au,         -1.0055 Debye
        Dipole field         -0.0002 Ry au, 
 
        Potential amp.        0.0267 Ry
        Total length         55.1515 bohr
 

     total cpu time spent up to now is      746.4 secs

     total energy              =   -7738.31663451 Ry
     estimated scf accuracy    <       0.00182458 Ry

     total magnetization       =    88.65 Bohr mag/cell
     absolute magnetization    =    90.03 Bohr mag/cell

     iteration # 45     ecut=    50.00 Ry     beta= 0.10
     Davidson diagonalization with overlap
     ethr =  1.67E-07,  avg # of iterations =  2.0

     negative rho (up, down):  1.875E-06 1.076E-06
 
     Adding external electric field

     Computed dipole along edir(3) : 
        Dipole               -0.3981 Ry au,         -1.0120 Debye
        Dipole field         -0.0002 Ry au, 
 
        Potential amp.        0.0269 Ry
        Total length         55.1515 bohr
 
 
     Adding external electric field

     Computed dipole along edir(3) : 
        Dipole               -0.3981 Ry au,         -1.0120 Debye
        Dipole field         -0.0002 Ry au, 
 
        Potential amp.        0.0269 Ry
        Total length         55.1515 bohr
 

     total cpu time spent up to now is      761.4 secs

     total energy              =   -7738.31667024 Ry
     estimated scf accuracy    <       0.00118459 Ry

     total magnetization       =    88.67 Bohr mag/cell
     absolute magnetization    =    90.05 Bohr mag/cell

     iteration # 46     ecut=    50.00 Ry     beta= 0.10
     Davidson diagonalization with overlap
     ethr =  1.08E-07,  avg # of iterations =  1.0

     negative rho (up, down):  4.886E-06 1.946E-06
 
     Adding external electric field

     Computed dipole along edir(3) : 
        Dipole               -0.3880 Ry au,         -0.9863 Debye
        Dipole field         -0.0002 Ry au, 
 
        Potential amp.        0.0262 Ry
        Total length         55.1515 bohr
 
 
     Adding external electric field

     Computed dipole along edir(3) : 
        Dipole               -0.3880 Ry au,         -0.9863 Debye
        Dipole field         -0.0002 Ry au, 
 
        Potential amp.        0.0262 Ry
        Total length         55.1515 bohr
 

     total cpu time spent up to now is      774.4 secs

     total energy              =   -7738.31669477 Ry
     estimated scf accuracy    <       0.00106816 Ry

     total magnetization       =    88.67 Bohr mag/cell
     absolute magnetization    =    90.06 Bohr mag/cell

     iteration # 47     ecut=    50.00 Ry     beta= 0.10
     Davidson diagonalization with overlap
     ethr =  9.77E-08,  avg # of iterations =  2.0

     negative rho (up, down):  4.871E-06 7.724E-07
 
     Adding external electric field

     Computed dipole along edir(3) : 
        Dipole               -0.3906 Ry au,         -0.9927 Debye
        Dipole field         -0.0002 Ry au, 
 
        Potential amp.        0.0264 Ry
        Total length         55.1515 bohr
 
 
     Adding external electric field

     Computed dipole along edir(3) : 
        Dipole               -0.3906 Ry au,         -0.9927 Debye
        Dipole field         -0.0002 Ry au, 
 
        Potential amp.        0.0264 Ry
        Total length         55.1515 bohr
 

     total cpu time spent up to now is      790.2 secs

     total energy              =   -7738.31667640 Ry
     estimated scf accuracy    <       0.00089578 Ry

     total magnetization       =    88.67 Bohr mag/cell
     absolute magnetization    =    90.08 Bohr mag/cell

     iteration # 48     ecut=    50.00 Ry     beta= 0.10
     Davidson diagonalization with overlap
     ethr =  8.20E-08,  avg # of iterations =  2.0

     negative rho (up, down):  1.355E-04 6.007E-05
 
     Adding external electric field

     Computed dipole along edir(3) : 
        Dipole               -0.3648 Ry au,         -0.9273 Debye
        Dipole field         -0.0002 Ry au, 
 
        Potential amp.        0.0246 Ry
        Total length         55.1515 bohr
 
 
     Adding external electric field

     Computed dipole along edir(3) : 
        Dipole               -0.3648 Ry au,         -0.9273 Debye
        Dipole field         -0.0002 Ry au, 
 
        Potential amp.        0.0246 Ry
        Total length         55.1515 bohr
 

     total cpu time spent up to now is      805.3 secs

     total energy              =   -7738.31681067 Ry
     estimated scf accuracy    <       0.00069515 Ry

     total magnetization       =    88.67 Bohr mag/cell
     absolute magnetization    =    90.10 Bohr mag/cell

     iteration # 49     ecut=    50.00 Ry     beta= 0.10
     Davidson diagonalization with overlap
     ethr =  6.36E-08,  avg # of iterations =  2.0

     negative rho (up, down):  7.158E-04 5.002E-04
 
     Adding external electric field

     Computed dipole along edir(3) : 
        Dipole               -0.3527 Ry au,         -0.8964 Debye
        Dipole field         -0.0002 Ry au, 
 
        Potential amp.        0.0238 Ry
        Total length         55.1515 bohr
 
 
     Adding external electric field

     Computed dipole along edir(3) : 
        Dipole               -0.3527 Ry au,         -0.8964 Debye
        Dipole field         -0.0002 Ry au, 
 
        Potential amp.        0.0238 Ry
        Total length         55.1515 bohr
 

     total cpu time spent up to now is      819.8 secs

     total energy              =   -7738.31689057 Ry
     estimated scf accuracy    <       0.00043623 Ry

     total magnetization       =    88.66 Bohr mag/cell
     absolute magnetization    =    90.08 Bohr mag/cell

     iteration # 50     ecut=    50.00 Ry     beta= 0.10
     Davidson diagonalization with overlap
     ethr =  3.99E-08,  avg # of iterations =  2.0

     negative rho (up, down):  7.004E-04 4.746E-04
 
     Adding external electric field

     Computed dipole along edir(3) : 
        Dipole               -0.3488 Ry au,         -0.8866 Debye
        Dipole field         -0.0002 Ry au, 
 
        Potential amp.        0.0236 Ry
        Total length         55.1515 bohr
 
 
     Adding external electric field

     Computed dipole along edir(3) : 
        Dipole               -0.3488 Ry au,         -0.8866 Debye
        Dipole field         -0.0002 Ry au, 
 
        Potential amp.        0.0236 Ry
        Total length         55.1515 bohr
 

     total cpu time spent up to now is      835.1 secs

     total energy              =   -7738.31691207 Ry
     estimated scf accuracy    <       0.00022697 Ry

     total magnetization       =    88.66 Bohr mag/cell
     absolute magnetization    =    90.06 Bohr mag/cell

     iteration # 51     ecut=    50.00 Ry     beta= 0.10
     Davidson diagonalization with overlap
     ethr =  2.08E-08,  avg # of iterations =  1.5

     negative rho (up, down):  8.996E-04 5.500E-04
 
     Adding external electric field

     Computed dipole along edir(3) : 
        Dipole               -0.3240 Ry au,         -0.8235 Debye
        Dipole field         -0.0002 Ry au, 
 
        Potential amp.        0.0219 Ry
        Total length         55.1515 bohr
 
 
     Adding external electric field

     Computed dipole along edir(3) : 
        Dipole               -0.3240 Ry au,         -0.8235 Debye
        Dipole field         -0.0002 Ry au, 
 
        Potential amp.        0.0219 Ry
        Total length         55.1515 bohr
 

     total cpu time spent up to now is      849.0 secs

     total energy              =   -7738.31691477 Ry
     estimated scf accuracy    <       0.00017643 Ry

     total magnetization       =    88.66 Bohr mag/cell
     absolute magnetization    =    90.05 Bohr mag/cell

     iteration # 52     ecut=    50.00 Ry     beta= 0.10
     Davidson diagonalization with overlap
     ethr =  1.61E-08,  avg # of iterations =  2.0

     negative rho (up, down):  1.228E-03 8.393E-04
 
     Adding external electric field

     Computed dipole along edir(3) : 
        Dipole               -0.3113 Ry au,         -0.7914 Debye
        Dipole field         -0.0002 Ry au, 
 
        Potential amp.        0.0210 Ry
        Total length         55.1515 bohr
 
 
     Adding external electric field

     Computed dipole along edir(3) : 
        Dipole               -0.3113 Ry au,         -0.7914 Debye
        Dipole field         -0.0002 Ry au, 
 
        Potential amp.        0.0210 Ry
        Total length         55.1515 bohr
 

     total cpu time spent up to now is      864.2 secs

     total energy              =   -7738.31692517 Ry
     estimated scf accuracy    <       0.00007602 Ry

     total magnetization       =    88.65 Bohr mag/cell
     absolute magnetization    =    90.04 Bohr mag/cell

     iteration # 53     ecut=    50.00 Ry     beta= 0.10
     Davidson diagonalization with overlap
     ethr =  6.96E-09,  avg # of iterations =  1.5

     negative rho (up, down):  1.393E-03 9.825E-04
 
     Adding external electric field

     Computed dipole along edir(3) : 
        Dipole               -0.3053 Ry au,         -0.7759 Debye
        Dipole field         -0.0002 Ry au, 
 
        Potential amp.        0.0206 Ry
        Total length         55.1515 bohr
 
 
     Adding external electric field

     Computed dipole along edir(3) : 
        Dipole               -0.3053 Ry au,         -0.7759 Debye
        Dipole field         -0.0002 Ry au, 
 
        Potential amp.        0.0206 Ry
        Total length         55.1515 bohr
 

     total cpu time spent up to now is      879.3 secs

     total energy              =   -7738.31692790 Ry
     estimated scf accuracy    <       0.00006198 Ry

     total magnetization       =    88.65 Bohr mag/cell
     absolute magnetization    =    90.04 Bohr mag/cell

     iteration # 54     ecut=    50.00 Ry     beta= 0.10
     Davidson diagonalization with overlap
     ethr =  5.67E-09,  avg # of iterations =  1.0

     negative rho (up, down):  1.223E-03 8.120E-04
 
     Adding external electric field

     Computed dipole along edir(3) : 
        Dipole               -0.3062 Ry au,         -0.7782 Debye
        Dipole field         -0.0002 Ry au, 
 
        Potential amp.        0.0207 Ry
        Total length         55.1515 bohr
 
 
     Adding external electric field

     Computed dipole along edir(3) : 
        Dipole               -0.3062 Ry au,         -0.7782 Debye
        Dipole field         -0.0002 Ry au, 
 
        Potential amp.        0.0207 Ry
        Total length         55.1515 bohr
 

     total cpu time spent up to now is      892.5 secs

     total energy              =   -7738.31692716 Ry
     estimated scf accuracy    <       0.00006237 Ry

     total magnetization       =    88.66 Bohr mag/cell
     absolute magnetization    =    90.04 Bohr mag/cell

     iteration # 55     ecut=    50.00 Ry     beta= 0.10
     Davidson diagonalization with overlap
     ethr =  5.67E-09,  avg # of iterations =  1.5

     negative rho (up, down):  1.698E-03 1.314E-03
 
     Adding external electric field

     Computed dipole along edir(3) : 
        Dipole               -0.3038 Ry au,         -0.7722 Debye
        Dipole field         -0.0002 Ry au, 
 
        Potential amp.        0.0205 Ry
        Total length         55.1515 bohr
 
 
     Adding external electric field

     Computed dipole along edir(3) : 
        Dipole               -0.3038 Ry au,         -0.7722 Debye
        Dipole field         -0.0002 Ry au, 
 
        Potential amp.        0.0205 Ry
        Total length         55.1515 bohr
 

     total cpu time spent up to now is      906.5 secs

     total energy              =   -7738.31692946 Ry
     estimated scf accuracy    <       0.00006590 Ry

     total magnetization       =    88.66 Bohr mag/cell
     absolute magnetization    =    90.04 Bohr mag/cell

     iteration # 56     ecut=    50.00 Ry     beta= 0.10
     Davidson diagonalization with overlap
     ethr =  5.67E-09,  avg # of iterations =  1.5

     negative rho (up, down):  1.781E-03 1.409E-03
 
     Adding external electric field

     Computed dipole along edir(3) : 
        Dipole               -0.3038 Ry au,         -0.7723 Debye
        Dipole field         -0.0002 Ry au, 
 
        Potential amp.        0.0205 Ry
        Total length         55.1515 bohr
 
 
     Adding external electric field

     Computed dipole along edir(3) : 
        Dipole               -0.3038 Ry au,         -0.7723 Debye
        Dipole field         -0.0002 Ry au, 
 
        Potential amp.        0.0205 Ry
        Total length         55.1515 bohr
 

     total cpu time spent up to now is      921.2 secs

     total energy              =   -7738.31692958 Ry
     estimated scf accuracy    <       0.00005929 Ry

     total magnetization       =    88.66 Bohr mag/cell
     absolute magnetization    =    90.04 Bohr mag/cell

     iteration # 57     ecut=    50.00 Ry     beta= 0.10
     Davidson diagonalization with overlap
     ethr =  5.42E-09,  avg # of iterations =  1.5

     negative rho (up, down):  1.760E-03 1.385E-03
 
     Adding external electric field

     Computed dipole along edir(3) : 
        Dipole               -0.2980 Ry au,         -0.7574 Debye
        Dipole field         -0.0002 Ry au, 
 
        Potential amp.        0.0201 Ry
        Total length         55.1515 bohr
 
 
     Adding external electric field

     Computed dipole along edir(3) : 
        Dipole               -0.2980 Ry au,         -0.7574 Debye
        Dipole field         -0.0002 Ry au, 
 
        Potential amp.        0.0201 Ry
        Total length         55.1515 bohr
 

     total cpu time spent up to now is      935.0 secs

     total energy              =   -7738.31692607 Ry
     estimated scf accuracy    <       0.00005240 Ry

     total magnetization       =    88.66 Bohr mag/cell
     absolute magnetization    =    90.04 Bohr mag/cell

     iteration # 58     ecut=    50.00 Ry     beta= 0.10
     Davidson diagonalization with overlap
     ethr =  4.79E-09,  avg # of iterations =  1.5

     negative rho (up, down):  1.675E-03 1.293E-03
 
     Adding external electric field

[...]
    -5.9668  -5.9333  -5.9264  -5.9032  -5.8836  -5.8740  -5.8614  -5.8365
    -5.8226  -5.7753  -5.7470  -5.7375  -5.7248  -5.6892  -5.6636  -5.6487
    -5.6347  -5.6254  -5.5817  -5.5643  -5.5594  -5.5429  -5.5357  -5.5210
    -5.5110  -5.4839  -5.4712  -5.4395  -5.3959  -5.3602  -5.3281  -5.3119
    -5.2748  -5.2566  -5.2305  -5.1606  -5.1422  -5.1378  -5.1225  -5.0998
    -5.0621  -5.0071  -4.9602  -4.9276  -4.8946  -4.8850  -4.8555  -4.8412
    -4.8143  -4.7886  -4.7748  -4.7378  -4.7173  -4.6870  -4.6348  -4.5990
    -4.5378  -4.4683  -4.4374  -4.4186  -4.4008  -4.3900  -4.3610  -4.3484
    -4.3224  -4.2799  -4.2517  -4.2388  -4.2004  -4.1878  -4.1047  -4.1000
    -4.0835  -4.0406  -4.0327  -4.0132  -3.9523  -3.9285  -3.9156  -3.8763
    -3.8516  -3.8163  -3.8077  -3.7898  -3.7713  -3.7391  -3.7007  -3.6898
    -3.6831  -3.6653  -3.6546  -3.5830  -3.5739  -3.5723  -3.5569  -3.5415
    -3.5283  -3.5116  -3.5024  -3.4787  -3.4445  -3.4389  -3.4250  -3.4026
    -3.3799  -3.3699  -3.3658  -3.3500  -3.3331  -3.3022  -3.2826  -3.2536
    -3.2419  -3.2097  -3.1864  -3.1627  -3.1381  -3.1144  -3.0972  -3.0792
    -3.0712  -3.0597  -3.0489  -3.0287  -3.0146  -2.9989  -2.9821  -2.9322
    -2.9199  -2.9087  -2.8958  -2.8868  -2.8654  -2.8420  -2.8078  -2.7854
    -2.7815  -2.7562  -2.7485  -2.7231  -2.7180  -2.7102  -2.7039  -2.6886
    -2.6697  -2.6623  -2.6586  -2.6331  -2.6233  -2.6104  -2.6035  -2.5750
    -2.5695  -2.5680  -2.5356  -2.5222  -2.5024  -2.4773  -2.4674  -2.4551
    -2.4483  -2.4062  -2.3963  -2.3697  -2.3533  -2.3384  -2.3117  -2.2765
    -2.2698  -2.2654  -2.2208  -2.2060  -2.1842  -2.1714  -2.1490  -2.1364
    -2.1044  -2.0841  -2.0687  -2.0637  -2.0475  -2.0343  -2.0232  -2.0176
    -1.9914  -1.9465  -1.9346  -1.9147  -1.9033  -1.8850  -1.8783  -1.8614
    -1.8358  -1.8312  -1.8261  -1.8165  -1.7890  -1.7110  -1.7052  -1.6729
    -1.6674  -1.6472  -1.6285  -1.6242  -1.6112  -1.6006  -1.5848  -1.5770
    -1.5459  -1.5428  -1.4988  -1.4862  -1.4611  -1.4514  -1.4429  -1.4178
    -1.3992  -1.3885  -1.3799  -1.3582  -1.3535  -1.3281  -1.3015  -1.2930
    -1.2292  -1.2209  -1.1670  -1.1452  -1.1295  -1.1278  -1.0905  -1.0484
    -1.0311  -0.9913  -0.9251  -0.8618  -0.7256  -0.7115  -0.6288  -0.5678
    -0.5195  -0.5056  -0.3530  -0.2504   0.1831   0.2186   0.2411   0.2509
     0.3007   0.3120   0.3240   0.3331   0.3503   0.3621   0.3700   0.3734
     0.3802   0.3898   0.4025   0.4038   0.4085   0.4188   0.4233   0.4303
     0.4380   0.4432   0.4666   0.4694   0.4801   0.4861   0.4929   0.4962
     0.5016   0.5019   0.5127   0.5191   0.5261   0.5361   0.5406   0.5430
     0.5454   0.5687   0.5721   0.5770   0.6007   0.6033   0.6195   0.6225
     0.6296   0.6376   0.6465   0.6500   0.6568   0.6662   0.6679   0.6818
     0.6856   0.6890   0.7023   0.7069   0.7172   0.7181   0.7247   0.7368
     0.7463   0.7529   0.7687   0.7696   0.7819   0.7847   0.7955   0.8126
     0.8141   0.8307   0.8525   0.8590   0.8666   0.8710   0.8736   0.8813
     0.8878   0.9059   0.9126   0.9182   0.9239   0.9561   0.9686   0.9862
     0.9900   1.0390   1.0878   1.1157   1.1265   1.6909   1.7392   1.7510
     1.7790   1.8029   1.8143   1.8206   1.8258   1.8435   1.9125   1.9238
     1.9362   1.9740   1.9823   2.0097   2.0453   2.0492   2.0879   2.0946
     2.1418   2.1476   2.1779   2.1943   2.1998   2.2035   2.2132   2.2390
     2.2469   2.2785   2.2883   2.3072   2.3165   2.3289   2.3462   2.3614
     2.3754   2.3859   2.3897   2.4114   2.4204   2.4256   2.4432   2.4918
     2.5308   2.5352   2.5426   2.5516   2.5564   2.5805   2.5990   2.6163
     2.6616   2.6840   2.7076   2.7105   2.7305   2.8056   2.8062   2.8762
     2.8823   2.8892   3.7107   3.7242   3.7294   3.7866   3.7895   3.8011
     3.9091   3.9390   3.9612   3.9626   3.9855   4.0035   4.0169   4.0402
     4.0570   4.0633   4.1483   4.1508   4.1627   4.1841   4.6638   4.7230
     4.7993   4.8601   4.8877   4.9160   4.9407   4.9723   5.0456   5.1002
     5.1209   5.1511   5.4270   6.2459   6.3776   6.6178   6.6618   6.7624
     6.8132   6.8877   6.8936   6.9250   7.0258   7.0855   7.0950   7.1369
     7.2711   7.3539   7.3586   7.4388   7.4843   7.5380   7.5892   7.6315
     7.6429   7.6832   7.7402   7.7619   7.8126   7.8861   7.9005   7.9119
     8.0183   8.0321   8.0673   8.0937   8.1143   8.1809   8.1940   8.2124
     8.2655   8.2869   8.3039   8.3344   8.3824   8.4272   8.4336   8.4525
     8.4687   8.4810   8.4999   8.5290   8.5575   8.5759   8.6018   8.6251
     8.6677   8.6856   8.7267   8.7570   8.7728   8.7867   8.8346   8.8495

     the Fermi energy is     1.6635 ev

!    total energy              =   -7738.31692282 Ry
     estimated scf accuracy    <       0.00000065 Ry
     smearing contrib. (-TS)   =      -0.02223967 Ry
     internal energy E=F+TS    =   -7738.29468315 Ry

     The total energy is F=E-TS. E is the sum of the following terms:
     one-electron contribution =  -94700.36819756 Ry
     hartree contribution      =   47967.56913451 Ry
     xc contribution           =   -2218.71416104 Ry
     ewald contribution        =   41215.02570595 Ry
     Dispersion Correction     =      -1.80722019 Ry
     electric field correction =       0.00005518 Ry

     total magnetization       =    88.66 Bohr mag/cell
     absolute magnetization    =    90.04 Bohr mag/cell

     convergence has been achieved in  64 iterations

     negative rho (up, down):  1.053E-03 5.885E-04

     Forces acting on atoms (cartesian axes, Ry/au):

     atom    1 type  1   force =    -0.00018142   -0.00022073   -0.00031696
     atom    2 type  2   force =     0.00002140    0.00024650    0.00040706
     atom    3 type  1   force =     0.00043813   -0.00024091   -0.00021767
     atom    4 type  1   force =     0.00001958    0.00003904    0.00006863
     atom    5 type  1   force =    -0.00098611    0.00046508    0.00009863
     atom    6 type  1   force =     0.00022239    0.00047720   -0.00012219
     atom    7 type  3   force =    -0.00025701    0.00023955   -0.00031241
     atom    8 type  3   force =    -0.00005866    0.00035359   -0.00015219
     atom    9 type  3   force =    -0.00005446    0.00016114   -0.00024542
     atom   10 type  3   force =    -0.00035488    0.00001361    0.00019587
     atom   11 type  4   force =     0.00032980    0.00029826   -0.00029261
     atom   12 type  4   force =    -0.00018338   -0.00009570   -0.00011404
     atom   13 type  4   force =     0.00047521    0.00004033   -0.00010073
     atom   14 type  4   force =     0.00012684    0.00011894    0.00001015
     atom   15 type  4   force =     0.00041763   -0.00042696   -0.00000485
     atom   16 type  4   force =    -0.00006252   -0.00055943    0.00002273
     atom   17 type  4   force =    -0.00041279   -0.00024004   -0.00020562
     atom   18 type  4   force =    -0.00004119   -0.00015264    0.00042820
     atom   19 type  4   force =     0.00065511    0.00012029    0.00013069
     atom   20 type  4   force =     0.00012844    0.00027282    0.00043489
     atom   21 type  4   force =    -0.00002129   -0.00020667   -0.00000227
     atom   22 type  4   force =    -0.00003121    0.00000735   -0.00010012
     atom   23 type  4   force =     0.00005136    0.00036516    0.00028118
     atom   24 type  4   force =    -0.00061219    0.00053824   -0.00049203
     atom   25 type  4   force =    -0.00029213   -0.00008867    0.00039838
     atom   26 type  4   force =     0.00029140   -0.00007072    0.00001767
     atom   27 type  1   force =    -0.00589864   -0.00842793   -0.00402085
     atom   28 type  2   force =    -0.01221509    0.00015833   -0.00220136
     atom   29 type  1   force =     0.00293722   -0.00419941    0.00021119
     atom   30 type  1   force =     0.00241463    0.00382244   -0.00175300
     atom   31 type  1   force =     0.00178941   -0.00484078   -0.00049320
     atom   32 type  1   force =    -0.00091168    0.00113295    0.00178678
     atom   33 type  3   force =    -0.00705414   -0.00079469   -0.00045483
     atom   34 type  3   force =    -0.00689482    0.00229796   -0.00045355
     atom   35 type  3   force =     0.00400146   -0.00044619   -0.00491093
     atom   36 type  3   force =     0.00118197   -0.00129668    0.00292855
     atom   37 type  4   force =     0.00870973    0.00530128   -0.00768810
     atom   38 type  4   force =     0.00354457   -0.00098998    0.02031008
     atom   39 type  4   force =    -0.00139124    0.00350987    0.01013796
     atom   40 type  4   force =    -0.00160909   -0.00227040   -0.00894534
     atom   41 type  4   force =     0.00211142    0.00858543    0.00663500
     atom   42 type  4   force =    -0.00568633   -0.00311640   -0.01951691
     atom   43 type  4   force =     0.00989413    0.00662315   -0.00819420
     atom   44 type  4   force =     0.00721475   -0.00301777    0.00605558
     atom   45 type  4   force =     0.00218184    0.00585504   -0.00062117
     atom   46 type  4   force =     0.00345281    0.00122702    0.00493908
     atom   47 type  4   force =    -0.01317333    0.00021179    0.00323995
     atom   48 type  4   force =    -0.01448069    0.00259475   -0.00357477
     atom   49 type  4   force =     0.01254950    0.00289678   -0.00451081
     atom   50 type  4   force =    -0.00379870   -0.00398099   -0.00042391
     atom   51 type  4   force =    -0.00438088    0.00259264   -0.00066140
     atom   52 type  4   force =     0.01622775   -0.00322449    0.00419403
     atom   53 type  1   force =    -0.00753456   -0.00711227   -0.00849718
     atom   54 type  2   force =     0.01566651    0.01716409   -0.00951068
     atom   55 type  1   force =     0.00578647   -0.00485285   -0.00592139
     atom   56 type  1   force =    -0.02044217    0.01921899    0.02011707
     atom   57 type  1   force =     0.00445341   -0.00767291   -0.00129276
     atom   58 type  1   force =    -0.00387262   -0.00518061   -0.00078858
     atom   59 type  3   force =    -0.03902888   -0.03834557   -0.05602893
     atom   60 type  3   force =    -0.00484459   -0.00127112   -0.00116650
     atom   61 type  3   force =     0.00273200   -0.00101184   -0.01014807
     atom   62 type  3   force =     0.02909758   -0.04950182   -0.06058312
     atom   63 type  4   force =     0.00630762    0.00353293    0.02093260
     atom   64 type  4   force =     0.00453205    0.00228514    0.01463614
     atom   65 type  4   force =    -0.00067886    0.00290262    0.01280300
     atom   66 type  4   force =     0.00012967    0.00217115    0.01618571
     atom   67 type  4   force =     0.00105649   -0.00065589    0.03910693
     atom   68 type  4   force =    -0.00563971   -0.00395990   -0.01728021
     atom   69 type  4   force =     0.00778752    0.00446389   -0.00265374
     atom   70 type  4   force =     0.00176266   -0.00737426    0.03536644
     atom   71 type  4   force =    -0.00912086    0.03916006    0.00096459
     atom   72 type  4   force =     0.00223693   -0.00037881    0.00792760
     atom   73 type  4   force =    -0.03007627    0.00089139    0.00765967
     atom   74 type  4   force =    -0.01341063    0.00142920   -0.00042988
     atom   75 type  4   force =     0.01184986    0.00350910   -0.00252595
     atom   76 type  4   force =    -0.00236242   -0.00279565    0.00254047
     atom   77 type  4   force =     0.00919157    0.02575967   -0.00254331
     atom   78 type  4   force =     0.03347368   -0.00639892    0.00620512
     atom   79 type  1   force =     0.00003934   -0.00027846   -0.00022625
     atom   80 type  2   force =    -0.00002464   -0.00025101    0.00063052
     atom   81 type  1   force =    -0.00207084   -0.00151215   -0.00275617
     atom   82 type  1   force =    -0.00010239    0.00024881    0.00026538
     atom   83 type  1   force =    -0.00071262    0.00051484    0.00050763
     atom   84 type  1   force =     0.00031870    0.00017860    0.00045755
     atom   85 type  3   force =     0.00002575   -0.00008031   -0.00029169
     atom   86 type  3   force =    -0.00018778   -0.00002826   -0.00012821
     atom   87 type  3   force =    -0.00013297   -0.00018835   -0.00018752
     atom   88 type  3   force =    -0.00030578    0.00034619    0.00004639
     atom   89 type  4   force =     0.00042870    0.00030949   -0.00006569
     atom   90 type  4   force =    -0.00001609    0.00018831    0.00000550
     atom   91 type  4   force =     0.00028804    0.00037209    0.00006855
     atom   92 type  4   force =    -0.00022092    0.00061822   -0.00020713
     atom   93 type  4   force =     0.00011311   -0.00031416    0.00020970
     atom   94 type  4   force =     0.00014641   -0.00042213   -0.00008994
     atom   95 type  4   force =    -0.00017022    0.00005513   -0.00001064
     atom   96 type  4   force =     0.00021598    0.00002444   -0.00019632
     atom   97 type  4   force =     0.00055138   -0.00003491   -0.00021007
     atom   98 type  4   force =    -0.00008793   -0.00013075    0.00031096
     atom   99 type  4   force =     0.00017964    0.00011611    0.00025943
     atom  100 type  4   force =     0.00016312   -0.00050348    0.00014290
     atom  101 type  4   force =    -0.00010364    0.00019979   -0.00022409
     atom  102 type  4   force =    -0.00007459    0.00012491    0.00020069
     atom  103 type  4   force =    -0.00045353    0.00028062    0.00040019
     atom  104 type  4   force =    -0.00005782   -0.00042813    0.00016711
     atom  105 type  1   force =    -0.00647326   -0.00789954   -0.00374795
     atom  106 type  2   force =    -0.01207888    0.00018240   -0.00224831
     atom  107 type  1   force =     0.00423839   -0.00285788    0.00318092
     atom  108 type  1   force =     0.00242919    0.00390353   -0.00181726
     atom  109 type  1   force =     0.00184402   -0.00484569   -0.00048789
     atom  110 type  1   force =    -0.00122462    0.00112803    0.00164576
     atom  111 type  3   force =    -0.00709363   -0.00083416   -0.00046819
     atom  112 type  3   force =    -0.00615967    0.00299911   -0.00225097
     atom  113 type  3   force =     0.00409787   -0.00001361   -0.00390582
     atom  114 type  3   force =     0.00105320   -0.00133469    0.00299175
     atom  115 type  4   force =     0.00872784    0.00506774   -0.00764371
     atom  116 type  4   force =     0.00365914   -0.00112891    0.02067581
     atom  117 type  4   force =    -0.00097807    0.00370378    0.01017375
     atom  118 type  4   force =    -0.00153079   -0.00242358   -0.00894228
     atom  119 type  4   force =     0.00219555    0.00856846    0.00646648
     atom  120 type  4   force =    -0.00691165   -0.00295538   -0.01970829
     atom  121 type  4   force =     0.00982007    0.00731478   -0.00652009
     atom  122 type  4   force =     0.00704537   -0.00302202    0.00604164
     atom  123 type  4   force =     0.00213831    0.00590544   -0.00057163
     atom  124 type  4   force =     0.00324729    0.00083139    0.00504841
     atom  125 type  4   force =    -0.01311055    0.00023408    0.00328987
     atom  126 type  4   force =    -0.01457146    0.00250071   -0.00332430
     atom  127 type  4   force =     0.01318871    0.00299148   -0.00436999
     atom  128 type  4   force =    -0.00435594   -0.00378913   -0.00006546
     atom  129 type  4   force =    -0.00435171    0.00260944   -0.00055116
     atom  130 type  4   force =     0.01634572   -0.00324151    0.00418060
     atom  131 type  1   force =    -0.00755915   -0.00709818   -0.00848827
     atom  132 type  2   force =     0.01566300    0.01715459   -0.00951864
     atom  133 type  1   force =     0.00578654   -0.00485745   -0.00592497
     atom  134 type  1   force =    -0.02043758    0.01922267    0.02011691
     atom  135 type  1   force =     0.00444666   -0.00767061   -0.00129416
     atom  136 type  1   force =    -0.00387272   -0.00518463   -0.00078530
     atom  137 type  3   force =    -0.03902763   -0.03834377   -0.05602840
     atom  138 type  3   force =    -0.00485081   -0.00126990   -0.00117481
     atom  139 type  3   force =     0.00273517   -0.00101733   -0.01014963
     atom  140 type  3   force =     0.02909152   -0.04950147   -0.06058548
     atom  141 type  4   force =     0.00624251    0.00355506    0.02100218
     atom  142 type  4   force =     0.00445711    0.00227759    0.01465619
     atom  143 type  4   force =    -0.00060502    0.00280428    0.01284597
     atom  144 type  4   force =     0.00017505    0.00225571    0.01638610
     atom  145 type  4   force =     0.00120285   -0.00065928    0.03909962
     atom  146 type  4   force =    -0.00541284   -0.00395993   -0.01727529
     atom  147 type  4   force =     0.00778214    0.00451330   -0.00283809
     atom  148 type  4   force =     0.00165659   -0.00741322    0.03541699
     atom  149 type  4   force =    -0.00932477    0.03916372    0.00096510
     atom  150 type  4   force =     0.00203044   -0.00036989    0.00792673
     atom  151 type  4   force =    -0.02996409    0.00089213    0.00766257
     atom  152 type  4   force =    -0.01351352    0.00143711   -0.00043460
     atom  153 type  4   force =     0.01200240    0.00361795   -0.00253958
     atom  154 type  4   force =    -0.00240530   -0.00268321    0.00246196
     atom  155 type  4   force =     0.00909216    0.02578831   -0.00260169
     atom  156 type  4   force =     0.03344370   -0.00620774    0.00603808
     atom  157 type  4   force =     0.00585159   -0.00002290    0.00392892
     atom  158 type  5   force =    -0.00302191    0.00294324   -0.00192280

     Total force =     0.237135     Total SCF correction =     0.003516
 
     init_run     :      9.16s CPU     10.05s WALL (       1 calls)
     electrons    :    975.06s CPU   1026.26s WALL (       1 calls)
     forces       :      4.39s CPU      4.92s WALL (       1 calls)
     force_london :      0.12s CPU      0.12s WALL (       1 calls)

     Called by init_run:
     wfcinit      :      5.50s CPU      5.73s WALL (       1 calls)
     potinit      :      0.58s CPU      0.82s WALL (       1 calls)
     hinit0       :      1.54s CPU      1.67s WALL (       1 calls)

     Called by electrons:
     c_bands      :    767.05s CPU    794.19s WALL (      64 calls)
     sum_band     :    130.29s CPU    142.76s WALL (      64 calls)
     v_of_rho     :     18.35s CPU     19.69s WALL (      65 calls)
     newd         :     37.53s CPU     47.96s WALL (      65 calls)
     mix_rho      :     21.04s CPU     21.18s WALL (      64 calls)
     energy_londo :      0.10s CPU      0.10s WALL (       1 calls)

     Called by c_bands:
     init_us_2    :      2.32s CPU      2.42s WALL (     260 calls)
     init_us_2:cp :      2.32s CPU      2.42s WALL (     260 calls)
     regterg      :    749.64s CPU    776.44s WALL (     129 calls)

     Called by *egterg:
     rdiaghg      :    216.10s CPU    228.95s WALL (     523 calls)
     h_psi        :    307.15s CPU    313.52s WALL (     525 calls)
     s_psi        :     57.31s CPU     57.45s WALL (     525 calls)
     g_psi        :      0.43s CPU      0.43s WALL (     394 calls)

     Called by h_psi:
     h_psi:calbec :     73.32s CPU     77.90s WALL (     525 calls)
     vloc_psi     :    175.69s CPU    176.75s WALL (     525 calls)
     add_vuspsi   :     57.34s CPU     58.07s WALL (     525 calls)

     General routines
     calbec       :    108.19s CPU    114.97s WALL (     661 calls)
     fft          :     14.49s CPU     16.38s WALL (    1183 calls)
     ffts         :     12.86s CPU     12.91s WALL (    7943 calls)
     fftw         :    196.29s CPU    197.47s WALL (  218652 calls)
     interpolate  :      1.50s CPU      1.59s WALL (     130 calls)
 
     Parallel routines
 
     PWSCF        :  16m30.47s CPU  17m23.65s WALL

 
   This run was terminated on:   0:57:31  18Nov2025            

=------------------------------------------------------------------------------=
   JOB DONE.
=------------------------------------------------------------------------------=
