
     Program PWSCF v.7.2 starts on 18Nov2025 at  0: 1:35 

     This program is part of the open-source Quantum ESPRESSO suite
     for quantum simulation of materials; please cite
         "P. Giannozzi et al., J. Phys.:Condens. Matter 21 395502 (2009);
         "P. Giannozzi et al., J. Phys.:Condens. Matter 29 465901 (2017);
         "P. Giannozzi et al., J. Chem. Phys. 152 154105 (2020);
          URL http://www.quantum-espresso.org", 
     in publications or presentations arising from this work. More details at
     http://www.quantum-espresso.org/quote

     Parallel version (MPI), running on    64 processors

     MPI processes distributed on     4 nodes
     473052 MiB available memory on the printing compute node when the environment starts
 
     Reading input from PWINPUT_atm157_ym

     Current dimensions of program PWSCF are:
     Max number of different atomic species (ntypx) = 10
     Max number of k-points (npk) =  40000
     Max angular momentum in pseudopotentials (lmaxx) =  4
     Presently no symmetry can be used with electric field

     file Ni.pbe-n-rrkjus_psl.1.0.0.UPF: wavefunction(s)  3D renormalized
     file Mn.pbe-spn-rrkjus_psl.0.3.1.UPF: wavefunction(s)  3D renormalized
     file O.pbe-rrkjus.UPF: wavefunction(s)  2S renormalized
     file H.pbe-rrkjus.UPF: wavefunction(s)  1S renormalized

     gamma-point specific algorithms are used
 
     R & G space division:  proc/nbgrp/npool/nimage =      64
     Subspace diagonalization in iterative solution of the eigenvalue problem:
     one sub-group per band group will be used
     custom distributed-memory algorithm (size of sub-group:  7*  7 procs)

 
     Parallelization info
     --------------------
     sticks:   dense  smooth     PW     G-vecs:    dense   smooth      PW
     Min         207      82     20                60552    15302    1896
     Max         210      84     22                60574    15336    1950
     Sum       13325    5345   1333              3876045   980655  122653
 
     Using Slab Decomposition
 


     bravais-lattice index     =            0
     lattice parameter (alat)  =      17.4067  a.u.
     unit-cell volume          =   20529.8182 (a.u.)^3
     number of atoms/cell      =          158
     number of atomic types    =            5
     number of electrons       =      1093.00
     number of Kohn-Sham states=          656
     kinetic-energy cutoff     =      50.0000  Ry
     charge density cutoff     =     500.0000  Ry
     scf convergence threshold =      1.0E-06
     mixing beta               =       0.1000
     number of iterations used =            8  local-TF  mixing
     Exchange-correlation=  SLA  PW   PBE  PBE
                           (   1   4   3   4   0   0   0)

     celldm(1)=  17.406729  celldm(2)=   0.000000  celldm(3)=   0.000000
     celldm(4)=   0.000000  celldm(5)=   0.000000  celldm(6)=   0.000000

     crystal axes: (cart. coord. in units of alat)
               a(1) = (   1.000000   0.000000   0.000000 )  
               a(2) = (  -0.001404   1.105696   0.000000 )  
               a(3) = (   0.000000   0.000000   3.520448 )  

     reciprocal axes: (cart. coord. in units 2 pi/alat)
               b(1) = (  1.000000  0.001270  0.000000 )  
               b(2) = (  0.000000  0.904408  0.000000 )  
               b(3) = (  0.000000  0.000000  0.284055 )  


     PseudoPot. # 1 for Ni read from file:
     ~/PSEUDO/Ni.pbe-n-rrkjus_psl.1.0.0.UPF
     MD5 check sum: Not computed, couldn't open file
     Pseudo is Ultrasoft + core correction, Zval = 10.0
     Generated using "atomic" code by A. Dal Corso  v.5.1.2
     Using radial grid of 1195 points,  6 beta functions with: 
                l(1) =   0
                l(2) =   0
                l(3) =   1
                l(4) =   1
                l(5) =   2
                l(6) =   2
     Q(r) pseudized with 0 coefficients 


     PseudoPot. # 2 for Mn read from file:
     ~/PSEUDO/Mn.pbe-spn-rrkjus_psl.0.3.1.UPF
     MD5 check sum: Not computed, couldn't open file
     Pseudo is Ultrasoft + core correction, Zval = 15.0
     Generated using &quot;atomic&quot; code by A. Dal Corso  v.6.2.2
     Using radial grid of 1187 points,  6 beta functions with: 
                l(1) =   0
                l(2) =   0
                l(3) =   1
                l(4) =   1
                l(5) =   2
                l(6) =   2
     Q(r) pseudized with 0 coefficients 


     PseudoPot. # 3 for P  read from file:
     ~/PSEUDO/P.pbe-n-rrkjus_psl.1.0.0.UPF
     MD5 check sum: Not computed, couldn't open file
     Pseudo is Ultrasoft + core correction, Zval =  5.0
     Generated using "atomic" code by A. Dal Corso  v.5.1
     Using radial grid of 1147 points,  6 beta functions with: 
                l(1) =   0
                l(2) =   0
                l(3) =   1
                l(4) =   1
                l(5) =   2
                l(6) =   2
     Q(r) pseudized with 0 coefficients 


     PseudoPot. # 4 for O  read from file:
     ~/PSEUDO/O.pbe-rrkjus.UPF
     MD5 check sum: Not computed, couldn't open file
     Pseudo is Ultrasoft, Zval =  6.0
     Generated by new atomic code, or converted to UPF format
     Using radial grid of 1269 points,  4 beta functions with: 
                l(1) =   0
                l(2) =   0
                l(3) =   1
                l(4) =   1
     Q(r) pseudized with 0 coefficients 


     PseudoPot. # 5 for H  read from file:
     ~/PSEUDO/H.pbe-rrkjus.UPF
     MD5 check sum: Not computed, couldn't open file
     Pseudo is Ultrasoft, Zval =  1.0
     Generated by new atomic code, or converted to UPF format
     Using radial grid of 1061 points,  2 beta functions with: 
                l(1) =   0
                l(2) =   0
     Q(r) pseudized with 0 coefficients 


     atomic species   valence    mass     pseudopotential
     Ni               10.00    58.69300     Ni( 1.00)
     Mn               15.00    54.93800     Mn( 1.00)
     P                 5.00    30.97300     P ( 1.00)
     O                 6.00    15.99900     O ( 1.00)
     H                 1.00     1.00790     H ( 1.00)

     Starting magnetic structure 
     atomic species   magnetization
     Ni              1.000
     Mn              1.000
     P               1.000
     O               1.000
     H               0.000

     No symmetry found



   Cartesian axes

     site n.     atom                  positions (alat units)
         1        Ni     tau(   1) = (   0.2516924   0.8633449   1.7463431  )
         2        Mn     tau(   2) = (   0.4858702   0.7924072   1.4296398  )
         3        Ni     tau(   3) = (  -0.0004960   0.3052069   1.7433305  )
         4        Ni     tau(   4) = (   0.2564981   0.2439079   1.4294353  )
         5        Ni     tau(   5) = (   0.4974217   1.1099092   1.5983921  )
         6        Ni     tau(   6) = (   0.2522981   0.5514414   1.6004118  )
         7        P      tau(   7) = (   0.2082091   1.0035384   1.4306784  )
         8        P      tau(   8) = (   0.4616835   0.6681301   1.7674811  )
         9        P      tau(   9) = (   0.2867076   0.1153356   1.7548632  )
        10        P      tau(  10) = (   0.0394718   0.4432333   1.4316675  )
        11        O      tau(  11) = (   0.1330537   0.9306336   1.5703788  )
        12        O      tau(  12) = (   0.3824580   0.7326833   1.6196685  )
        13        O      tau(  13) = (   0.3632794   0.1756131   1.6084910  )
        14        O      tau(  14) = (   0.1181909   0.3720715   1.5705068  )
        15        O      tau(  15) = (   0.1497429   0.9117647   1.3026676  )
        16        O      tau(  16) = (   0.4024605   0.7699543   1.8833170  )
        17        O      tau(  17) = (   0.3436717   0.2148734   1.8743526  )
        18        O      tau(  18) = (   0.0995925   0.3561393   1.3016093  )
        19        O      tau(  19) = (   0.0985164   0.6018581   1.4374099  )
        20        O      tau(  20) = (   0.3415582   1.0599765   1.7584409  )
        21        O      tau(  21) = (   0.3722969   0.4384776   1.4449122  )
        22        O      tau(  22) = (   0.1186468   0.1181077   1.7426368  )
        23        O      tau(  23) = (   0.1302304   0.6725321   1.7481513  )
        24        O      tau(  24) = (   0.4019428   0.5092918   1.7599288  )
        25        O      tau(  25) = (   0.1467744   0.0543371   1.4323260  )
        26        O      tau(  26) = (   0.3746526   0.9957152   1.4432161  )
        27        Ni     tau(  27) = (   0.2413539   0.8509941   1.1121345  )
        28        Mn     tau(  28) = (   0.4917018   0.7787406   0.7768134  )
        29        Ni     tau(  29) = (   0.0044877   0.2932623   1.1138982  )
        30        Ni     tau(  30) = (   0.2563139   0.2275682   0.7805625  )
        31        Ni     tau(  31) = (   0.4969120   1.0949007   0.9459116  )
        32        Ni     tau(  32) = (   0.2488318   0.5341111   0.9469721  )
        33        P      tau(  33) = (   0.2076029   0.9882917   0.7835381  )
        34        P      tau(  34) = (   0.4577012   0.6460068   1.1076436  )
        35        P      tau(  35) = (   0.2881931   0.0932770   1.1104179  )
        36        P      tau(  36) = (   0.0392916   0.4238898   0.7837243  )
        37        O      tau(  37) = (   0.1306755   0.9148866   0.9233554  )
        38        O      tau(  38) = (   0.3789780   0.7172835   0.9680652  )
        39        O      tau(  39) = (   0.3654852   0.1662865   0.9702638  )
        40        O      tau(  40) = (   0.1163776   0.3546954   0.9254186  )
        41        O      tau(  41) = (   0.1502901   0.8969129   0.6541592  )
        42        O      tau(  42) = (   0.3974525   0.7354243   1.2370031  )
        43        O      tau(  43) = (   0.3483097   0.1789497   1.2412670  )
        44        O      tau(  44) = (   0.0974932   0.3376387   0.6529083  )
        45        O      tau(  45) = (   0.0984699   0.5818903   0.7881021  )
        46        O      tau(  46) = (   0.3459978   1.0405493   1.1018526  )
        47        O      tau(  47) = (   0.3731719   0.4204123   0.7945555  )
        48        O      tau(  48) = (   0.1223503   0.0989699   1.1000566  )
        49        O      tau(  49) = (   0.1235438   0.6536772   1.0980598  )
        50        O      tau(  50) = (   0.4004339   0.4872435   1.1047245  )
        51        O      tau(  51) = (   0.1476543   0.0398268   0.7872561  )
        52        O      tau(  52) = (   0.3728637   0.9843360   0.7931368  )
        53        Ni     tau(  53) = (   0.2406075   0.8410745   0.4603118  )
        54        Mn     tau(  54) = (   0.4909555   0.7688210   0.1249907  )
        55        Ni     tau(  55) = (   0.0037414   0.2833427   0.4620755  )
        56        Ni     tau(  56) = (   0.2555676   0.2176485   0.1287398  )
        57        Ni     tau(  57) = (   0.4961657   1.0849810   0.2940889  )
        58        Ni     tau(  58) = (   0.2480854   0.5241915   0.2951494  )
        59        P      tau(  59) = (   0.2068565   0.9783721   0.1317154  )
        60        P      tau(  60) = (   0.4569549   0.6360871   0.4558210  )
        61        P      tau(  61) = (   0.2874467   0.0833574   0.4585952  )
        62        P      tau(  62) = (   0.0385452   0.4139702   0.1319017  )
        63        O      tau(  63) = (   0.1299291   0.9049669   0.2715327  )
        64        O      tau(  64) = (   0.3782317   0.7073639   0.3162425  )
        65        O      tau(  65) = (   0.3647389   0.1563669   0.3184411  )
        66        O      tau(  66) = (   0.1156313   0.3447757   0.2735959  )
        67        O      tau(  67) = (   0.1495437   0.8869933   0.0023366  )
        68        O      tau(  68) = (   0.3967062   0.7255047   0.5851804  )
        69        O      tau(  69) = (   0.3475634   0.1690300   0.5894443  )
        70        O      tau(  70) = (   0.0967469   0.3277190   0.0010856  )
        71        O      tau(  71) = (   0.0977236   0.5719706   0.1362794  )
        72        O      tau(  72) = (   0.3452514   1.0306297   0.4500300  )
        73        O      tau(  73) = (   0.3724256   0.4104926   0.1427328  )
        74        O      tau(  74) = (   0.1216040   0.0890503   0.4482339  )
        75        O      tau(  75) = (   0.1227974   0.6437575   0.4462371  )
        76        O      tau(  76) = (   0.3996875   0.4773239   0.4529018  )
        77        O      tau(  77) = (   0.1469079   0.0299071   0.1354334  )
        78        O      tau(  78) = (   0.3721173   0.9744163   0.1413141  )
        79        Ni     tau(  79) = (   0.7511442   0.8590986   1.7465183  )
        80        Mn     tau(  80) = (   0.9851786   0.7929476   1.4293410  )
        81        Ni     tau(  81) = (   0.5099060   0.3149023   1.7767454  )
        82        Ni     tau(  82) = (   0.7562539   0.2440975   1.4309243  )
        83        Ni     tau(  83) = (   0.9966662   1.1069876   1.5954472  )
        84        Ni     tau(  84) = (   0.7501035   0.5484652   1.6044081  )
        85        P      tau(  85) = (   0.7074250   1.0033585   1.4315958  )
        86        P      tau(  86) = (   0.9633441   0.6641721   1.7673712  )
        87        P      tau(  87) = (   0.7881158   0.1083139   1.7616461  )
        88        P      tau(  88) = (   0.5391541   0.4408841   1.4350599  )
        89        O      tau(  89) = (   0.6330814   0.9308437   1.5713498  )
        90        O      tau(  90) = (   0.8832988   0.7267971   1.6201843  )
        91        O      tau(  91) = (   0.8626660   0.1747425   1.6135060  )
        92        O      tau(  92) = (   0.6161594   0.3680366   1.5731814  )
        93        O      tau(  93) = (   0.6491944   0.9122217   1.3030297  )
        94        O      tau(  94) = (   0.9010897   0.7628351   1.8841046  )
        95        O      tau(  95) = (   0.8533634   0.2040969   1.8804377  )
        96        O      tau(  96) = (   0.5988697   0.3546669   1.3037880  )
        97        O      tau(  97) = (   0.5982753   0.5999241   1.4409412  )
        98        O      tau(  98) = (   0.8444194   1.0540898   1.7576604  )
        99        O      tau(  99) = (   0.8730497   0.4376093   1.4459304  )
       100        O      tau( 100) = (   0.6208336   0.1136689   1.7512496  )
       101        O      tau( 101) = (   0.6284804   0.6736478   1.7466144  )
       102        O      tau( 102) = (   0.9101301   0.5023464   1.7626648  )
       103        O      tau( 103) = (   0.6477665   0.0546849   1.4347078  )
       104        O      tau( 104) = (   0.8741629   0.9946264   1.4428581  )
       105        Ni     tau( 105) = (   0.7413539   0.8509941   1.1121345  )
       106        Mn     tau( 106) = (   0.9917018   0.7787406   0.7768134  )
       107        Ni     tau( 107) = (   0.5044877   0.2932623   1.1138982  )
       108        Ni     tau( 108) = (   0.7563139   0.2275682   0.7805625  )
       109        Ni     tau( 109) = (   0.9969120   1.0949007   0.9459116  )
       110        Ni     tau( 110) = (   0.7488318   0.5341111   0.9469721  )
       111        P      tau( 111) = (   0.7076029   0.9882917   0.7835381  )
       112        P      tau( 112) = (   0.9577012   0.6460068   1.1076436  )
       113        P      tau( 113) = (   0.7881931   0.0932770   1.1104179  )
       114        P      tau( 114) = (   0.5392916   0.4238898   0.7837243  )
       115        O      tau( 115) = (   0.6306755   0.9148866   0.9233554  )
       116        O      tau( 116) = (   0.8789780   0.7172835   0.9680652  )
       117        O      tau( 117) = (   0.8654852   0.1662865   0.9702638  )
       118        O      tau( 118) = (   0.6163776   0.3546954   0.9254186  )
       119        O      tau( 119) = (   0.6502901   0.8969129   0.6541592  )
       120        O      tau( 120) = (   0.8974525   0.7354243   1.2370031  )
       121        O      tau( 121) = (   0.8483097   0.1789497   1.2412670  )
       122        O      tau( 122) = (   0.5974932   0.3376387   0.6529083  )
       123        O      tau( 123) = (   0.5984699   0.5818903   0.7881021  )
       124        O      tau( 124) = (   0.8459978   1.0405493   1.1018526  )
       125        O      tau( 125) = (   0.8731719   0.4204123   0.7945555  )
       126        O      tau( 126) = (   0.6223503   0.0989699   1.1000566  )
       127        O      tau( 127) = (   0.6235438   0.6536772   1.0980598  )
       128        O      tau( 128) = (   0.9004339   0.4872435   1.1047245  )
       129        O      tau( 129) = (   0.6476543   0.0398268   0.7872561  )
       130        O      tau( 130) = (   0.8728637   0.9843360   0.7931368  )
       131        Ni     tau( 131) = (   0.7406075   0.8410745   0.4603118  )
       132        Mn     tau( 132) = (   0.9909555   0.7688210   0.1249907  )
       133        Ni     tau( 133) = (   0.5037414   0.2833427   0.4620755  )
       134        Ni     tau( 134) = (   0.7555676   0.2176485   0.1287398  )
       135        Ni     tau( 135) = (   0.9961657   1.0849810   0.2940889  )
       136        Ni     tau( 136) = (   0.7480854   0.5241915   0.2951494  )
       137        P      tau( 137) = (   0.7068565   0.9783721   0.1317154  )
       138        P      tau( 138) = (   0.9569549   0.6360871   0.4558210  )
       139        P      tau( 139) = (   0.7874467   0.0833574   0.4585952  )
       140        P      tau( 140) = (   0.5385452   0.4139702   0.1319017  )
       141        O      tau( 141) = (   0.6299291   0.9049669   0.2715327  )
       142        O      tau( 142) = (   0.8782317   0.7073639   0.3162425  )
       143        O      tau( 143) = (   0.8647389   0.1563669   0.3184411  )
       144        O      tau( 144) = (   0.6156313   0.3447757   0.2735959  )
       145        O      tau( 145) = (   0.6495437   0.8869933   0.0023366  )
       146        O      tau( 146) = (   0.8967062   0.7255047   0.5851804  )
       147        O      tau( 147) = (   0.8475634   0.1690300   0.5894443  )
       148        O      tau( 148) = (   0.5967469   0.3277190   0.0010856  )
       149        O      tau( 149) = (   0.5977236   0.5719706   0.1362794  )
       150        O      tau( 150) = (   0.8452514   1.0306297   0.4500300  )
       151        O      tau( 151) = (   0.8724256   0.4104926   0.1427328  )
       152        O      tau( 152) = (   0.6216040   0.0890503   0.4482339  )
       153        O      tau( 153) = (   0.6227974   0.6437575   0.4462371  )
       154        O      tau( 154) = (   0.8996875   0.4773239   0.4529018  )
       155        O      tau( 155) = (   0.6469079   0.0299071   0.1354334  )
       156        O      tau( 156) = (   0.8721173   0.9744163   0.1413141  )
       157        O      tau( 157) = (   0.6257083   0.3960215   1.9134588  )
       158        H      tau( 158) = (   0.7088529   0.3338928   1.9393986  )

     -------------------------------------------------
     Parameters for Dispersion (Grimme-D2) Correction:
     -------------------------------------------------
       atom      VdW radius       C_6     

        Ni         2.952        374.666
        Mn         2.952        374.666
        P          3.222        271.980
        O          2.536         24.284
        H          1.892          4.857

     number of k points=     1  Gaussian smearing, width (Ry)=  0.0100
                       cart. coord. in units 2pi/alat
        k(    1) = (   0.0000000   0.0000000   0.0000000), wk =   1.0000000

     Dense  grid:  1938023 G-vectors     FFT dimensions: ( 125, 144, 450)

     Smooth grid:   490328 G-vectors     FFT dimensions: (  80,  90, 288)

     Estimated max dynamical RAM per process >     326.29 MB

     Estimated total dynamical RAM >      20.39 GB

     Check: negative core charge=   -0.000001
     Generating pointlists ...
     new r_m :   0.0811 (alat units)  1.4122 (a.u.) for type    1
     new r_m :   0.0904 (alat units)  1.5731 (a.u.) for type    2
     new r_m :   0.0681 (alat units)  1.1850 (a.u.) for type    3
     new r_m :   0.0441 (alat units)  0.7682 (a.u.) for type    4
     new r_m :   0.0441 (alat units)  0.7682 (a.u.) for type    5

     Initial potential from superposition of free atoms

     starting charge    1092.8893, renormalised to    1093.0000

     negative rho (up, down):  1.395E-03 4.535E-04
 
     Adding external electric field

     Computed dipole along edir(3) : 
        Dipole                1.6577 Ry au,          4.2136 Debye
        Dipole field          0.0010 Ry au, 
 
        Potential amp.       -0.1119 Ry
        Total length         55.1515 bohr
 
 
     Adding external electric field

     Computed dipole along edir(3) : 
        Dipole                1.6577 Ry au,          4.2136 Debye
        Dipole field          0.0010 Ry au, 
 
        Potential amp.       -0.1119 Ry
        Total length         55.1515 bohr
 
     Starting wfcs are  815 randomized atomic wfcs

     total cpu time spent up to now is       12.2 secs

     Self-consistent Calculation

     iteration #  1     ecut=    50.00 Ry     beta= 0.10
     Davidson diagonalization with overlap
     ethr =  1.00E-02,  avg # of iterations =  6.0

     negative rho (up, down):  4.003E-01 5.463E-06
 
     Adding external electric field

     Computed dipole along edir(3) : 
        Dipole               -3.3809 Ry au,         -8.5933 Debye
        Dipole field         -0.0021 Ry au, 
 
        Potential amp.        0.2283 Ry
        Total length         55.1515 bohr
 
 
     Adding external electric field

     Computed dipole along edir(3) : 
        Dipole               -3.3809 Ry au,         -8.5933 Debye
        Dipole field         -0.0021 Ry au, 
 
        Potential amp.        0.2283 Ry
        Total length         55.1515 bohr
 

     total cpu time spent up to now is       44.2 secs

     total energy              =   -7520.24952222 Ry
     estimated scf accuracy    <     801.89568876 Ry

     total magnetization       =   219.00 Bohr mag/cell
     absolute magnetization    =   307.55 Bohr mag/cell

     iteration #  2     ecut=    50.00 Ry     beta= 0.10
     Davidson diagonalization with overlap
     ethr =  1.00E-02,  avg # of iterations =  2.0

     negative rho (up, down):  3.692E-01 4.740E-06
 
     Adding external electric field

     Computed dipole along edir(3) : 
        Dipole               -2.4587 Ry au,         -6.2493 Debye
        Dipole field         -0.0015 Ry au, 
 
        Potential amp.        0.1660 Ry
        Total length         55.1515 bohr
 
 
     Adding external electric field

     Computed dipole along edir(3) : 
        Dipole               -2.4587 Ry au,         -6.2493 Debye
        Dipole field         -0.0015 Ry au, 
 
        Potential amp.        0.1660 Ry
        Total length         55.1515 bohr
 

     total cpu time spent up to now is       62.1 secs

     total energy              =   -7602.61432763 Ry
     estimated scf accuracy    <     171.76458949 Ry

     total magnetization       =   154.72 Bohr mag/cell
     absolute magnetization    =   204.35 Bohr mag/cell

     iteration #  3     ecut=    50.00 Ry     beta= 0.10
     Davidson diagonalization with overlap
     ethr =  1.00E-02,  avg # of iterations =  1.5

     negative rho (up, down):  3.243E-01 4.859E-06
 
     Adding external electric field

     Computed dipole along edir(3) : 
        Dipole               -2.0350 Ry au,         -5.1726 Debye
        Dipole field         -0.0012 Ry au, 
 
        Potential amp.        0.1374 Ry
        Total length         55.1515 bohr
 
 
     Adding external electric field

     Computed dipole along edir(3) : 
        Dipole               -2.0350 Ry au,         -5.1726 Debye
        Dipole field         -0.0012 Ry au, 
 
        Potential amp.        0.1374 Ry
        Total length         55.1515 bohr
 

     total cpu time spent up to now is       76.3 secs

     total energy              =   -7634.78172120 Ry
     estimated scf accuracy    <     102.84603147 Ry

     total magnetization       =   131.85 Bohr mag/cell
     absolute magnetization    =   183.02 Bohr mag/cell

     iteration #  4     ecut=    50.00 Ry     beta= 0.10
     Davidson diagonalization with overlap
     ethr =  9.41E-03,  avg # of iterations =  1.0

     negative rho (up, down):  2.500E-01 1.490E-06
 
     Adding external electric field

     Computed dipole along edir(3) : 
        Dipole               -1.9262 Ry au,         -4.8959 Debye
        Dipole field         -0.0012 Ry au, 
 
        Potential amp.        0.1300 Ry
        Total length         55.1515 bohr
 
 
     Adding external electric field

     Computed dipole along edir(3) : 
        Dipole               -1.9262 Ry au,         -4.8959 Debye
        Dipole field         -0.0012 Ry au, 
 
        Potential amp.        0.1300 Ry
        Total length         55.1515 bohr
 

     total cpu time spent up to now is       90.3 secs

     total energy              =   -7667.52329917 Ry
     estimated scf accuracy    <      80.10405539 Ry

     total magnetization       =   115.41 Bohr mag/cell
     absolute magnetization    =   168.28 Bohr mag/cell

     iteration #  5     ecut=    50.00 Ry     beta= 0.10
     Davidson diagonalization with overlap
     ethr =  7.33E-03,  avg # of iterations =  1.0

     negative rho (up, down):  1.318E-02 1.411E-07
 
     Adding external electric field

     Computed dipole along edir(3) : 
        Dipole               -1.3953 Ry au,         -3.5465 Debye
        Dipole field         -0.0009 Ry au, 
 
        Potential amp.        0.0942 Ry
        Total length         55.1515 bohr
 
 
     Adding external electric field

     Computed dipole along edir(3) : 
        Dipole               -1.3953 Ry au,         -3.5465 Debye
        Dipole field         -0.0009 Ry au, 
 
        Potential amp.        0.0942 Ry
        Total length         55.1515 bohr
 

     total cpu time spent up to now is      104.5 secs

     total energy              =   -7727.18293317 Ry
     estimated scf accuracy    <      62.61392132 Ry

     total magnetization       =    97.01 Bohr mag/cell
     absolute magnetization    =   150.65 Bohr mag/cell

     iteration #  6     ecut=    50.00 Ry     beta= 0.10
     Davidson diagonalization with overlap
     ethr =  5.73E-03,  avg # of iterations =  1.5

     negative rho (up, down):  2.129E-04 4.638E-04
 
     Adding external electric field

     Computed dipole along edir(3) : 
        Dipole               -1.0572 Ry au,         -2.6870 Debye
        Dipole field         -0.0006 Ry au, 
 
        Potential amp.        0.0714 Ry
        Total length         55.1515 bohr
 
 
     Adding external electric field

     Computed dipole along edir(3) : 
        Dipole               -1.0572 Ry au,         -2.6870 Debye
        Dipole field         -0.0006 Ry au, 
 
        Potential amp.        0.0714 Ry
        Total length         55.1515 bohr
 

     total cpu time spent up to now is      119.4 secs

     total energy              =   -7736.30623805 Ry
     estimated scf accuracy    <       9.76972096 Ry

     total magnetization       =    90.97 Bohr mag/cell
     absolute magnetization    =   121.16 Bohr mag/cell

     iteration #  7     ecut=    50.00 Ry     beta= 0.10
     Davidson diagonalization with overlap
     ethr =  8.94E-04,  avg # of iterations =  5.5

     negative rho (up, down):  2.078E-04 4.622E-04
 
     Adding external electric field

     Computed dipole along edir(3) : 
        Dipole               -1.0557 Ry au,         -2.6833 Debye
        Dipole field         -0.0006 Ry au, 
 
        Potential amp.        0.0713 Ry
        Total length         55.1515 bohr
 
 
     Adding external electric field

     Computed dipole along edir(3) : 
        Dipole               -1.0557 Ry au,         -2.6833 Debye
        Dipole field         -0.0006 Ry au, 
 
        Potential amp.        0.0713 Ry
        Total length         55.1515 bohr
 

     total cpu time spent up to now is      143.6 secs

     total energy              =   -7738.36785313 Ry
     estimated scf accuracy    <      21.12650244 Ry

     total magnetization       =    69.88 Bohr mag/cell
     absolute magnetization    =    86.88 Bohr mag/cell

     iteration #  8     ecut=    50.00 Ry     beta= 0.10
     Davidson diagonalization with overlap
     ethr =  8.94E-04,  avg # of iterations =  1.0

     negative rho (up, down):  2.065E-04 4.520E-04
 
     Adding external electric field

     Computed dipole along edir(3) : 
        Dipole               -1.0575 Ry au,         -2.6879 Debye
        Dipole field         -0.0006 Ry au, 
 
        Potential amp.        0.0714 Ry
        Total length         55.1515 bohr
 
 
     Adding external electric field

     Computed dipole along edir(3) : 
        Dipole               -1.0575 Ry au,         -2.6879 Debye
        Dipole field         -0.0006 Ry au, 
 
        Potential amp.        0.0714 Ry
        Total length         55.1515 bohr
 

     total cpu time spent up to now is      158.1 secs

     total energy              =   -7738.39204696 Ry
     estimated scf accuracy    <      20.53060658 Ry

     total magnetization       =    70.11 Bohr mag/cell
     absolute magnetization    =    86.69 Bohr mag/cell

     iteration #  9     ecut=    50.00 Ry     beta= 0.10
     Davidson diagonalization with overlap
     ethr =  8.94E-04,  avg # of iterations =  1.0

     negative rho (up, down):  2.116E-04 4.454E-04
 
     Adding external electric field

     Computed dipole along edir(3) : 
        Dipole               -1.0466 Ry au,         -2.6602 Debye
        Dipole field         -0.0006 Ry au, 
 
        Potential amp.        0.0707 Ry
        Total length         55.1515 bohr
 
 
     Adding external electric field

     Computed dipole along edir(3) : 
        Dipole               -1.0466 Ry au,         -2.6602 Debye
        Dipole field         -0.0006 Ry au, 
 
        Potential amp.        0.0707 Ry
        Total length         55.1515 bohr
 

     total cpu time spent up to now is      171.8 secs

     total energy              =   -7738.39761433 Ry
     estimated scf accuracy    <      20.28008146 Ry

     total magnetization       =    70.23 Bohr mag/cell
     absolute magnetization    =    86.54 Bohr mag/cell

     iteration # 10     ecut=    50.00 Ry     beta= 0.10
     Davidson diagonalization with overlap
     ethr =  8.94E-04,  avg # of iterations =  1.0

     negative rho (up, down):  2.731E-04 6.326E-04
 
     Adding external electric field

     Computed dipole along edir(3) : 
        Dipole               -1.1388 Ry au,         -2.8945 Debye
        Dipole field         -0.0007 Ry au, 
 
        Potential amp.        0.0769 Ry
        Total length         55.1515 bohr
 
 
     Adding external electric field

     Computed dipole along edir(3) : 
        Dipole               -1.1388 Ry au,         -2.8945 Debye
        Dipole field         -0.0007 Ry au, 
 
        Potential amp.        0.0769 Ry
        Total length         55.1515 bohr
 

     total cpu time spent up to now is      184.6 secs

     total energy              =   -7738.31575923 Ry
     estimated scf accuracy    <      20.11209923 Ry

     total magnetization       =    70.35 Bohr mag/cell
     absolute magnetization    =    86.53 Bohr mag/cell

     iteration # 11     ecut=    50.00 Ry     beta= 0.10
     Davidson diagonalization with overlap
     ethr =  8.94E-04,  avg # of iterations =  1.0

     negative rho (up, down):  1.735E-03 2.896E-03
 
     Adding external electric field

     Computed dipole along edir(3) : 
        Dipole               -1.3611 Ry au,         -3.4596 Debye
        Dipole field         -0.0008 Ry au, 
 
        Potential amp.        0.0919 Ry
        Total length         55.1515 bohr
 
 
     Adding external electric field

     Computed dipole along edir(3) : 
        Dipole               -1.3611 Ry au,         -3.4596 Debye
        Dipole field         -0.0008 Ry au, 
 
        Potential amp.        0.0919 Ry
        Total length         55.1515 bohr
 

     total cpu time spent up to now is      197.0 secs

     total energy              =   -7737.96770077 Ry
     estimated scf accuracy    <      17.47285754 Ry

     total magnetization       =    70.83 Bohr mag/cell
     absolute magnetization    =    85.56 Bohr mag/cell

     iteration # 12     ecut=    50.00 Ry     beta= 0.10
     Davidson diagonalization with overlap
     ethr =  8.94E-04,  avg # of iterations =  1.5

     negative rho (up, down):  3.777E-03 5.986E-03
 
     Adding external electric field

     Computed dipole along edir(3) : 
        Dipole               -1.4343 Ry au,         -3.6455 Debye
        Dipole field         -0.0009 Ry au, 
 
        Potential amp.        0.0968 Ry
        Total length         55.1515 bohr
 
 
     Adding external electric field

     Computed dipole along edir(3) : 
        Dipole               -1.4343 Ry au,         -3.6455 Debye
        Dipole field         -0.0009 Ry au, 
 
        Potential amp.        0.0968 Ry
        Total length         55.1515 bohr
 

     total cpu time spent up to now is      210.8 secs

     total energy              =   -7738.23919346 Ry
     estimated scf accuracy    <       8.72677783 Ry

     total magnetization       =    80.43 Bohr mag/cell
     absolute magnetization    =    90.58 Bohr mag/cell

     iteration # 13     ecut=    50.00 Ry     beta= 0.10
     Davidson diagonalization with overlap
     ethr =  7.98E-04,  avg # of iterations =  1.0

     negative rho (up, down):  4.423E-03 7.633E-03
 
     Adding external electric field

     Computed dipole along edir(3) : 
        Dipole               -1.4445 Ry au,         -3.6715 Debye
        Dipole field         -0.0009 Ry au, 
 
        Potential amp.        0.0975 Ry
        Total length         55.1515 bohr
 
 
     Adding external electric field

     Computed dipole along edir(3) : 
        Dipole               -1.4445 Ry au,         -3.6715 Debye
        Dipole field         -0.0009 Ry au, 
 
        Potential amp.        0.0975 Ry
        Total length         55.1515 bohr
 

     total cpu time spent up to now is      223.7 secs

     total energy              =   -7738.25089553 Ry
     estimated scf accuracy    <       7.60009026 Ry

     total magnetization       =    82.59 Bohr mag/cell
     absolute magnetization    =    91.34 Bohr mag/cell

     iteration # 14     ecut=    50.00 Ry     beta= 0.10
     Davidson diagonalization with overlap
     ethr =  6.95E-04,  avg # of iterations =  1.5

     negative rho (up, down):  1.302E-02 1.427E-02
 
     Adding external electric field

     Computed dipole along edir(3) : 
        Dipole               -1.5697 Ry au,         -3.9898 Debye
        Dipole field         -0.0010 Ry au, 
 
        Potential amp.        0.1060 Ry
        Total length         55.1515 bohr
 
 
     Adding external electric field

     Computed dipole along edir(3) : 
        Dipole               -1.5697 Ry au,         -3.9898 Debye
        Dipole field         -0.0010 Ry au, 
 
        Potential amp.        0.1060 Ry
        Total length         55.1515 bohr
 

     total cpu time spent up to now is      238.0 secs

     total energy              =   -7738.43092851 Ry
     estimated scf accuracy    <       6.95778511 Ry

     total magnetization       =    82.93 Bohr mag/cell
     absolute magnetization    =    90.60 Bohr mag/cell

     iteration # 15     ecut=    50.00 Ry     beta= 0.10
     Davidson diagonalization with overlap
     ethr =  6.37E-04,  avg # of iterations =  1.0

     negative rho (up, down):  1.640E-02 2.080E-02
 
     Adding external electric field

     Computed dipole along edir(3) : 
        Dipole               -1.6134 Ry au,         -4.1009 Debye
        Dipole field         -0.0010 Ry au, 
 
        Potential amp.        0.1089 Ry
        Total length         55.1515 bohr
 
 
     Adding external electric field

     Computed dipole along edir(3) : 
        Dipole               -1.6134 Ry au,         -4.1009 Debye
        Dipole field         -0.0010 Ry au, 
 
        Potential amp.        0.1089 Ry
        Total length         55.1515 bohr
 

     total cpu time spent up to now is      251.3 secs

     total energy              =   -7738.55596384 Ry
     estimated scf accuracy    <       7.03289607 Ry

     total magnetization       =    83.91 Bohr mag/cell
     absolute magnetization    =    89.85 Bohr mag/cell

     iteration # 16     ecut=    50.00 Ry     beta= 0.10
     Davidson diagonalization with overlap
     ethr =  6.37E-04,  avg # of iterations =  1.0

     negative rho (up, down):  1.554E-02 1.969E-02
 
     Adding external electric field

     Computed dipole along edir(3) : 
        Dipole               -1.5985 Ry au,         -4.0630 Debye
        Dipole field         -0.0010 Ry au, 
 
        Potential amp.        0.1079 Ry
        Total length         55.1515 bohr
 
 
     Adding external electric field

     Computed dipole along edir(3) : 
        Dipole               -1.5985 Ry au,         -4.0630 Debye
        Dipole field         -0.0010 Ry au, 
 
        Potential amp.        0.1079 Ry
        Total length         55.1515 bohr
 

     total cpu time spent up to now is      263.7 secs

     total energy              =   -7738.55978519 Ry
     estimated scf accuracy    <      11.90338307 Ry

     total magnetization       =    83.04 Bohr mag/cell
     absolute magnetization    =    88.17 Bohr mag/cell

     iteration # 17     ecut=    50.00 Ry     beta= 0.10
     Davidson diagonalization with overlap
     ethr =  6.37E-04,  avg # of iterations =  1.0

     negative rho (up, down):  9.808E-03 1.260E-02
 
     Adding external electric field

     Computed dipole along edir(3) : 
        Dipole               -1.5701 Ry au,         -3.9908 Debye
        Dipole field         -0.0010 Ry au, 
 
        Potential amp.        0.1060 Ry
        Total length         55.1515 bohr
 
 
     Adding external electric field

     Computed dipole along edir(3) : 
        Dipole               -1.5701 Ry au,         -3.9908 Debye
        Dipole field         -0.0010 Ry au, 
 
        Potential amp.        0.1060 Ry
        Total length         55.1515 bohr
 

     total cpu time spent up to now is      276.7 secs

     total energy              =   -7738.51848056 Ry
     estimated scf accuracy    <      11.14635923 Ry

     total magnetization       =    83.08 Bohr mag/cell
     absolute magnetization    =    88.19 Bohr mag/cell

     iteration # 18     ecut=    50.00 Ry     beta= 0.10
     Davidson diagonalization with overlap
     ethr =  6.37E-04,  avg # of iterations =  1.0

     negative rho (up, down):  2.530E-02 2.403E-02
 
     Adding external electric field

     Computed dipole along edir(3) : 
        Dipole               -1.8404 Ry au,         -4.6779 Debye
        Dipole field         -0.0011 Ry au, 
 
        Potential amp.        0.1243 Ry
        Total length         55.1515 bohr
 
 
     Adding external electric field

     Computed dipole along edir(3) : 
        Dipole               -1.8404 Ry au,         -4.6779 Debye
        Dipole field         -0.0011 Ry au, 
 
        Potential amp.        0.1243 Ry
        Total length         55.1515 bohr
 

     total cpu time spent up to now is      289.9 secs

     total energy              =   -7738.89577356 Ry
     estimated scf accuracy    <       9.13375528 Ry

     total magnetization       =    83.67 Bohr mag/cell
     absolute magnetization    =    89.01 Bohr mag/cell

     iteration # 19     ecut=    50.00 Ry     beta= 0.10
     Davidson diagonalization with overlap
     ethr =  6.37E-04,  avg # of iterations =  1.5

     negative rho (up, down):  1.165E-02 7.159E-03
 
     Adding external electric field

     Computed dipole along edir(3) : 
        Dipole               -1.6767 Ry au,         -4.2618 Debye
        Dipole field         -0.0010 Ry au, 
 
        Potential amp.        0.1132 Ry
        Total length         55.1515 bohr
 
 
     Adding external electric field

     Computed dipole along edir(3) : 
        Dipole               -1.6767 Ry au,         -4.2618 Debye
        Dipole field         -0.0010 Ry au, 
 
        Potential amp.        0.1132 Ry
        Total length         55.1515 bohr
 

     total cpu time spent up to now is      304.3 secs

     total energy              =   -7738.42894394 Ry
     estimated scf accuracy    <      17.85973015 Ry

     total magnetization       =    83.39 Bohr mag/cell
     absolute magnetization    =    88.05 Bohr mag/cell

     iteration # 20     ecut=    50.00 Ry     beta= 0.10
     Davidson diagonalization with overlap
     ethr =  6.37E-04,  avg # of iterations =  1.0

     negative rho (up, down):  4.931E-04 1.427E-03
 
     Adding external electric field

     Computed dipole along edir(3) : 
        Dipole               -1.3437 Ry au,         -3.4153 Debye
        Dipole field         -0.0008 Ry au, 
 
        Potential amp.        0.0907 Ry
        Total length         55.1515 bohr
 
 
     Adding external electric field

     Computed dipole along edir(3) : 
        Dipole               -1.3437 Ry au,         -3.4153 Debye
        Dipole field         -0.0008 Ry au, 
 
        Potential amp.        0.0907 Ry
        Total length         55.1515 bohr
 

     total cpu time spent up to now is      317.5 secs

     total energy              =   -7738.02613096 Ry
     estimated scf accuracy    <       3.21232129 Ry

     total magnetization       =    90.87 Bohr mag/cell
     absolute magnetization    =    95.93 Bohr mag/cell

     iteration # 21     ecut=    50.00 Ry     beta= 0.10
     Davidson diagonalization with overlap
     ethr =  2.94E-04,  avg # of iterations =  1.5

     negative rho (up, down):  6.533E-05 3.433E-04
 
     Adding external electric field

     Computed dipole along edir(3) : 
        Dipole               -1.2427 Ry au,         -3.1588 Debye
        Dipole field         -0.0008 Ry au, 
 
        Potential amp.        0.0839 Ry
        Total length         55.1515 bohr
 
 
     Adding external electric field

     Computed dipole along edir(3) : 
        Dipole               -1.2427 Ry au,         -3.1588 Debye
        Dipole field         -0.0008 Ry au, 
 
        Potential amp.        0.0839 Ry
        Total length         55.1515 bohr
 

     total cpu time spent up to now is      331.9 secs

     total energy              =   -7738.14370279 Ry
     estimated scf accuracy    <       4.41133548 Ry

     total magnetization       =    85.16 Bohr mag/cell
     absolute magnetization    =    90.84 Bohr mag/cell

     iteration # 22     ecut=    50.00 Ry     beta= 0.10
     Davidson diagonalization with overlap
     ethr =  2.94E-04,  avg # of iterations =  1.0

     negative rho (up, down):  2.178E-05 9.815E-05
 
     Adding external electric field

     Computed dipole along edir(3) : 
        Dipole               -1.2182 Ry au,         -3.0965 Debye
        Dipole field         -0.0007 Ry au, 
 
        Potential amp.        0.0823 Ry
        Total length         55.1515 bohr
 
 
     Adding external electric field

     Computed dipole along edir(3) : 
        Dipole               -1.2182 Ry au,         -3.0965 Debye
        Dipole field         -0.0007 Ry au, 
 
        Potential amp.        0.0823 Ry
        Total length         55.1515 bohr
 

     total cpu time spent up to now is      345.0 secs

     total energy              =   -7738.16107206 Ry
     estimated scf accuracy    <       2.94891150 Ry

     total magnetization       =    86.97 Bohr mag/cell
     absolute magnetization    =    92.15 Bohr mag/cell

     iteration # 23     ecut=    50.00 Ry     beta= 0.10
     Davidson diagonalization with overlap
     ethr =  2.70E-04,  avg # of iterations =  1.0

     negative rho (up, down):  2.861E-05 6.975E-05
 
     Adding external electric field

     Computed dipole along edir(3) : 
        Dipole               -1.2187 Ry au,         -3.0976 Debye
        Dipole field         -0.0007 Ry au, 
 
        Potential amp.        0.0823 Ry
        Total length         55.1515 bohr
 
 
     Adding external electric field

     Computed dipole along edir(3) : 
        Dipole               -1.2187 Ry au,         -3.0976 Debye
        Dipole field         -0.0007 Ry au, 
 
        Potential amp.        0.0823 Ry
        Total length         55.1515 bohr
 

     total cpu time spent up to now is      358.2 secs

     total energy              =   -7738.18004375 Ry
     estimated scf accuracy    <       2.29439590 Ry

     total magnetization       =    86.40 Bohr mag/cell
     absolute magnetization    =    92.22 Bohr mag/cell

     iteration # 24     ecut=    50.00 Ry     beta= 0.10
     Davidson diagonalization with overlap
     ethr =  2.10E-04,  avg # of iterations =  1.0

     negative rho (up, down):  1.647E-05 6.528E-05
 
     Adding external electric field

     Computed dipole along edir(3) : 
        Dipole               -1.0532 Ry au,         -2.6769 Debye
        Dipole field         -0.0006 Ry au, 
 
        Potential amp.        0.0711 Ry
        Total length         55.1515 bohr
 
 
     Adding external electric field

     Computed dipole along edir(3) : 
        Dipole               -1.0532 Ry au,         -2.6769 Debye
        Dipole field         -0.0006 Ry au, 
 
        Potential amp.        0.0711 Ry
        Total length         55.1515 bohr
 

     total cpu time spent up to now is      371.7 secs

     total energy              =   -7738.16918237 Ry
     estimated scf accuracy    <       1.46172795 Ry

     total magnetization       =    87.41 Bohr mag/cell
     absolute magnetization    =    93.27 Bohr mag/cell

     iteration # 25     ecut=    50.00 Ry     beta= 0.10
     Davidson diagonalization with overlap
     ethr =  1.34E-04,  avg # of iterations =  1.5

     negative rho (up, down):  2.281E-05 6.118E-05
 
     Adding external electric field

     Computed dipole along edir(3) : 
        Dipole               -1.0446 Ry au,         -2.6550 Debye
        Dipole field         -0.0006 Ry au, 
 
        Potential amp.        0.0705 Ry
        Total length         55.1515 bohr
 
 
     Adding external electric field

     Computed dipole along edir(3) : 
        Dipole               -1.0446 Ry au,         -2.6550 Debye
        Dipole field         -0.0006 Ry au, 
 
        Potential amp.        0.0705 Ry
        Total length         55.1515 bohr
 

     total cpu time spent up to now is      385.6 secs

     total energy              =   -7738.19406679 Ry
     estimated scf accuracy    <       2.44135774 Ry

     total magnetization       =    86.54 Bohr mag/cell
     absolute magnetization    =    92.31 Bohr mag/cell

     iteration # 26     ecut=    50.00 Ry     beta= 0.10
     Davidson diagonalization with overlap
     ethr =  1.34E-04,  avg # of iterations =  1.0

     negative rho (up, down):  5.707E-05 1.003E-04
 
     Adding external electric field

     Computed dipole along edir(3) : 
        Dipole               -0.9993 Ry au,         -2.5400 Debye
        Dipole field         -0.0006 Ry au, 
 
        Potential amp.        0.0675 Ry
        Total length         55.1515 bohr
 
 
     Adding external electric field

     Computed dipole along edir(3) : 
        Dipole               -0.9993 Ry au,         -2.5400 Debye
        Dipole field         -0.0006 Ry au, 
 
        Potential amp.        0.0675 Ry
        Total length         55.1515 bohr
 

     total cpu time spent up to now is      398.9 secs

     total energy              =   -7738.20509311 Ry
     estimated scf accuracy    <       2.32882969 Ry

     total magnetization       =    86.70 Bohr mag/cell
     absolute magnetization    =    92.39 Bohr mag/cell

     iteration # 27     ecut=    50.00 Ry     beta= 0.10
     Davidson diagonalization with overlap
     ethr =  1.34E-04,  avg # of iterations =  1.5

     negative rho (up, down):  1.296E-04 1.991E-04
 
     Adding external electric field

     Computed dipole along edir(3) : 
        Dipole               -0.9220 Ry au,         -2.3436 Debye
        Dipole field         -0.0006 Ry au, 
 
        Potential amp.        0.0623 Ry
        Total length         55.1515 bohr
 
 
     Adding external electric field

     Computed dipole along edir(3) : 
        Dipole               -0.9220 Ry au,         -2.3436 Debye
        Dipole field         -0.0006 Ry au, 
 
        Potential amp.        0.0623 Ry
        Total length         55.1515 bohr
 

     total cpu time spent up to now is      413.9 secs

     total energy              =   -7738.21949259 Ry
     estimated scf accuracy    <       2.16351979 Ry

     total magnetization       =    86.83 Bohr mag/cell
     absolute magnetization    =    92.37 Bohr mag/cell

     iteration # 28     ecut=    50.00 Ry     beta= 0.10
     Davidson diagonalization with overlap
     ethr =  1.34E-04,  avg # of iterations =  1.0

     negative rho (up, down):  1.020E-04 1.802E-04
 
     Adding external electric field

     Computed dipole along edir(3) : 
        Dipole               -0.8904 Ry au,         -2.2632 Debye
        Dipole field         -0.0005 Ry au, 
 
        Potential amp.        0.0601 Ry
        Total length         55.1515 bohr
 
 
     Adding external electric field

     Computed dipole along edir(3) : 
        Dipole               -0.8904 Ry au,         -2.2632 Debye
        Dipole field         -0.0005 Ry au, 
 
        Potential amp.        0.0601 Ry
        Total length         55.1515 bohr
 

     total cpu time spent up to now is      427.4 secs

     total energy              =   -7738.22369155 Ry
     estimated scf accuracy    <       2.04844986 Ry

     total magnetization       =    86.86 Bohr mag/cell
     absolute magnetization    =    92.18 Bohr mag/cell

     iteration # 29     ecut=    50.00 Ry     beta= 0.10
     Davidson diagonalization with overlap
     ethr =  1.34E-04,  avg # of iterations =  1.5

     negative rho (up, down):  8.765E-05 8.165E-05
 
     Adding external electric field

     Computed dipole along edir(3) : 
        Dipole               -1.1825 Ry au,         -3.0057 Debye
        Dipole field         -0.0007 Ry au, 
 
        Potential amp.        0.0798 Ry
        Total length         55.1515 bohr
 
 
     Adding external electric field

     Computed dipole along edir(3) : 
        Dipole               -1.1825 Ry au,         -3.0057 Debye
        Dipole field         -0.0007 Ry au, 
 
        Potential amp.        0.0798 Ry
        Total length         55.1515 bohr
 

     total cpu time spent up to now is      442.0 secs

     total energy              =   -7738.21193578 Ry
     estimated scf accuracy    <       2.19313202 Ry

     total magnetization       =    85.72 Bohr mag/cell
     absolute magnetization    =    90.87 Bohr mag/cell

     iteration # 30     ecut=    50.00 Ry     beta= 0.10
     Davidson diagonalization with overlap
     ethr =  1.34E-04,  avg # of iterations =  1.5

     negative rho (up, down):  7.235E-05 4.364E-05
 
     Adding external electric field

     Computed dipole along edir(3) : 
        Dipole               -1.2412 Ry au,         -3.1548 Debye
        Dipole field         -0.0008 Ry au, 
 
        Potential amp.        0.0838 Ry
        Total length         55.1515 bohr
 
 
     Adding external electric field

     Computed dipole along edir(3) : 
        Dipole               -1.2412 Ry au,         -3.1548 Debye
        Dipole field         -0.0008 Ry au, 
 
        Potential amp.        0.0838 Ry
        Total length         55.1515 bohr
 

     total cpu time spent up to now is      456.8 secs

     total energy              =   -7738.23479409 Ry
     estimated scf accuracy    <       0.58951730 Ry

     total magnetization       =    89.07 Bohr mag/cell
     absolute magnetization    =    93.57 Bohr mag/cell

     iteration # 31     ecut=    50.00 Ry     beta= 0.10
     Davidson diagonalization with overlap
     c_bands:  4 eigenvalues not converged
     ethr =  5.39E-05,  avg # of iterations = 10.5

     negative rho (up, down):  1.311E-03 5.476E-04
 
     Adding external electric field

     Computed dipole along edir(3) : 
        Dipole               -0.9237 Ry au,         -2.3479 Debye
        Dipole field         -0.0006 Ry au, 
 
        Potential amp.        0.0624 Ry
        Total length         55.1515 bohr
 
 
     Adding external electric field

     Computed dipole along edir(3) : 
        Dipole               -0.9237 Ry au,         -2.3479 Debye
        Dipole field         -0.0006 Ry au, 
 
        Potential amp.        0.0624 Ry
        Total length         55.1515 bohr
 

     total cpu time spent up to now is      478.9 secs

     total energy              =   -7738.22481459 Ry
     estimated scf accuracy    <       0.45826626 Ry

     total magnetization       =    89.14 Bohr mag/cell
     absolute magnetization    =    93.25 Bohr mag/cell

     iteration # 32     ecut=    50.00 Ry     beta= 0.10
     Davidson diagonalization with overlap
     ethr =  4.19E-05,  avg # of iterations =  2.0

     negative rho (up, down):  1.741E-03 7.537E-04
 
     Adding external electric field

     Computed dipole along edir(3) : 
        Dipole               -0.7917 Ry au,         -2.0123 Debye
        Dipole field         -0.0005 Ry au, 
 
        Potential amp.        0.0535 Ry
        Total length         55.1515 bohr
 
 
     Adding external electric field

     Computed dipole along edir(3) : 
        Dipole               -0.7917 Ry au,         -2.0123 Debye
        Dipole field         -0.0005 Ry au, 
 
        Potential amp.        0.0535 Ry
        Total length         55.1515 bohr
 

     total cpu time spent up to now is      494.5 secs

     total energy              =   -7738.25038320 Ry
     estimated scf accuracy    <       0.24113725 Ry

     total magnetization       =    89.41 Bohr mag/cell
     absolute magnetization    =    91.96 Bohr mag/cell

     iteration # 33     ecut=    50.00 Ry     beta= 0.10
     Davidson diagonalization with overlap
     ethr =  2.21E-05,  avg # of iterations =  1.5

     negative rho (up, down):  2.109E-03 7.627E-04
 
     Adding external electric field

     Computed dipole along edir(3) : 
        Dipole               -0.7401 Ry au,         -1.8812 Debye
        Dipole field         -0.0005 Ry au, 
 
        Potential amp.        0.0500 Ry
        Total length         55.1515 bohr
 
 
     Adding external electric field

     Computed dipole along edir(3) : 
        Dipole               -0.7401 Ry au,         -1.8812 Debye
        Dipole field         -0.0005 Ry au, 
 
        Potential amp.        0.0500 Ry
        Total length         55.1515 bohr
 

     total cpu time spent up to now is      508.8 secs

     total energy              =   -7738.24016880 Ry
     estimated scf accuracy    <       0.25403245 Ry

     total magnetization       =    89.39 Bohr mag/cell
     absolute magnetization    =    91.54 Bohr mag/cell

     iteration # 34     ecut=    50.00 Ry     beta= 0.10
     Davidson diagonalization with overlap
     ethr =  2.21E-05,  avg # of iterations =  2.0

     negative rho (up, down):  2.566E-03 8.007E-04
 
     Adding external electric field

     Computed dipole along edir(3) : 
        Dipole               -0.6768 Ry au,         -1.7201 Debye
        Dipole field         -0.0004 Ry au, 
 
        Potential amp.        0.0457 Ry
        Total length         55.1515 bohr
 
 
     Adding external electric field

     Computed dipole along edir(3) : 
        Dipole               -0.6768 Ry au,         -1.7201 Debye
        Dipole field         -0.0004 Ry au, 
 
        Potential amp.        0.0457 Ry
        Total length         55.1515 bohr
 

     total cpu time spent up to now is      524.3 secs

     total energy              =   -7738.23312149 Ry
     estimated scf accuracy    <       0.26397660 Ry

     total magnetization       =    89.38 Bohr mag/cell
     absolute magnetization    =    91.24 Bohr mag/cell

     iteration # 35     ecut=    50.00 Ry     beta= 0.10
     Davidson diagonalization with overlap
     ethr =  2.21E-05,  avg # of iterations =  1.5

     negative rho (up, down):  3.109E-03 1.064E-03
 
     Adding external electric field

     Computed dipole along edir(3) : 
        Dipole               -0.6828 Ry au,         -1.7355 Debye
        Dipole field         -0.0004 Ry au, 
 
        Potential amp.        0.0461 Ry
        Total length         55.1515 bohr
 
 
     Adding external electric field

     Computed dipole along edir(3) : 
        Dipole               -0.6828 Ry au,         -1.7355 Debye
        Dipole field         -0.0004 Ry au, 
 
        Potential amp.        0.0461 Ry
        Total length         55.1515 bohr
 

     total cpu time spent up to now is      539.0 secs

     total energy              =   -7738.22957450 Ry
     estimated scf accuracy    <       0.25938590 Ry

     total magnetization       =    89.56 Bohr mag/cell
     absolute magnetization    =    91.19 Bohr mag/cell

     iteration # 36     ecut=    50.00 Ry     beta= 0.10
     Davidson diagonalization with overlap
     ethr =  2.21E-05,  avg # of iterations =  1.5

     negative rho (up, down):  4.418E-03 2.022E-03
 
     Adding external electric field

     Computed dipole along edir(3) : 
        Dipole               -0.5187 Ry au,         -1.3185 Debye
        Dipole field         -0.0003 Ry au, 
 
        Potential amp.        0.0350 Ry
        Total length         55.1515 bohr
 
 
     Adding external electric field

     Computed dipole along edir(3) : 
        Dipole               -0.5187 Ry au,         -1.3185 Debye
        Dipole field         -0.0003 Ry au, 
 
        Potential amp.        0.0350 Ry
        Total length         55.1515 bohr
 

     total cpu time spent up to now is      552.9 secs

     total energy              =   -7738.26207393 Ry
     estimated scf accuracy    <       0.20627655 Ry

     total magnetization       =    89.48 Bohr mag/cell
     absolute magnetization    =    91.09 Bohr mag/cell

     iteration # 37     ecut=    50.00 Ry     beta= 0.10
     Davidson diagonalization with overlap
     ethr =  1.89E-05,  avg # of iterations =  1.5

     negative rho (up, down):  5.000E-03 2.548E-03
 
     Adding external electric field

     Computed dipole along edir(3) : 
        Dipole               -0.4121 Ry au,         -1.0474 Debye
        Dipole field         -0.0003 Ry au, 
 
        Potential amp.        0.0278 Ry
        Total length         55.1515 bohr
 
 
     Adding external electric field

     Computed dipole along edir(3) : 
        Dipole               -0.4121 Ry au,         -1.0474 Debye
        Dipole field         -0.0003 Ry au, 
 
        Potential amp.        0.0278 Ry
        Total length         55.1515 bohr
 

     total cpu time spent up to now is      567.4 secs

     total energy              =   -7738.27542896 Ry
     estimated scf accuracy    <       0.20915909 Ry

     total magnetization       =    89.44 Bohr mag/cell
     absolute magnetization    =    90.82 Bohr mag/cell

     iteration # 38     ecut=    50.00 Ry     beta= 0.10
     Davidson diagonalization with overlap
     ethr =  1.89E-05,  avg # of iterations =  1.5

     negative rho (up, down):  1.582E-03 7.027E-04
 
     Adding external electric field

     Computed dipole along edir(3) : 
        Dipole               -0.5007 Ry au,         -1.2727 Debye
        Dipole field         -0.0003 Ry au, 
 
        Potential amp.        0.0338 Ry
        Total length         55.1515 bohr
 
 
     Adding external electric field

     Computed dipole along edir(3) : 
        Dipole               -0.5007 Ry au,         -1.2727 Debye
        Dipole field         -0.0003 Ry au, 
 
        Potential amp.        0.0338 Ry
        Total length         55.1515 bohr
 

     total cpu time spent up to now is      581.4 secs

     total energy              =   -7738.29910792 Ry
     estimated scf accuracy    <       0.14992327 Ry

     total magnetization       =    89.44 Bohr mag/cell
     absolute magnetization    =    90.47 Bohr mag/cell

     iteration # 39     ecut=    50.00 Ry     beta= 0.10
     Davidson diagonalization with overlap
     ethr =  1.37E-05,  avg # of iterations =  2.0

     negative rho (up, down):  1.356E-03 7.380E-04
 
     Adding external electric field

     Computed dipole along edir(3) : 
        Dipole               -0.4671 Ry au,         -1.1872 Debye
        Dipole field         -0.0003 Ry au, 
 
        Potential amp.        0.0315 Ry
        Total length         55.1515 bohr
 
 
     Adding external electric field

     Computed dipole along edir(3) : 
        Dipole               -0.4671 Ry au,         -1.1872 Debye
        Dipole field         -0.0003 Ry au, 
 
        Potential amp.        0.0315 Ry
        Total length         55.1515 bohr
 

     total cpu time spent up to now is      615.8 secs

     total energy              =   -7738.30594013 Ry
     estimated scf accuracy    <       0.09267864 Ry

     total magnetization       =    89.11 Bohr mag/cell
     absolute magnetization    =    90.16 Bohr mag/cell

     iteration # 40     ecut=    50.00 Ry     beta= 0.10
     Davidson diagonalization with overlap
     ethr =  8.48E-06,  avg # of iterations = 21.0

     negative rho (up, down):  4.560E-04 2.646E-04
 
     Adding external electric field

     Computed dipole along edir(3) : 
        Dipole               -0.5143 Ry au,         -1.3073 Debye
        Dipole field         -0.0003 Ry au, 
 
        Potential amp.        0.0347 Ry
        Total length         55.1515 bohr
 
 
     Adding external electric field

     Computed dipole along edir(3) : 
        Dipole               -0.5143 Ry au,         -1.3073 Debye
        Dipole field         -0.0003 Ry au, 
 
        Potential amp.        0.0347 Ry
        Total length         55.1515 bohr
 

     total cpu time spent up to now is      647.8 secs

     total energy              =   -7738.30928206 Ry
     estimated scf accuracy    <       0.11900563 Ry

     total magnetization       =    89.09 Bohr mag/cell
     absolute magnetization    =    90.17 Bohr mag/cell

     iteration # 41     ecut=    50.00 Ry     beta= 0.10
     Davidson diagonalization with overlap
     ethr =  8.48E-06,  avg # of iterations =  2.0

     negative rho (up, down):  2.778E-04 2.603E-04
 
     Adding external electric field

     Computed dipole along edir(3) : 
        Dipole               -0.4809 Ry au,         -1.2223 Debye
        Dipole field         -0.0003 Ry au, 
 
        Potential amp.        0.0325 Ry
        Total length         55.1515 bohr
 
 
     Adding external electric field

     Computed dipole along edir(3) : 
        Dipole               -0.4809 Ry au,         -1.2223 Debye
        Dipole field         -0.0003 Ry au, 
 
        Potential amp.        0.0325 Ry
        Total length         55.1515 bohr
 

     total cpu time spent up to now is      663.4 secs

     total energy              =   -7738.31468476 Ry
     estimated scf accuracy    <       0.04984629 Ry

     total magnetization       =    88.50 Bohr mag/cell
     absolute magnetization    =    89.55 Bohr mag/cell

     iteration # 42     ecut=    50.00 Ry     beta= 0.10
     Davidson diagonalization with overlap
     ethr =  4.56E-06,  avg # of iterations = 12.0

     negative rho (up, down):  2.562E-04 2.328E-04
 
     Adding external electric field

     Computed dipole along edir(3) : 
        Dipole               -0.4865 Ry au,         -1.2366 Debye
        Dipole field         -0.0003 Ry au, 
 
        Potential amp.        0.0328 Ry
        Total length         55.1515 bohr
 
 
     Adding external electric field

     Computed dipole along edir(3) : 
        Dipole               -0.4865 Ry au,         -1.2366 Debye
        Dipole field         -0.0003 Ry au, 
 
        Potential amp.        0.0328 Ry
        Total length         55.1515 bohr
 

     total cpu time spent up to now is      690.7 secs

     total energy              =   -7738.31696817 Ry
     estimated scf accuracy    <       0.09883663 Ry

     total magnetization       =    88.93 Bohr mag/cell
     absolute magnetization    =    90.11 Bohr mag/cell

     iteration # 43     ecut=    50.00 Ry     beta= 0.10
     Davidson diagonalization with overlap
     ethr =  4.56E-06,  avg # of iterations =  1.5

     negative rho (up, down):  2.035E-04 1.717E-04
 
     Adding external electric field

     Computed dipole along edir(3) : 
        Dipole               -0.4957 Ry au,         -1.2598 Debye
        Dipole field         -0.0003 Ry au, 
 
        Potential amp.        0.0335 Ry
        Total length         55.1515 bohr
 
 
     Adding external electric field

     Computed dipole along edir(3) : 
        Dipole               -0.4957 Ry au,         -1.2598 Debye
        Dipole field         -0.0003 Ry au, 
 
        Potential amp.        0.0335 Ry
        Total length         55.1515 bohr
 

     total cpu time spent up to now is      705.2 secs

     total energy              =   -7738.31705539 Ry
     estimated scf accuracy    <       0.04295567 Ry

     total magnetization       =    88.71 Bohr mag/cell
     absolute magnetization    =    89.93 Bohr mag/cell

     iteration # 44     ecut=    50.00 Ry     beta= 0.10
     Davidson diagonalization with overlap
     ethr =  3.93E-06,  avg # of iterations =  2.0

     negative rho (up, down):  3.586E-04 2.979E-04
 
     Adding external electric field

     Computed dipole along edir(3) : 
        Dipole               -0.4770 Ry au,         -1.2124 Debye
        Dipole field         -0.0003 Ry au, 
 
        Potential amp.        0.0322 Ry
        Total length         55.1515 bohr
 
 
     Adding external electric field

     Computed dipole along edir(3) : 
        Dipole               -0.4770 Ry au,         -1.2124 Debye
        Dipole field         -0.0003 Ry au, 
 
        Potential amp.        0.0322 Ry
        Total length         55.1515 bohr
 

     total cpu time spent up to now is      720.1 secs

     total energy              =   -7738.31723386 Ry
     estimated scf accuracy    <       0.02268399 Ry

     total magnetization       =    88.52 Bohr mag/cell
     absolute magnetization    =    89.82 Bohr mag/cell

     iteration # 45     ecut=    50.00 Ry     beta= 0.10
     Davidson diagonalization with overlap
     ethr =  2.08E-06,  avg # of iterations =  2.0

     negative rho (up, down):  1.672E-04 1.201E-04
 
     Adding external electric field

     Computed dipole along edir(3) : 
        Dipole               -0.4886 Ry au,         -1.2420 Debye
        Dipole field         -0.0003 Ry au, 
 
        Potential amp.        0.0330 Ry
        Total length         55.1515 bohr
 
 
     Adding external electric field

     Computed dipole along edir(3) : 
        Dipole               -0.4886 Ry au,         -1.2420 Debye
        Dipole field         -0.0003 Ry au, 
 
        Potential amp.        0.0330 Ry
        Total length         55.1515 bohr
 

     total cpu time spent up to now is      734.9 secs

     total energy              =   -7738.31707359 Ry
     estimated scf accuracy    <       0.01509880 Ry

     total magnetization       =    88.40 Bohr mag/cell
     absolute magnetization    =    89.69 Bohr mag/cell

     iteration # 46     ecut=    50.00 Ry     beta= 0.10
     Davidson diagonalization with overlap
     c_bands:  3 eigenvalues not converged
     ethr =  1.38E-06,  avg # of iterations = 11.0

     negative rho (up, down):  2.748E-04 1.491E-04
 
     Adding external electric field

     Computed dipole along edir(3) : 
        Dipole               -0.4609 Ry au,         -1.1714 Debye
        Dipole field         -0.0003 Ry au, 
 
        Potential amp.        0.0311 Ry
        Total length         55.1515 bohr
 
 
     Adding external electric field

     Computed dipole along edir(3) : 
        Dipole               -0.4609 Ry au,         -1.1714 Debye
        Dipole field         -0.0003 Ry au, 
 
        Potential amp.        0.0311 Ry
        Total length         55.1515 bohr
 

     total cpu time spent up to now is      756.2 secs

     total energy              =   -7738.31590600 Ry
     estimated scf accuracy    <       0.02741748 Ry

     total magnetization       =    88.65 Bohr mag/cell
     absolute magnetization    =    90.01 Bohr mag/cell

     iteration # 47     ecut=    50.00 Ry     beta= 0.10
     Davidson diagonalization with overlap
     c_bands:  3 eigenvalues not converged
     c_bands:  2 eigenvalues not converged
     ethr =  1.38E-06,  avg # of iterations = 20.0

     negative rho (up, down):  8.429E-05 2.961E-05
 
     Adding external electric field

     Computed dipole along edir(3) : 
        Dipole               -0.4403 Ry au,         -1.1191 Debye
        Dipole field         -0.0003 Ry au, 
 
        Potential amp.        0.0297 Ry
        Total length         55.1515 bohr
 
 
     Adding external electric field

     Computed dipole along edir(3) : 
        Dipole               -0.4403 Ry au,         -1.1191 Debye
        Dipole field         -0.0003 Ry au, 
 
        Potential amp.        0.0297 Ry
        Total length         55.1515 bohr
 

     total cpu time spent up to now is      784.6 secs

     total energy              =   -7738.31599753 Ry
     estimated scf accuracy    <       0.01031143 Ry

     total magnetization       =    88.40 Bohr mag/cell
     absolute magnetization    =    89.73 Bohr mag/cell

     iteration # 48     ecut=    50.00 Ry     beta= 0.10
     Davidson diagonalization with overlap
     ethr =  9.43E-07,  avg # of iterations =  2.0

     negative rho (up, down):  2.815E-04 1.348E-04
 
     Adding external electric field

     Computed dipole along edir(3) : 
        Dipole               -0.4376 Ry au,         -1.1122 Debye
        Dipole field         -0.0003 Ry au, 
 
        Potential amp.        0.0295 Ry
        Total length         55.1515 bohr
 
 
     Adding external electric field

     Computed dipole along edir(3) : 
        Dipole               -0.4376 Ry au,         -1.1122 Debye
        Dipole field         -0.0003 Ry au, 
 
        Potential amp.        0.0295 Ry
        Total length         55.1515 bohr
 

     total cpu time spent up to now is      799.5 secs

     total energy              =   -7738.31611009 Ry
     estimated scf accuracy    <       0.01749253 Ry

     total magnetization       =    88.84 Bohr mag/cell
     absolute magnetization    =    90.16 Bohr mag/cell

     iteration # 49     ecut=    50.00 Ry     beta= 0.10
     Davidson diagonalization with overlap
     ethr =  9.43E-07,  avg # of iterations =  1.5

     negative rho (up, down):  2.701E-04 1.527E-04
 
     Adding external electric field

     Computed dipole along edir(3) : 
        Dipole               -0.4459 Ry au,         -1.1334 Debye
        Dipole field         -0.0003 Ry au, 
 
        Potential amp.        0.0301 Ry
        Total length         55.1515 bohr
 
 
     Adding external electric field

     Computed dipole along edir(3) : 
        Dipole               -0.4459 Ry au,         -1.1334 Debye
        Dipole field         -0.0003 Ry au, 
 
        Potential amp.        0.0301 Ry
        Total length         55.1515 bohr
 

     total cpu time spent up to now is      813.5 secs

     total energy              =   -7738.31655318 Ry
     estimated scf accuracy    <       0.00555619 Ry

     total magnetization       =    88.58 Bohr mag/cell
     absolute magnetization    =    89.89 Bohr mag/cell

     iteration # 50     ecut=    50.00 Ry     beta= 0.10
     Davidson diagonalization with overlap
     ethr =  5.08E-07,  avg # of iterations =  2.0

     negative rho (up, down):  3.237E-04 2.406E-04
 
     Adding external electric field

     Computed dipole along edir(3) : 
        Dipole               -0.4308 Ry au,         -1.0949 Debye
        Dipole field         -0.0003 Ry au, 
 
        Potential amp.        0.0291 Ry
        Total length         55.1515 bohr
 
 
     Adding external electric field

     Computed dipole along edir(3) : 
        Dipole               -0.4308 Ry au,         -1.0949 Debye
        Dipole field         -0.0003 Ry au, 
 
        Potential amp.        0.0291 Ry
        Total length         55.1515 bohr
 

     total cpu time spent up to now is      828.8 secs

     total energy              =   -7738.31652078 Ry
     estimated scf accuracy    <       0.00526935 Ry

     total magnetization       =    88.54 Bohr mag/cell
     absolute magnetization    =    89.86 Bohr mag/cell

     iteration # 51     ecut=    50.00 Ry     beta= 0.10
     Davidson diagonalization with overlap
     ethr =  4.82E-07,  avg # of iterations =  2.0

     negative rho (up, down):  5.416E-04 6.178E-04
 
     Adding external electric field

     Computed dipole along edir(3) : 
        Dipole               -0.4371 Ry au,         -1.1111 Debye
        Dipole field         -0.0003 Ry au, 
 
        Potential amp.        0.0295 Ry
        Total length         55.1515 bohr
 
 
     Adding external electric field

     Computed dipole along edir(3) : 
        Dipole               -0.4371 Ry au,         -1.1111 Debye
        Dipole field         -0.0003 Ry au, 
 
        Potential amp.        0.0295 Ry
        Total length         55.1515 bohr
 

     total cpu time spent up to now is      844.3 secs

     total energy              =   -7738.31652425 Ry
     estimated scf accuracy    <       0.00729264 Ry

     total magnetization       =    88.71 Bohr mag/cell
     absolute magnetization    =    90.05 Bohr mag/cell

     iteration # 52     ecut=    50.00 Ry     beta= 0.10
     Davidson diagonalization with overlap
     ethr =  4.82E-07,  avg # of iterations =  2.0

     negative rho (up, down):  5.064E-04 6.035E-04
 
     Adding external electric field

     Computed dipole along edir(3) : 
        Dipole               -0.4407 Ry au,         -1.1201 Debye
        Dipole field         -0.0003 Ry au, 
 
        Potential amp.        0.0298 Ry
        Total length         55.1515 bohr
 
 
     Adding external electric field

     Computed dipole along edir(3) : 
        Dipole               -0.4407 Ry au,         -1.1201 Debye
        Dipole field         -0.0003 Ry au, 
 
        Potential amp.        0.0298 Ry
        Total length         55.1515 bohr
 

     total cpu time spent up to now is      859.3 secs

     total energy              =   -7738.31652225 Ry
     estimated scf accuracy    <       0.00567946 Ry

     total magnetization       =    88.67 Bohr mag/cell
     absolute magnetization    =    90.05 Bohr mag/cell

     iteration # 53     ecut=    50.00 Ry     beta= 0.10
     Davidson diagonalization with overlap
     ethr =  4.82E-07,  avg # of iterations =  1.5

     negative rho (up, down):  4.159E-04 5.090E-04
 
     Adding external electric field

     Computed dipole along edir(3) : 
        Dipole               -0.4452 Ry au,         -1.1316 Debye
        Dipole field         -0.0003 Ry au, 
 
        Potential amp.        0.0301 Ry
        Total length         55.1515 bohr
 
 
     Adding external electric field

     Computed dipole along edir(3) : 
        Dipole               -0.4452 Ry au,         -1.1316 Debye
        Dipole field         -0.0003 Ry au, 
 
        Potential amp.        0.0301 Ry
        Total length         55.1515 bohr
 

     total cpu time spent up to now is      873.7 secs

     total energy              =   -7738.31652377 Ry
     estimated scf accuracy    <       0.00485697 Ry

     total magnetization       =    88.64 Bohr mag/cell
     absolute magnetization    =    90.04 Bohr mag/cell

     iteration # 54     ecut=    50.00 Ry     beta= 0.10
     Davidson diagonalization with overlap
     ethr =  4.44E-07,  avg # of iterations =  1.0

     negative rho (up, down):  7.063E-04 8.083E-04
 
     Adding external electric field

     Computed dipole along edir(3) : 
        Dipole               -0.4365 Ry au,         -1.1094 Debye
        Dipole field         -0.0003 Ry au, 
 
        Potential amp.        0.0295 Ry
        Total length         55.1515 bohr
 
 
     Adding external electric field

     Computed dipole along edir(3) : 
        Dipole               -0.4365 Ry au,         -1.1094 Debye
        Dipole field         -0.0003 Ry au, 
 
        Potential amp.        0.0295 Ry
        Total length         55.1515 bohr
 

     total cpu time spent up to now is      887.6 secs

     total energy              =   -7738.31650651 Ry
     estimated scf accuracy    <       0.00456329 Ry

     total magnetization       =    88.63 Bohr mag/cell
     absolute magnetization    =    90.03 Bohr mag/cell

     iteration # 55     ecut=    50.00 Ry     beta= 0.10
     Davidson diagonalization with overlap
     ethr =  4.18E-07,  avg # of iterations =  1.5

     negative rho (up, down):  5.351E-04 6.318E-04
 
     Adding external electric field

     Computed dipole along edir(3) : 
        Dipole               -0.4407 Ry au,         -1.1202 Debye
        Dipole field         -0.0003 Ry au, 
 
        Potential amp.        0.0298 Ry
        Total length         55.1515 bohr
 
 
     Adding external electric field

     Computed dipole along edir(3) : 
        Dipole               -0.4407 Ry au,         -1.1202 Debye
        Dipole field         -0.0003 Ry au, 
 
        Potential amp.        0.0298 Ry
        Total length         55.1515 bohr
 

     total cpu time spent up to now is      902.2 secs

     total energy              =   -7738.31647216 Ry
     estimated scf accuracy    <       0.00440041 Ry

     total magnetization       =    88.61 Bohr mag/cell
     absolute magnetization    =    90.02 Bohr mag/cell

     iteration # 56     ecut=    50.00 Ry     beta= 0.10
     Davidson diagonalization with overlap
     ethr =  4.03E-07,  avg # of iterations =  1.5

     negative rho (up, down):  5.768E-04 6.682E-04
 
     Adding external electric field

     Computed dipole along edir(3) : 
        Dipole               -0.4432 Ry au,         -1.1265 Debye
        Dipole field         -0.0003 Ry au, 
 
        Potential amp.        0.0299 Ry
        Total length         55.1515 bohr
 
 
     Adding external electric field

     Computed dipole along edir(3) : 
        Dipole               -0.4432 Ry au,         -1.1265 Debye
        Dipole field         -0.0003 Ry au, 
 
        Potential amp.        0.0299 Ry
        Total length         55.1515 bohr
 

     total cpu time spent up to now is      916.6 secs

     total energy              =   -7738.31650019 Ry
     estimated scf accuracy    <       0.00444793 Ry

     total magnetization       =    88.60 Bohr mag/cell
     absolute magnetization    =    90.01 Bohr mag/cell

     iteration # 57     ecut=    50.00 Ry     beta= 0.10
     Davidson diagonalization with overlap
     ethr =  4.03E-07,  avg # of iterations =  1.0

     negative rho (up, down):  5.368E-04 6.280E-04
 
     Adding external electric field

     Computed dipole along edir(3) : 
        Dipole               -0.4394 Ry au,         -1.1168 Debye
        Dipole field         -0.0003 Ry au, 
 
        Potential amp.        0.0297 Ry
        Total length         55.1515 bohr
 
 
     Adding external electric field

     Computed dipole along edir(3) : 
        Dipole               -0.4394 Ry au,         -1.1168 Debye
        Dipole field         -0.0003 Ry au, 
 
        Potential amp.        0.0297 Ry
        Total length         55.1515 bohr
 

     total cpu time spent up to now is      929.9 secs

     total energy              =   -7738.31651551 Ry
     estimated scf accuracy    <       0.00419836 Ry

     total magnetization       =    88.60 Bohr mag/cell
     absolute magnetization    =    90.02 Bohr mag/cell

     iteration # 58     ecut=    50.00 Ry     beta= 0.10
     Davidson diagonalization with overlap
     ethr =  3.84E-07,  avg # of iterations =  1.5

     negative rho (up, down):  1.465E-04 2.088E-04
 
     Adding external electric field

     Computed dipole along edir(3) : 
        Dipole               -0.3987 Ry au,         -1.0134 Debye
[...]
    -5.9688  -5.9352  -5.9281  -5.9050  -5.8854  -5.8759  -5.8633  -5.8383
    -5.8243  -5.7772  -5.7488  -5.7392  -5.7267  -5.6910  -5.6654  -5.6504
    -5.6365  -5.6273  -5.5834  -5.5662  -5.5612  -5.5448  -5.5375  -5.5229
    -5.5128  -5.4857  -5.4729  -5.4412  -5.3977  -5.3619  -5.3300  -5.3138
    -5.2767  -5.2585  -5.2320  -5.1626  -5.1440  -5.1397  -5.1242  -5.1016
    -5.0642  -5.0087  -4.9620  -4.9288  -4.8965  -4.8869  -4.8574  -4.8430
    -4.8160  -4.7904  -4.7765  -4.7396  -4.7188  -4.6888  -4.6366  -4.6009
    -4.5392  -4.4709  -4.4390  -4.4205  -4.4029  -4.3925  -4.3629  -4.3505
    -4.3243  -4.2823  -4.2536  -4.2406  -4.2021  -4.1900  -4.1065  -4.1019
    -4.0852  -4.0422  -4.0342  -4.0145  -3.9540  -3.9302  -3.9174  -3.8783
    -3.8531  -3.8180  -3.8094  -3.7917  -3.7735  -3.7409  -3.7024  -3.6916
    -3.6851  -3.6673  -3.6568  -3.5848  -3.5756  -3.5742  -3.5589  -3.5433
    -3.5303  -3.5139  -3.5046  -3.4809  -3.4464  -3.4406  -3.4266  -3.4044
    -3.3818  -3.3717  -3.3677  -3.3520  -3.3350  -3.3041  -3.2844  -3.2554
    -3.2438  -3.2125  -3.1884  -3.1642  -3.1400  -3.1164  -3.0992  -3.0811
    -3.0731  -3.0615  -3.0507  -3.0306  -3.0163  -3.0006  -2.9839  -2.9338
    -2.9214  -2.9104  -2.8976  -2.8886  -2.8672  -2.8438  -2.8095  -2.7873
    -2.7834  -2.7585  -2.7503  -2.7250  -2.7200  -2.7120  -2.7056  -2.6903
    -2.6716  -2.6641  -2.6605  -2.6350  -2.6252  -2.6123  -2.6053  -2.5768
    -2.5713  -2.5699  -2.5375  -2.5240  -2.5042  -2.4793  -2.4692  -2.4570
    -2.4503  -2.4078  -2.3983  -2.3716  -2.3552  -2.3401  -2.3136  -2.2783
    -2.2717  -2.2672  -2.2225  -2.2077  -2.1859  -2.1734  -2.1508  -2.1382
    -2.1063  -2.0856  -2.0705  -2.0656  -2.0492  -2.0359  -2.0251  -2.0193
    -1.9933  -1.9485  -1.9365  -1.9164  -1.9051  -1.8867  -1.8802  -1.8636
    -1.8376  -1.8330  -1.8277  -1.8184  -1.7906  -1.7126  -1.7069  -1.6744
    -1.6691  -1.6489  -1.6298  -1.6261  -1.6128  -1.6018  -1.5863  -1.5785
    -1.5478  -1.5426  -1.5002  -1.4881  -1.4630  -1.4531  -1.4444  -1.4196
    -1.4010  -1.3902  -1.3814  -1.3601  -1.3554  -1.3298  -1.3031  -1.2941
    -1.2311  -1.2219  -1.1675  -1.1469  -1.1309  -1.1296  -1.0917  -1.0495
    -1.0300  -0.9931  -0.9269  -0.8572  -0.7273  -0.7119  -0.6255  -0.5690
    -0.5213  -0.5072  -0.3548  -0.2466   0.1816   0.2171   0.2395   0.2494
     0.2992   0.3105   0.3223   0.3315   0.3486   0.3605   0.3681   0.3717
     0.3786   0.3881   0.4007   0.4022   0.4067   0.4172   0.4216   0.4284
     0.4362   0.4416   0.4647   0.4678   0.4784   0.4843   0.4912   0.4945
     0.4999   0.5002   0.5110   0.5174   0.5245   0.5345   0.5389   0.5413
     0.5437   0.5671   0.5705   0.5754   0.5991   0.6017   0.6179   0.6208
     0.6279   0.6360   0.6449   0.6484   0.6551   0.6645   0.6664   0.6802
     0.6838   0.6873   0.7007   0.7053   0.7155   0.7164   0.7229   0.7351
     0.7446   0.7512   0.7670   0.7680   0.7809   0.7832   0.7943   0.8110
     0.8126   0.8288   0.8509   0.8580   0.8654   0.8693   0.8720   0.8797
     0.8861   0.9046   0.9109   0.9166   0.9222   0.9544   0.9675   0.9848
     0.9883   1.0375   1.0870   1.1141   1.1250   1.6893   1.7376   1.7494
     1.7775   1.8013   1.8127   1.8190   1.8242   1.8418   1.9109   1.9220
     1.9346   1.9723   1.9807   2.0081   2.0436   2.0473   2.0856   2.0929
     2.1400   2.1460   2.1762   2.1928   2.1979   2.2017   2.2115   2.2371
     2.2453   2.2767   2.2866   2.3050   2.3147   2.3270   2.3447   2.3594
     2.3734   2.3839   2.3877   2.4096   2.4186   2.4238   2.4414   2.4902
     2.5290   2.5334   2.5409   2.5500   2.5547   2.5788   2.5974   2.6148
     2.6599   2.6823   2.7045   2.7087   2.7288   2.8040   2.8049   2.8742
     2.8791   2.8876   3.7088   3.7223   3.7277   3.7848   3.7878   3.7992
     3.9074   3.9375   3.9594   3.9608   3.9839   4.0018   4.0152   4.0385
     4.0551   4.0615   4.1467   4.1492   4.1610   4.1824   4.6622   4.7210
     4.7973   4.8584   4.8864   4.9142   4.9393   4.9708   5.0437   5.0988
     5.1191   5.1497   5.4258   6.2446   6.3760   6.6161   6.6602   6.7610
     6.8115   6.8869   6.8920   6.9234   7.0241   7.0839   7.0940   7.1352
     7.2693   7.3523   7.3569   7.4373   7.4827   7.5370   7.5884   7.6323
     7.6410   7.6816   7.7382   7.7601   7.8110   7.8855   7.9019   7.9103
     8.0168   8.0304   8.0656   8.0921   8.1134   8.1796   8.1926   8.2108
     8.2646   8.2863   8.3035   8.3332   8.3809   8.4260   8.4319   8.4512
     8.4673   8.4797   8.4990   8.5284   8.5555   8.5746   8.6003   8.6233
     8.6660   8.6848   8.7260   8.7548   8.7690   8.7849   8.8317   8.8360

     the Fermi energy is     1.6619 ev

!    total energy              =   -7738.31686314 Ry
     estimated scf accuracy    <       0.00000073 Ry
     smearing contrib. (-TS)   =      -0.02224318 Ry
     internal energy E=F+TS    =   -7738.29461996 Ry

     The total energy is F=E-TS. E is the sum of the following terms:
     one-electron contribution =  -94696.49931876 Ry
     hartree contribution      =   47965.53297519 Ry
     xc contribution           =   -2218.71726646 Ry
     ewald contribution        =   41213.19610213 Ry
     Dispersion Correction     =      -1.80717151 Ry
     electric field correction =       0.00005945 Ry

     total magnetization       =    88.66 Bohr mag/cell
     absolute magnetization    =    90.03 Bohr mag/cell

     convergence has been achieved in  77 iterations

     negative rho (up, down):  1.053E-03 5.884E-04

     Forces acting on atoms (cartesian axes, Ry/au):

     atom    1 type  1   force =    -0.00002075   -0.00035291   -0.00051138
     atom    2 type  2   force =     0.00016887    0.00040373    0.00001291
     atom    3 type  1   force =     0.00010057   -0.00035434   -0.00011986
     atom    4 type  1   force =     0.00009021   -0.00001726   -0.00021749
     atom    5 type  1   force =    -0.00089602    0.00042154   -0.00014383
     atom    6 type  1   force =     0.00031210    0.00060310   -0.00031027
     atom    7 type  3   force =    -0.00024549    0.00024724   -0.00029243
     atom    8 type  3   force =    -0.00019153    0.00044541   -0.00007414
     atom    9 type  3   force =    -0.00003253    0.00021372   -0.00015563
     atom   10 type  3   force =    -0.00032764    0.00000250    0.00020896
     atom   11 type  4   force =     0.00030403    0.00024694   -0.00028965
     atom   12 type  4   force =    -0.00016146   -0.00011712   -0.00013218
     atom   13 type  4   force =     0.00047315    0.00010629   -0.00025374
     atom   14 type  4   force =     0.00015792    0.00011043    0.00004471
     atom   15 type  4   force =     0.00042595   -0.00042383    0.00001912
     atom   16 type  4   force =    -0.00005684   -0.00054827    0.00006966
     atom   17 type  4   force =    -0.00046011   -0.00017807   -0.00011011
     atom   18 type  4   force =    -0.00005064   -0.00014276    0.00039709
     atom   19 type  4   force =     0.00064020    0.00012911    0.00010045
     atom   20 type  4   force =     0.00018509    0.00013375    0.00043130
     atom   21 type  4   force =    -0.00001375   -0.00019575   -0.00001862
     atom   22 type  4   force =    -0.00015963   -0.00002006   -0.00012004
     atom   23 type  4   force =     0.00013253    0.00034211    0.00026285
     atom   24 type  4   force =    -0.00017613    0.00026876   -0.00022346
     atom   25 type  4   force =    -0.00031083   -0.00008131    0.00035491
     atom   26 type  4   force =     0.00027022   -0.00009063   -0.00001714
     atom   27 type  1   force =    -0.00585666   -0.00853540   -0.00392590
     atom   28 type  2   force =    -0.01214848    0.00009898   -0.00208356
     atom   29 type  1   force =     0.00285742   -0.00417104    0.00008294
     atom   30 type  1   force =     0.00237296    0.00396235   -0.00182388
     atom   31 type  1   force =     0.00181209   -0.00483256   -0.00046104
     atom   32 type  1   force =    -0.00090461    0.00110705    0.00175759
     atom   33 type  3   force =    -0.00705518   -0.00078878   -0.00043909
     atom   34 type  3   force =    -0.00689296    0.00229734   -0.00043549
     atom   35 type  3   force =     0.00399603   -0.00045722   -0.00489058
     atom   36 type  3   force =     0.00117616   -0.00130279    0.00293877
     atom   37 type  4   force =     0.00873194    0.00532888   -0.00772047
     atom   38 type  4   force =     0.00357799   -0.00103739    0.02039195
     atom   39 type  4   force =    -0.00140312    0.00347977    0.01019116
     atom   40 type  4   force =    -0.00163696   -0.00222683   -0.00900100
     atom   41 type  4   force =     0.00212237    0.00859908    0.00669389
     atom   42 type  4   force =    -0.00564356   -0.00314715   -0.01958085
     atom   43 type  4   force =     0.00989082    0.00661014   -0.00823232
     atom   44 type  4   force =     0.00717843   -0.00298436    0.00614286
     atom   45 type  4   force =     0.00213655    0.00578371   -0.00058938
     atom   46 type  4   force =     0.00342605    0.00126928    0.00493549
     atom   47 type  4   force =    -0.01308615    0.00020084    0.00326345
     atom   48 type  4   force =    -0.01443665    0.00259246   -0.00358178
     atom   49 type  4   force =     0.01245929    0.00290919   -0.00451744
     atom   50 type  4   force =    -0.00376663   -0.00391790   -0.00043901
     atom   51 type  4   force =    -0.00435851    0.00254301   -0.00063823
     atom   52 type  4   force =     0.01617171   -0.00323341    0.00421864
     atom   53 type  1   force =    -0.00751602   -0.00714954   -0.00831622
     atom   54 type  2   force =     0.01578718    0.01728539   -0.00955197
     atom   55 type  1   force =     0.00577539   -0.00485506   -0.00568602
     atom   56 type  1   force =    -0.02059302    0.01932442    0.02012916
     atom   57 type  1   force =     0.00445983   -0.00758778   -0.00123057
     atom   58 type  1   force =    -0.00389521   -0.00528488   -0.00067041
     atom   59 type  3   force =    -0.03902784   -0.03834335   -0.05602533
     atom   60 type  3   force =    -0.00484843   -0.00127826   -0.00115851
     atom   61 type  3   force =     0.00273174   -0.00100962   -0.01013804
     atom   62 type  3   force =     0.02909619   -0.04951490   -0.06057775
     atom   63 type  4   force =     0.00630146    0.00353553    0.02093609
     atom   64 type  4   force =     0.00453392    0.00227261    0.01465209
     atom   65 type  4   force =    -0.00068826    0.00288720    0.01284281
     atom   66 type  4   force =     0.00011023    0.00218945    0.01617935
     atom   67 type  4   force =     0.00105348   -0.00064063    0.03916343
     atom   68 type  4   force =    -0.00562198   -0.00398887   -0.01728620
     atom   69 type  4   force =     0.00775566    0.00444265   -0.00268682
     atom   70 type  4   force =     0.00175896   -0.00736694    0.03543377
     atom   71 type  4   force =    -0.00913112    0.03915012    0.00098204
     atom   72 type  4   force =     0.00223403   -0.00036817    0.00794761
     atom   73 type  4   force =    -0.03005781    0.00087053    0.00767801
     atom   74 type  4   force =    -0.01338460    0.00144097   -0.00041133
     atom   75 type  4   force =     0.01183127    0.00349704   -0.00250245
     atom   76 type  4   force =    -0.00235300   -0.00278455    0.00256385
     atom   77 type  4   force =     0.00920428    0.02574760   -0.00252608
     atom   78 type  4   force =     0.03347264   -0.00639798    0.00621549
     atom   79 type  1   force =     0.00008838   -0.00044749   -0.00044638
     atom   80 type  2   force =     0.00000749   -0.00007929    0.00022771
     atom   81 type  1   force =    -0.00070501   -0.00116834   -0.00135989
     atom   82 type  1   force =    -0.00018717    0.00015011   -0.00007088
     atom   83 type  1   force =    -0.00077072    0.00042963    0.00021389
     atom   84 type  1   force =     0.00029633    0.00033182    0.00032969
     atom   85 type  3   force =     0.00002649   -0.00007553   -0.00026912
     atom   86 type  3   force =    -0.00017592    0.00003360   -0.00005595
     atom   87 type  3   force =    -0.00003989    0.00001966    0.00018984
     atom   88 type  3   force =    -0.00034378    0.00039024    0.00000351
     atom   89 type  4   force =     0.00040606    0.00026155   -0.00006906
     atom   90 type  4   force =    -0.00003958    0.00019232   -0.00006895
     atom   91 type  4   force =     0.00031415    0.00040564   -0.00008729
     atom   92 type  4   force =    -0.00022026    0.00062457    0.00009914
     atom   93 type  4   force =     0.00015030   -0.00029493    0.00023861
     atom   94 type  4   force =     0.00010259   -0.00039009   -0.00002136
     atom   95 type  4   force =     0.00021356   -0.00022392   -0.00039325
     atom   96 type  4   force =     0.00021289    0.00003615   -0.00015730
     atom   97 type  4   force =     0.00054656   -0.00008022   -0.00021881
     atom   98 type  4   force =    -0.00006012   -0.00032985    0.00026850
     atom   99 type  4   force =     0.00011807    0.00013314    0.00023779
     atom  100 type  4   force =    -0.00000494   -0.00055039   -0.00002965
     atom  101 type  4   force =    -0.00002592   -0.00009871   -0.00008370
     atom  102 type  4   force =    -0.00022805    0.00004154    0.00022702
     atom  103 type  4   force =    -0.00045597    0.00027382    0.00036730
     atom  104 type  4   force =    -0.00009030   -0.00046541    0.00012997
     atom  105 type  1   force =    -0.00644576   -0.00798922   -0.00362803
     atom  106 type  2   force =    -0.01201643    0.00014133   -0.00215718
     atom  107 type  1   force =     0.00424693   -0.00281960    0.00310384
     atom  108 type  1   force =     0.00239122    0.00404499   -0.00186024
     atom  109 type  1   force =     0.00180804   -0.00484440   -0.00047358
     atom  110 type  1   force =    -0.00122516    0.00111292    0.00162893
     atom  111 type  3   force =    -0.00709819   -0.00082790   -0.00045155
     atom  112 type  3   force =    -0.00615336    0.00299306   -0.00223080
     atom  113 type  3   force =     0.00409558   -0.00002624   -0.00389255
     atom  114 type  3   force =     0.00104752   -0.00133841    0.00300085
     atom  115 type  4   force =     0.00876389    0.00509912   -0.00766974
     atom  116 type  4   force =     0.00369268   -0.00117749    0.02076930
     atom  117 type  4   force =    -0.00100087    0.00366363    0.01023268
     atom  118 type  4   force =    -0.00155852   -0.00237710   -0.00899830
     atom  119 type  4   force =     0.00221266    0.00858247    0.00652193
     atom  120 type  4   force =    -0.00687477   -0.00298208   -0.01978338
     atom  121 type  4   force =     0.00979666    0.00729936   -0.00654931
     atom  122 type  4   force =     0.00701251   -0.00299037    0.00612906
     atom  123 type  4   force =     0.00209998    0.00582912   -0.00053712
     atom  124 type  4   force =     0.00320396    0.00088623    0.00504377
     atom  125 type  4   force =    -0.01302083    0.00022278    0.00331377
     atom  126 type  4   force =    -0.01450642    0.00250213   -0.00332668
     atom  127 type  4   force =     0.01308845    0.00300735   -0.00437552
     atom  128 type  4   force =    -0.00433474   -0.00372413   -0.00008231
     atom  129 type  4   force =    -0.00432542    0.00256139   -0.00052517
     atom  130 type  4   force =     0.01628410   -0.00325673    0.00420768
     atom  131 type  1   force =    -0.00751026   -0.00715161   -0.00830793
     atom  132 type  2   force =     0.01576571    0.01726979   -0.00953938
     atom  133 type  1   force =     0.00577509   -0.00485626   -0.00569494
     atom  134 type  1   force =    -0.02058567    0.01932529    0.02013514
     atom  135 type  1   force =     0.00445711   -0.00759123   -0.00123530
     atom  136 type  1   force =    -0.00387494   -0.00528488   -0.00066557
     atom  137 type  3   force =    -0.03902931   -0.03834263   -0.05602760
     atom  138 type  3   force =    -0.00485183   -0.00127915   -0.00116662
     atom  139 type  3   force =     0.00273571   -0.00101376   -0.01013931
     atom  140 type  3   force =     0.02909064   -0.04951256   -0.06057979
     atom  141 type  4   force =     0.00624136    0.00355765    0.02101265
     atom  142 type  4   force =     0.00446479    0.00226590    0.01467410
     atom  143 type  4   force =    -0.00061327    0.00278795    0.01288638
     atom  144 type  4   force =     0.00015832    0.00227212    0.01638272
     atom  145 type  4   force =     0.00120478   -0.00064248    0.03914642
     atom  146 type  4   force =    -0.00538848   -0.00398922   -0.01728095
     atom  147 type  4   force =     0.00775108    0.00449102   -0.00286981
     atom  148 type  4   force =     0.00165333   -0.00740812    0.03548121
     atom  149 type  4   force =    -0.00932639    0.03915583    0.00098175
     atom  150 type  4   force =     0.00202751   -0.00036084    0.00794773
     atom  151 type  4   force =    -0.02994237    0.00087245    0.00768105
     atom  152 type  4   force =    -0.01348762    0.00144837   -0.00041593
     atom  153 type  4   force =     0.01199052    0.00360688   -0.00251350
     atom  154 type  4   force =    -0.00239233   -0.00266762    0.00248429
     atom  155 type  4   force =     0.00910694    0.02577745   -0.00258623
     atom  156 type  4   force =     0.03344134   -0.00621372    0.00604974
     atom  157 type  4   force =    -0.00657468    0.00906649   -0.00129609
     atom  158 type  5   force =     0.00752715   -0.00566751    0.00171935

     Total force =     0.237502     Total SCF correction =     0.003265
 
     init_run     :      8.86s CPU      9.65s WALL (       1 calls)
     electrons    :   1169.97s CPU   1225.59s WALL (       1 calls)
     forces       :      4.51s CPU      4.99s WALL (       1 calls)
     force_london :      0.12s CPU      0.12s WALL (       1 calls)

     Called by init_run:
     wfcinit      :      5.13s CPU      5.30s WALL (       1 calls)
     potinit      :      0.59s CPU      0.81s WALL (       1 calls)
     hinit0       :      1.64s CPU      1.74s WALL (       1 calls)

     Called by electrons:
     c_bands      :    919.75s CPU    947.94s WALL (      77 calls)
     sum_band     :    157.83s CPU    172.40s WALL (      77 calls)
     v_of_rho     :     21.68s CPU     22.79s WALL (      78 calls)
     newd         :     44.55s CPU     56.45s WALL (      78 calls)
     mix_rho      :     25.16s CPU     25.30s WALL (      77 calls)
     energy_londo :      0.11s CPU      0.11s WALL (       1 calls)

     Called by c_bands:
     init_us_2    :      2.75s CPU      2.81s WALL (     312 calls)
     init_us_2:cp :      2.74s CPU      2.81s WALL (     312 calls)
     regterg      :    898.14s CPU    926.05s WALL (     156 calls)

     Called by *egterg:
     rdiaghg      :    266.84s CPU    279.92s WALL (     578 calls)
     h_psi        :    366.76s CPU    373.23s WALL (     580 calls)
     s_psi        :     67.21s CPU     67.30s WALL (     580 calls)
     g_psi        :      0.51s CPU      0.51s WALL (     422 calls)

     Called by h_psi:
     h_psi:calbec :     87.27s CPU     92.61s WALL (     580 calls)
     vloc_psi     :    210.74s CPU    211.68s WALL (     580 calls)
     add_vuspsi   :     67.83s CPU     68.00s WALL (     580 calls)

     General routines
     calbec       :    129.61s CPU    137.38s WALL (     742 calls)
     fft          :     16.64s CPU     18.20s WALL (    1417 calls)
     ffts         :     15.52s CPU     15.58s WALL (    9581 calls)
     fftw         :    235.63s CPU    236.62s WALL (  262016 calls)
     interpolate  :      1.63s CPU      1.71s WALL (     156 calls)
 
     Parallel routines
 
     PWSCF        :  19m45.76s CPU  20m43.03s WALL

 
   This run was terminated on:   0:22:18  18Nov2025            

=------------------------------------------------------------------------------=
   JOB DONE.
=------------------------------------------------------------------------------=
