
     Program PWSCF v.7.2 starts on 18Nov2025 at  3: 0:16 

     This program is part of the open-source Quantum ESPRESSO suite
     for quantum simulation of materials; please cite
         "P. Giannozzi et al., J. Phys.:Condens. Matter 21 395502 (2009);
         "P. Giannozzi et al., J. Phys.:Condens. Matter 29 465901 (2017);
         "P. Giannozzi et al., J. Chem. Phys. 152 154105 (2020);
          URL http://www.quantum-espresso.org", 
     in publications or presentations arising from this work. More details at
     http://www.quantum-espresso.org/quote

     Parallel version (MPI), running on    64 processors

     MPI processes distributed on     4 nodes
     485611 MiB available memory on the printing compute node when the environment starts
 
     Reading input from PWINPUT_atm158_zm

     Current dimensions of program PWSCF are:
     Max number of different atomic species (ntypx) = 10
     Max number of k-points (npk) =  40000
     Max angular momentum in pseudopotentials (lmaxx) =  4
     Presently no symmetry can be used with electric field

     file Ni.pbe-n-rrkjus_psl.1.0.0.UPF: wavefunction(s)  3D renormalized
     file Mn.pbe-spn-rrkjus_psl.0.3.1.UPF: wavefunction(s)  3D renormalized
     file O.pbe-rrkjus.UPF: wavefunction(s)  2S renormalized
     file H.pbe-rrkjus.UPF: wavefunction(s)  1S renormalized

     gamma-point specific algorithms are used
 
     R & G space division:  proc/nbgrp/npool/nimage =      64
     Subspace diagonalization in iterative solution of the eigenvalue problem:
     one sub-group per band group will be used
     custom distributed-memory algorithm (size of sub-group:  7*  7 procs)

 
     Parallelization info
     --------------------
     sticks:   dense  smooth     PW     G-vecs:    dense   smooth      PW
     Min         207      82     20                60552    15302    1896
     Max         210      84     22                60574    15336    1950
     Sum       13325    5345   1333              3876045   980655  122653
 
     Using Slab Decomposition
 


     bravais-lattice index     =            0
     lattice parameter (alat)  =      17.4067  a.u.
     unit-cell volume          =   20529.8182 (a.u.)^3
     number of atoms/cell      =          158
     number of atomic types    =            5
     number of electrons       =      1093.00
     number of Kohn-Sham states=          656
     kinetic-energy cutoff     =      50.0000  Ry
     charge density cutoff     =     500.0000  Ry
     scf convergence threshold =      1.0E-06
     mixing beta               =       0.1000
     number of iterations used =            8  local-TF  mixing
     Exchange-correlation=  SLA  PW   PBE  PBE
                           (   1   4   3   4   0   0   0)

     celldm(1)=  17.406729  celldm(2)=   0.000000  celldm(3)=   0.000000
     celldm(4)=   0.000000  celldm(5)=   0.000000  celldm(6)=   0.000000

     crystal axes: (cart. coord. in units of alat)
               a(1) = (   1.000000   0.000000   0.000000 )  
               a(2) = (  -0.001404   1.105696   0.000000 )  
               a(3) = (   0.000000   0.000000   3.520448 )  

     reciprocal axes: (cart. coord. in units 2 pi/alat)
               b(1) = (  1.000000  0.001270  0.000000 )  
               b(2) = (  0.000000  0.904408  0.000000 )  
               b(3) = (  0.000000  0.000000  0.284055 )  


     PseudoPot. # 1 for Ni read from file:
     ~/PSEUDO/Ni.pbe-n-rrkjus_psl.1.0.0.UPF
     MD5 check sum: Not computed, couldn't open file
     Pseudo is Ultrasoft + core correction, Zval = 10.0
     Generated using "atomic" code by A. Dal Corso  v.5.1.2
     Using radial grid of 1195 points,  6 beta functions with: 
                l(1) =   0
                l(2) =   0
                l(3) =   1
                l(4) =   1
                l(5) =   2
                l(6) =   2
     Q(r) pseudized with 0 coefficients 


     PseudoPot. # 2 for Mn read from file:
     ~/PSEUDO/Mn.pbe-spn-rrkjus_psl.0.3.1.UPF
     MD5 check sum: Not computed, couldn't open file
     Pseudo is Ultrasoft + core correction, Zval = 15.0
     Generated using &quot;atomic&quot; code by A. Dal Corso  v.6.2.2
     Using radial grid of 1187 points,  6 beta functions with: 
                l(1) =   0
                l(2) =   0
                l(3) =   1
                l(4) =   1
                l(5) =   2
                l(6) =   2
     Q(r) pseudized with 0 coefficients 


     PseudoPot. # 3 for P  read from file:
     ~/PSEUDO/P.pbe-n-rrkjus_psl.1.0.0.UPF
     MD5 check sum: Not computed, couldn't open file
     Pseudo is Ultrasoft + core correction, Zval =  5.0
     Generated using "atomic" code by A. Dal Corso  v.5.1
     Using radial grid of 1147 points,  6 beta functions with: 
                l(1) =   0
                l(2) =   0
                l(3) =   1
                l(4) =   1
                l(5) =   2
                l(6) =   2
     Q(r) pseudized with 0 coefficients 


     PseudoPot. # 4 for O  read from file:
     ~/PSEUDO/O.pbe-rrkjus.UPF
     MD5 check sum: Not computed, couldn't open file
     Pseudo is Ultrasoft, Zval =  6.0
     Generated by new atomic code, or converted to UPF format
     Using radial grid of 1269 points,  4 beta functions with: 
                l(1) =   0
                l(2) =   0
                l(3) =   1
                l(4) =   1
     Q(r) pseudized with 0 coefficients 


     PseudoPot. # 5 for H  read from file:
     ~/PSEUDO/H.pbe-rrkjus.UPF
     MD5 check sum: Not computed, couldn't open file
     Pseudo is Ultrasoft, Zval =  1.0
     Generated by new atomic code, or converted to UPF format
     Using radial grid of 1061 points,  2 beta functions with: 
                l(1) =   0
                l(2) =   0
     Q(r) pseudized with 0 coefficients 


     atomic species   valence    mass     pseudopotential
     Ni               10.00    58.69300     Ni( 1.00)
     Mn               15.00    54.93800     Mn( 1.00)
     P                 5.00    30.97300     P ( 1.00)
     O                 6.00    15.99900     O ( 1.00)
     H                 1.00     1.00790     H ( 1.00)

     Starting magnetic structure 
     atomic species   magnetization
     Ni              1.000
     Mn              1.000
     P               1.000
     O               1.000
     H               0.000

     No symmetry found



   Cartesian axes

     site n.     atom                  positions (alat units)
         1        Ni     tau(   1) = (   0.2516924   0.8633449   1.7463431  )
         2        Mn     tau(   2) = (   0.4858702   0.7924072   1.4296398  )
         3        Ni     tau(   3) = (  -0.0004960   0.3052069   1.7433305  )
         4        Ni     tau(   4) = (   0.2564981   0.2439079   1.4294353  )
         5        Ni     tau(   5) = (   0.4974217   1.1099092   1.5983921  )
         6        Ni     tau(   6) = (   0.2522981   0.5514414   1.6004118  )
         7        P      tau(   7) = (   0.2082091   1.0035384   1.4306784  )
         8        P      tau(   8) = (   0.4616835   0.6681301   1.7674811  )
         9        P      tau(   9) = (   0.2867076   0.1153356   1.7548632  )
        10        P      tau(  10) = (   0.0394718   0.4432333   1.4316675  )
        11        O      tau(  11) = (   0.1330537   0.9306336   1.5703788  )
        12        O      tau(  12) = (   0.3824580   0.7326833   1.6196685  )
        13        O      tau(  13) = (   0.3632794   0.1756131   1.6084910  )
        14        O      tau(  14) = (   0.1181909   0.3720715   1.5705068  )
        15        O      tau(  15) = (   0.1497429   0.9117647   1.3026676  )
        16        O      tau(  16) = (   0.4024605   0.7699543   1.8833170  )
        17        O      tau(  17) = (   0.3436717   0.2148734   1.8743526  )
        18        O      tau(  18) = (   0.0995925   0.3561393   1.3016093  )
        19        O      tau(  19) = (   0.0985164   0.6018581   1.4374099  )
        20        O      tau(  20) = (   0.3415582   1.0599765   1.7584409  )
        21        O      tau(  21) = (   0.3722969   0.4384776   1.4449122  )
        22        O      tau(  22) = (   0.1186468   0.1181077   1.7426368  )
        23        O      tau(  23) = (   0.1302304   0.6725321   1.7481513  )
        24        O      tau(  24) = (   0.4019428   0.5092918   1.7599288  )
        25        O      tau(  25) = (   0.1467744   0.0543371   1.4323260  )
        26        O      tau(  26) = (   0.3746526   0.9957152   1.4432161  )
        27        Ni     tau(  27) = (   0.2413539   0.8509941   1.1121345  )
        28        Mn     tau(  28) = (   0.4917018   0.7787406   0.7768134  )
        29        Ni     tau(  29) = (   0.0044877   0.2932623   1.1138982  )
        30        Ni     tau(  30) = (   0.2563139   0.2275682   0.7805625  )
        31        Ni     tau(  31) = (   0.4969120   1.0949007   0.9459116  )
        32        Ni     tau(  32) = (   0.2488318   0.5341111   0.9469721  )
        33        P      tau(  33) = (   0.2076029   0.9882917   0.7835381  )
        34        P      tau(  34) = (   0.4577012   0.6460068   1.1076436  )
        35        P      tau(  35) = (   0.2881931   0.0932770   1.1104179  )
        36        P      tau(  36) = (   0.0392916   0.4238898   0.7837243  )
        37        O      tau(  37) = (   0.1306755   0.9148866   0.9233554  )
        38        O      tau(  38) = (   0.3789780   0.7172835   0.9680652  )
        39        O      tau(  39) = (   0.3654852   0.1662865   0.9702638  )
        40        O      tau(  40) = (   0.1163776   0.3546954   0.9254186  )
        41        O      tau(  41) = (   0.1502901   0.8969129   0.6541592  )
        42        O      tau(  42) = (   0.3974525   0.7354243   1.2370031  )
        43        O      tau(  43) = (   0.3483097   0.1789497   1.2412670  )
        44        O      tau(  44) = (   0.0974932   0.3376387   0.6529083  )
        45        O      tau(  45) = (   0.0984699   0.5818903   0.7881021  )
        46        O      tau(  46) = (   0.3459978   1.0405493   1.1018526  )
        47        O      tau(  47) = (   0.3731719   0.4204123   0.7945555  )
        48        O      tau(  48) = (   0.1223503   0.0989699   1.1000566  )
        49        O      tau(  49) = (   0.1235438   0.6536772   1.0980598  )
        50        O      tau(  50) = (   0.4004339   0.4872435   1.1047245  )
        51        O      tau(  51) = (   0.1476543   0.0398268   0.7872561  )
        52        O      tau(  52) = (   0.3728637   0.9843360   0.7931368  )
        53        Ni     tau(  53) = (   0.2406075   0.8410745   0.4603118  )
        54        Mn     tau(  54) = (   0.4909555   0.7688210   0.1249907  )
        55        Ni     tau(  55) = (   0.0037414   0.2833427   0.4620755  )
        56        Ni     tau(  56) = (   0.2555676   0.2176485   0.1287398  )
        57        Ni     tau(  57) = (   0.4961657   1.0849810   0.2940889  )
        58        Ni     tau(  58) = (   0.2480854   0.5241915   0.2951494  )
        59        P      tau(  59) = (   0.2068565   0.9783721   0.1317154  )
        60        P      tau(  60) = (   0.4569549   0.6360871   0.4558210  )
        61        P      tau(  61) = (   0.2874467   0.0833574   0.4585952  )
        62        P      tau(  62) = (   0.0385452   0.4139702   0.1319017  )
        63        O      tau(  63) = (   0.1299291   0.9049669   0.2715327  )
        64        O      tau(  64) = (   0.3782317   0.7073639   0.3162425  )
        65        O      tau(  65) = (   0.3647389   0.1563669   0.3184411  )
        66        O      tau(  66) = (   0.1156313   0.3447757   0.2735959  )
        67        O      tau(  67) = (   0.1495437   0.8869933   0.0023366  )
        68        O      tau(  68) = (   0.3967062   0.7255047   0.5851804  )
        69        O      tau(  69) = (   0.3475634   0.1690300   0.5894443  )
        70        O      tau(  70) = (   0.0967469   0.3277190   0.0010856  )
        71        O      tau(  71) = (   0.0977236   0.5719706   0.1362794  )
        72        O      tau(  72) = (   0.3452514   1.0306297   0.4500300  )
        73        O      tau(  73) = (   0.3724256   0.4104926   0.1427328  )
        74        O      tau(  74) = (   0.1216040   0.0890503   0.4482339  )
        75        O      tau(  75) = (   0.1227974   0.6437575   0.4462371  )
        76        O      tau(  76) = (   0.3996875   0.4773239   0.4529018  )
        77        O      tau(  77) = (   0.1469079   0.0299071   0.1354334  )
        78        O      tau(  78) = (   0.3721173   0.9744163   0.1413141  )
        79        Ni     tau(  79) = (   0.7511442   0.8590986   1.7465183  )
        80        Mn     tau(  80) = (   0.9851786   0.7929476   1.4293410  )
        81        Ni     tau(  81) = (   0.5099060   0.3149023   1.7767454  )
        82        Ni     tau(  82) = (   0.7562539   0.2440975   1.4309243  )
        83        Ni     tau(  83) = (   0.9966662   1.1069876   1.5954472  )
        84        Ni     tau(  84) = (   0.7501035   0.5484652   1.6044081  )
        85        P      tau(  85) = (   0.7074250   1.0033585   1.4315958  )
        86        P      tau(  86) = (   0.9633441   0.6641721   1.7673712  )
        87        P      tau(  87) = (   0.7881158   0.1083139   1.7616461  )
        88        P      tau(  88) = (   0.5391541   0.4408841   1.4350599  )
        89        O      tau(  89) = (   0.6330814   0.9308437   1.5713498  )
        90        O      tau(  90) = (   0.8832988   0.7267971   1.6201843  )
        91        O      tau(  91) = (   0.8626660   0.1747425   1.6135060  )
        92        O      tau(  92) = (   0.6161594   0.3680366   1.5731814  )
        93        O      tau(  93) = (   0.6491944   0.9122217   1.3030297  )
        94        O      tau(  94) = (   0.9010897   0.7628351   1.8841046  )
        95        O      tau(  95) = (   0.8533634   0.2040969   1.8804377  )
        96        O      tau(  96) = (   0.5988697   0.3546669   1.3037880  )
        97        O      tau(  97) = (   0.5982753   0.5999241   1.4409412  )
        98        O      tau(  98) = (   0.8444194   1.0540898   1.7576604  )
        99        O      tau(  99) = (   0.8730497   0.4376093   1.4459304  )
       100        O      tau( 100) = (   0.6208336   0.1136689   1.7512496  )
       101        O      tau( 101) = (   0.6284804   0.6736478   1.7466144  )
       102        O      tau( 102) = (   0.9101301   0.5023464   1.7626648  )
       103        O      tau( 103) = (   0.6477665   0.0546849   1.4347078  )
       104        O      tau( 104) = (   0.8741629   0.9946264   1.4428581  )
       105        Ni     tau( 105) = (   0.7413539   0.8509941   1.1121345  )
       106        Mn     tau( 106) = (   0.9917018   0.7787406   0.7768134  )
       107        Ni     tau( 107) = (   0.5044877   0.2932623   1.1138982  )
       108        Ni     tau( 108) = (   0.7563139   0.2275682   0.7805625  )
       109        Ni     tau( 109) = (   0.9969120   1.0949007   0.9459116  )
       110        Ni     tau( 110) = (   0.7488318   0.5341111   0.9469721  )
       111        P      tau( 111) = (   0.7076029   0.9882917   0.7835381  )
       112        P      tau( 112) = (   0.9577012   0.6460068   1.1076436  )
       113        P      tau( 113) = (   0.7881931   0.0932770   1.1104179  )
       114        P      tau( 114) = (   0.5392916   0.4238898   0.7837243  )
       115        O      tau( 115) = (   0.6306755   0.9148866   0.9233554  )
       116        O      tau( 116) = (   0.8789780   0.7172835   0.9680652  )
       117        O      tau( 117) = (   0.8654852   0.1662865   0.9702638  )
       118        O      tau( 118) = (   0.6163776   0.3546954   0.9254186  )
       119        O      tau( 119) = (   0.6502901   0.8969129   0.6541592  )
       120        O      tau( 120) = (   0.8974525   0.7354243   1.2370031  )
       121        O      tau( 121) = (   0.8483097   0.1789497   1.2412670  )
       122        O      tau( 122) = (   0.5974932   0.3376387   0.6529083  )
       123        O      tau( 123) = (   0.5984699   0.5818903   0.7881021  )
       124        O      tau( 124) = (   0.8459978   1.0405493   1.1018526  )
       125        O      tau( 125) = (   0.8731719   0.4204123   0.7945555  )
       126        O      tau( 126) = (   0.6223503   0.0989699   1.1000566  )
       127        O      tau( 127) = (   0.6235438   0.6536772   1.0980598  )
       128        O      tau( 128) = (   0.9004339   0.4872435   1.1047245  )
       129        O      tau( 129) = (   0.6476543   0.0398268   0.7872561  )
       130        O      tau( 130) = (   0.8728637   0.9843360   0.7931368  )
       131        Ni     tau( 131) = (   0.7406075   0.8410745   0.4603118  )
       132        Mn     tau( 132) = (   0.9909555   0.7688210   0.1249907  )
       133        Ni     tau( 133) = (   0.5037414   0.2833427   0.4620755  )
       134        Ni     tau( 134) = (   0.7555676   0.2176485   0.1287398  )
       135        Ni     tau( 135) = (   0.9961657   1.0849810   0.2940889  )
       136        Ni     tau( 136) = (   0.7480854   0.5241915   0.2951494  )
       137        P      tau( 137) = (   0.7068565   0.9783721   0.1317154  )
       138        P      tau( 138) = (   0.9569549   0.6360871   0.4558210  )
       139        P      tau( 139) = (   0.7874467   0.0833574   0.4585952  )
       140        P      tau( 140) = (   0.5385452   0.4139702   0.1319017  )
       141        O      tau( 141) = (   0.6299291   0.9049669   0.2715327  )
       142        O      tau( 142) = (   0.8782317   0.7073639   0.3162425  )
       143        O      tau( 143) = (   0.8647389   0.1563669   0.3184411  )
       144        O      tau( 144) = (   0.6156313   0.3447757   0.2735959  )
       145        O      tau( 145) = (   0.6495437   0.8869933   0.0023366  )
       146        O      tau( 146) = (   0.8967062   0.7255047   0.5851804  )
       147        O      tau( 147) = (   0.8475634   0.1690300   0.5894443  )
       148        O      tau( 148) = (   0.5967469   0.3277190   0.0010856  )
       149        O      tau( 149) = (   0.5977236   0.5719706   0.1362794  )
       150        O      tau( 150) = (   0.8452514   1.0306297   0.4500300  )
       151        O      tau( 151) = (   0.8724256   0.4104926   0.1427328  )
       152        O      tau( 152) = (   0.6216040   0.0890503   0.4482339  )
       153        O      tau( 153) = (   0.6227974   0.6437575   0.4462371  )
       154        O      tau( 154) = (   0.8996875   0.4773239   0.4529018  )
       155        O      tau( 155) = (   0.6469079   0.0299071   0.1354334  )
       156        O      tau( 156) = (   0.8721173   0.9744163   0.1413141  )
       157        O      tau( 157) = (   0.6257083   0.3971071   1.9134588  )
       158        H      tau( 158) = (   0.7088529   0.3338928   1.9383129  )

     -------------------------------------------------
     Parameters for Dispersion (Grimme-D2) Correction:
     -------------------------------------------------
       atom      VdW radius       C_6     

        Ni         2.952        374.666
        Mn         2.952        374.666
        P          3.222        271.980
        O          2.536         24.284
        H          1.892          4.857

     number of k points=     1  Gaussian smearing, width (Ry)=  0.0100
                       cart. coord. in units 2pi/alat
        k(    1) = (   0.0000000   0.0000000   0.0000000), wk =   1.0000000

     Dense  grid:  1938023 G-vectors     FFT dimensions: ( 125, 144, 450)

     Smooth grid:   490328 G-vectors     FFT dimensions: (  80,  90, 288)

     Estimated max dynamical RAM per process >     326.29 MB

     Estimated total dynamical RAM >      20.39 GB

     Check: negative core charge=   -0.000001
     Generating pointlists ...
     new r_m :   0.0813 (alat units)  1.4154 (a.u.) for type    1
     new r_m :   0.0904 (alat units)  1.5731 (a.u.) for type    2
     new r_m :   0.0681 (alat units)  1.1850 (a.u.) for type    3
     new r_m :   0.0443 (alat units)  0.7709 (a.u.) for type    4
     new r_m :   0.0443 (alat units)  0.7709 (a.u.) for type    5

     Initial potential from superposition of free atoms

     starting charge    1092.8893, renormalised to    1093.0000

     negative rho (up, down):  1.396E-03 4.531E-04
 
     Adding external electric field

     Computed dipole along edir(3) : 
        Dipole                1.6559 Ry au,          4.2089 Debye
        Dipole field          0.0010 Ry au, 
 
        Potential amp.       -0.1118 Ry
        Total length         55.1515 bohr
 
 
     Adding external electric field

     Computed dipole along edir(3) : 
        Dipole                1.6559 Ry au,          4.2089 Debye
        Dipole field          0.0010 Ry au, 
 
        Potential amp.       -0.1118 Ry
        Total length         55.1515 bohr
 
     Starting wfcs are  815 randomized atomic wfcs

     total cpu time spent up to now is        9.3 secs

     Self-consistent Calculation

     iteration #  1     ecut=    50.00 Ry     beta= 0.10
     Davidson diagonalization with overlap
     ethr =  1.00E-02,  avg # of iterations =  6.0

     negative rho (up, down):  3.816E-01 1.430E-06
 
     Adding external electric field

     Computed dipole along edir(3) : 
        Dipole               -3.7568 Ry au,         -9.5487 Debye
        Dipole field         -0.0023 Ry au, 
 
        Potential amp.        0.2536 Ry
        Total length         55.1515 bohr
 
 
     Adding external electric field

     Computed dipole along edir(3) : 
        Dipole               -3.7568 Ry au,         -9.5487 Debye
        Dipole field         -0.0023 Ry au, 
 
        Potential amp.        0.2536 Ry
        Total length         55.1515 bohr
 

     total cpu time spent up to now is       31.6 secs

     total energy              =   -7517.44004807 Ry
     estimated scf accuracy    <     801.57854214 Ry

     total magnetization       =   219.00 Bohr mag/cell
     absolute magnetization    =   307.52 Bohr mag/cell

     iteration #  2     ecut=    50.00 Ry     beta= 0.10
     Davidson diagonalization with overlap
     ethr =  1.00E-02,  avg # of iterations =  2.0

     negative rho (up, down):  3.633E-01 9.577E-07
 
     Adding external electric field

     Computed dipole along edir(3) : 
        Dipole               -2.4809 Ry au,         -6.3058 Debye
        Dipole field         -0.0015 Ry au, 
 
        Potential amp.        0.1675 Ry
        Total length         55.1515 bohr
 
 
     Adding external electric field

     Computed dipole along edir(3) : 
        Dipole               -2.4809 Ry au,         -6.3058 Debye
        Dipole field         -0.0015 Ry au, 
 
        Potential amp.        0.1675 Ry
        Total length         55.1515 bohr
 

     total cpu time spent up to now is       44.7 secs

     total energy              =   -7600.16911961 Ry
     estimated scf accuracy    <     228.64003593 Ry

     total magnetization       =   160.04 Bohr mag/cell
     absolute magnetization    =   208.36 Bohr mag/cell

     iteration #  3     ecut=    50.00 Ry     beta= 0.10
     Davidson diagonalization with overlap
     ethr =  1.00E-02,  avg # of iterations =  1.5

     negative rho (up, down):  3.256E-01 9.919E-07
 
     Adding external electric field

     Computed dipole along edir(3) : 
        Dipole               -2.1609 Ry au,         -5.4925 Debye
        Dipole field         -0.0013 Ry au, 
 
        Potential amp.        0.1459 Ry
        Total length         55.1515 bohr
 
 
     Adding external electric field

     Computed dipole along edir(3) : 
        Dipole               -2.1609 Ry au,         -5.4925 Debye
        Dipole field         -0.0013 Ry au, 
 
        Potential amp.        0.1459 Ry
        Total length         55.1515 bohr
 

     total cpu time spent up to now is       55.0 secs

     total energy              =   -7629.01451644 Ry
     estimated scf accuracy    <     103.29496437 Ry

     total magnetization       =   135.99 Bohr mag/cell
     absolute magnetization    =   186.56 Bohr mag/cell

     iteration #  4     ecut=    50.00 Ry     beta= 0.10
     Davidson diagonalization with overlap
     ethr =  9.45E-03,  avg # of iterations =  1.5

     negative rho (up, down):  2.561E-01 3.724E-07
 
     Adding external electric field

     Computed dipole along edir(3) : 
        Dipole               -1.9743 Ry au,         -5.0181 Debye
        Dipole field         -0.0012 Ry au, 
 
        Potential amp.        0.1333 Ry
        Total length         55.1515 bohr
 
 
     Adding external electric field

     Computed dipole along edir(3) : 
        Dipole               -1.9743 Ry au,         -5.0181 Debye
        Dipole field         -0.0012 Ry au, 
 
        Potential amp.        0.1333 Ry
        Total length         55.1515 bohr
 

     total cpu time spent up to now is       65.6 secs

     total energy              =   -7662.02533292 Ry
     estimated scf accuracy    <      83.28206787 Ry

     total magnetization       =   120.42 Bohr mag/cell
     absolute magnetization    =   172.37 Bohr mag/cell

     iteration #  5     ecut=    50.00 Ry     beta= 0.10
     Davidson diagonalization with overlap
     ethr =  7.62E-03,  avg # of iterations =  1.0

     negative rho (up, down):  4.187E-02 2.131E-07
 
     Adding external electric field

     Computed dipole along edir(3) : 
        Dipole               -1.5513 Ry au,         -3.9431 Debye
        Dipole field         -0.0009 Ry au, 
 
        Potential amp.        0.1047 Ry
        Total length         55.1515 bohr
 
 
     Adding external electric field

     Computed dipole along edir(3) : 
        Dipole               -1.5513 Ry au,         -3.9431 Debye
        Dipole field         -0.0009 Ry au, 
 
        Potential amp.        0.1047 Ry
        Total length         55.1515 bohr
 

     total cpu time spent up to now is       75.2 secs

     total energy              =   -7721.08050534 Ry
     estimated scf accuracy    <      66.66382836 Ry

     total magnetization       =    97.64 Bohr mag/cell
     absolute magnetization    =   153.38 Bohr mag/cell

     iteration #  6     ecut=    50.00 Ry     beta= 0.10
     Davidson diagonalization with overlap
     ethr =  6.10E-03,  avg # of iterations =  1.0

     negative rho (up, down):  9.526E-04 1.565E-03
 
     Adding external electric field

     Computed dipole along edir(3) : 
        Dipole               -1.1766 Ry au,         -2.9907 Debye
        Dipole field         -0.0007 Ry au, 
 
        Potential amp.        0.0794 Ry
        Total length         55.1515 bohr
 
 
     Adding external electric field

     Computed dipole along edir(3) : 
        Dipole               -1.1766 Ry au,         -2.9907 Debye
        Dipole field         -0.0007 Ry au, 
 
        Potential amp.        0.0794 Ry
        Total length         55.1515 bohr
 

     total cpu time spent up to now is       84.9 secs

     total energy              =   -7735.72082584 Ry
     estimated scf accuracy    <      16.07378006 Ry

     total magnetization       =    91.00 Bohr mag/cell
     absolute magnetization    =   126.45 Bohr mag/cell

     iteration #  7     ecut=    50.00 Ry     beta= 0.10
     Davidson diagonalization with overlap
     ethr =  1.47E-03,  avg # of iterations =  6.0

     negative rho (up, down):  9.220E-04 1.532E-03
 
     Adding external electric field

     Computed dipole along edir(3) : 
        Dipole               -1.1849 Ry au,         -3.0117 Debye
        Dipole field         -0.0007 Ry au, 
 
        Potential amp.        0.0800 Ry
        Total length         55.1515 bohr
 
 
     Adding external electric field

     Computed dipole along edir(3) : 
        Dipole               -1.1849 Ry au,         -3.0117 Debye
        Dipole field         -0.0007 Ry au, 
 
        Potential amp.        0.0800 Ry
        Total length         55.1515 bohr
 

     total cpu time spent up to now is      101.9 secs

     total energy              =   -7738.25461663 Ry
     estimated scf accuracy    <      19.80550728 Ry

     total magnetization       =    70.65 Bohr mag/cell
     absolute magnetization    =    87.90 Bohr mag/cell

     iteration #  8     ecut=    50.00 Ry     beta= 0.10
     Davidson diagonalization with overlap
     ethr =  1.47E-03,  avg # of iterations =  1.0

     negative rho (up, down):  9.272E-04 1.529E-03
 
     Adding external electric field

     Computed dipole along edir(3) : 
        Dipole               -1.1829 Ry au,         -3.0066 Debye
        Dipole field         -0.0007 Ry au, 
 
        Potential amp.        0.0799 Ry
        Total length         55.1515 bohr
 
 
     Adding external electric field

     Computed dipole along edir(3) : 
        Dipole               -1.1829 Ry au,         -3.0066 Debye
        Dipole field         -0.0007 Ry au, 
 
        Potential amp.        0.0799 Ry
        Total length         55.1515 bohr
 

     total cpu time spent up to now is      111.6 secs

     total energy              =   -7738.32087233 Ry
     estimated scf accuracy    <      19.34711261 Ry

     total magnetization       =    70.81 Bohr mag/cell
     absolute magnetization    =    87.60 Bohr mag/cell

     iteration #  9     ecut=    50.00 Ry     beta= 0.10
     Davidson diagonalization with overlap
     ethr =  1.47E-03,  avg # of iterations =  1.0

     negative rho (up, down):  7.717E-04 1.325E-03
 
     Adding external electric field

     Computed dipole along edir(3) : 
        Dipole               -1.2546 Ry au,         -3.1888 Debye
        Dipole field         -0.0008 Ry au, 
 
        Potential amp.        0.0847 Ry
        Total length         55.1515 bohr
 
 
     Adding external electric field

     Computed dipole along edir(3) : 
        Dipole               -1.2546 Ry au,         -3.1888 Debye
        Dipole field         -0.0008 Ry au, 
 
        Potential amp.        0.0847 Ry
        Total length         55.1515 bohr
 

     total cpu time spent up to now is      121.3 secs

     total energy              =   -7738.19469167 Ry
     estimated scf accuracy    <      19.42892341 Ry

     total magnetization       =    70.79 Bohr mag/cell
     absolute magnetization    =    87.29 Bohr mag/cell

     iteration # 10     ecut=    50.00 Ry     beta= 0.10
     Davidson diagonalization with overlap
     ethr =  1.47E-03,  avg # of iterations =  1.0

     negative rho (up, down):  5.125E-03 7.939E-03
 
     Adding external electric field

     Computed dipole along edir(3) : 
        Dipole               -1.6601 Ry au,         -4.2196 Debye
        Dipole field         -0.0010 Ry au, 
 
        Potential amp.        0.1121 Ry
        Total length         55.1515 bohr
 
 
     Adding external electric field

     Computed dipole along edir(3) : 
        Dipole               -1.6601 Ry au,         -4.2196 Debye
        Dipole field         -0.0010 Ry au, 
 
        Potential amp.        0.1121 Ry
        Total length         55.1515 bohr
 

     total cpu time spent up to now is      130.4 secs

     total energy              =   -7737.53444823 Ry
     estimated scf accuracy    <      17.75809532 Ry

     total magnetization       =    71.00 Bohr mag/cell
     absolute magnetization    =    86.85 Bohr mag/cell

     iteration # 11     ecut=    50.00 Ry     beta= 0.10
     Davidson diagonalization with overlap
     ethr =  1.47E-03,  avg # of iterations =  1.5

     negative rho (up, down):  7.274E-03 1.076E-02
 
     Adding external electric field

     Computed dipole along edir(3) : 
        Dipole               -1.7013 Ry au,         -4.3244 Debye
        Dipole field         -0.0010 Ry au, 
 
        Potential amp.        0.1149 Ry
        Total length         55.1515 bohr
 
 
     Adding external electric field

     Computed dipole along edir(3) : 
        Dipole               -1.7013 Ry au,         -4.3244 Debye
        Dipole field         -0.0010 Ry au, 
 
        Potential amp.        0.1149 Ry
        Total length         55.1515 bohr
 

     total cpu time spent up to now is      140.0 secs

     total energy              =   -7737.83416779 Ry
     estimated scf accuracy    <       4.33394784 Ry

     total magnetization       =    83.85 Bohr mag/cell
     absolute magnetization    =    95.89 Bohr mag/cell

     iteration # 12     ecut=    50.00 Ry     beta= 0.10
     Davidson diagonalization with overlap
     ethr =  3.97E-04,  avg # of iterations =  2.0

     negative rho (up, down):  6.344E-03 9.560E-03
 
     Adding external electric field

     Computed dipole along edir(3) : 
        Dipole               -1.6543 Ry au,         -4.2049 Debye
        Dipole field         -0.0010 Ry au, 
 
        Potential amp.        0.1117 Ry
        Total length         55.1515 bohr
 
 
     Adding external electric field

     Computed dipole along edir(3) : 
        Dipole               -1.6543 Ry au,         -4.2049 Debye
        Dipole field         -0.0010 Ry au, 
 
        Potential amp.        0.1117 Ry
        Total length         55.1515 bohr
 

     total cpu time spent up to now is      150.0 secs

     total energy              =   -7737.87146557 Ry
     estimated scf accuracy    <       2.79603814 Ry

     total magnetization       =    85.56 Bohr mag/cell
     absolute magnetization    =    96.84 Bohr mag/cell

     iteration # 13     ecut=    50.00 Ry     beta= 0.10
     Davidson diagonalization with overlap
     ethr =  2.56E-04,  avg # of iterations =  3.0

     negative rho (up, down):  4.980E-03 8.414E-03
 
     Adding external electric field

     Computed dipole along edir(3) : 
        Dipole               -1.5942 Ry au,         -4.0519 Debye
        Dipole field         -0.0010 Ry au, 
 
        Potential amp.        0.1076 Ry
        Total length         55.1515 bohr
 
 
     Adding external electric field

     Computed dipole along edir(3) : 
        Dipole               -1.5942 Ry au,         -4.0519 Debye
        Dipole field         -0.0010 Ry au, 
 
        Potential amp.        0.1076 Ry
        Total length         55.1515 bohr
 

     total cpu time spent up to now is      160.0 secs

     total energy              =   -7737.93735901 Ry
     estimated scf accuracy    <       1.19988296 Ry

     total magnetization       =    87.10 Bohr mag/cell
     absolute magnetization    =    97.51 Bohr mag/cell

     iteration # 14     ecut=    50.00 Ry     beta= 0.10
     Davidson diagonalization with overlap
     ethr =  1.10E-04,  avg # of iterations = 11.0

     negative rho (up, down):  2.479E-03 5.247E-03
 
     Adding external electric field

     Computed dipole along edir(3) : 
        Dipole               -1.5072 Ry au,         -3.8309 Debye
        Dipole field         -0.0009 Ry au, 
 
        Potential amp.        0.1018 Ry
        Total length         55.1515 bohr
 
 
     Adding external electric field

     Computed dipole along edir(3) : 
        Dipole               -1.5072 Ry au,         -3.8309 Debye
        Dipole field         -0.0009 Ry au, 
 
        Potential amp.        0.1018 Ry
        Total length         55.1515 bohr
 

     total cpu time spent up to now is      176.2 secs

     total energy              =   -7737.99777368 Ry
     estimated scf accuracy    <       0.64221749 Ry

     total magnetization       =    88.72 Bohr mag/cell
     absolute magnetization    =    97.65 Bohr mag/cell

     iteration # 15     ecut=    50.00 Ry     beta= 0.10
     Davidson diagonalization with overlap
     ethr =  5.88E-05,  avg # of iterations =  1.5

     negative rho (up, down):  6.171E-04 2.358E-03
 
     Adding external electric field

     Computed dipole along edir(3) : 
        Dipole               -1.3523 Ry au,         -3.4372 Debye
        Dipole field         -0.0008 Ry au, 
 
        Potential amp.        0.0913 Ry
        Total length         55.1515 bohr
 
 
     Adding external electric field

     Computed dipole along edir(3) : 
        Dipole               -1.3523 Ry au,         -3.4372 Debye
        Dipole field         -0.0008 Ry au, 
 
        Potential amp.        0.0913 Ry
        Total length         55.1515 bohr
 

     total cpu time spent up to now is      185.9 secs

     total energy              =   -7738.11006918 Ry
     estimated scf accuracy    <       0.51994511 Ry

     total magnetization       =    87.43 Bohr mag/cell
     absolute magnetization    =    95.57 Bohr mag/cell

     iteration # 16     ecut=    50.00 Ry     beta= 0.10
     Davidson diagonalization with overlap
     ethr =  4.76E-05,  avg # of iterations =  2.5

     negative rho (up, down):  6.101E-04 2.448E-03
 
     Adding external electric field

     Computed dipole along edir(3) : 
        Dipole               -1.3360 Ry au,         -3.3959 Debye
        Dipole field         -0.0008 Ry au, 
 
        Potential amp.        0.0902 Ry
        Total length         55.1515 bohr
 
 
     Adding external electric field

     Computed dipole along edir(3) : 
        Dipole               -1.3360 Ry au,         -3.3959 Debye
        Dipole field         -0.0008 Ry au, 
 
        Potential amp.        0.0902 Ry
        Total length         55.1515 bohr
 

     total cpu time spent up to now is      195.7 secs

     total energy              =   -7738.14804824 Ry
     estimated scf accuracy    <       0.55208023 Ry

     total magnetization       =    86.34 Bohr mag/cell
     absolute magnetization    =    92.35 Bohr mag/cell

     iteration # 17     ecut=    50.00 Ry     beta= 0.10
     Davidson diagonalization with overlap
     ethr =  4.76E-05,  avg # of iterations =  1.0

     negative rho (up, down):  1.432E-04 1.037E-03
 
     Adding external electric field

     Computed dipole along edir(3) : 
        Dipole               -1.0745 Ry au,         -2.7310 Debye
        Dipole field         -0.0007 Ry au, 
 
        Potential amp.        0.0725 Ry
        Total length         55.1515 bohr
 
 
     Adding external electric field

     Computed dipole along edir(3) : 
        Dipole               -1.0745 Ry au,         -2.7310 Debye
        Dipole field         -0.0007 Ry au, 
 
        Potential amp.        0.0725 Ry
        Total length         55.1515 bohr
 

     total cpu time spent up to now is      204.8 secs

     total energy              =   -7738.24902462 Ry
     estimated scf accuracy    <       0.43813466 Ry

     total magnetization       =    86.72 Bohr mag/cell
     absolute magnetization    =    92.23 Bohr mag/cell

     iteration # 18     ecut=    50.00 Ry     beta= 0.10
     Davidson diagonalization with overlap
     ethr =  4.01E-05,  avg # of iterations =  2.0

     negative rho (up, down):  2.254E-04 1.025E-03
 
     Adding external electric field

     Computed dipole along edir(3) : 
        Dipole               -1.0070 Ry au,         -2.5594 Debye
        Dipole field         -0.0006 Ry au, 
 
        Potential amp.        0.0680 Ry
        Total length         55.1515 bohr
 
 
     Adding external electric field

     Computed dipole along edir(3) : 
        Dipole               -1.0070 Ry au,         -2.5594 Debye
        Dipole field         -0.0006 Ry au, 
 
        Potential amp.        0.0680 Ry
        Total length         55.1515 bohr
 

     total cpu time spent up to now is      215.6 secs

     total energy              =   -7738.29732660 Ry
     estimated scf accuracy    <       0.45068121 Ry

     total magnetization       =    86.52 Bohr mag/cell
     absolute magnetization    =    89.17 Bohr mag/cell

     iteration # 19     ecut=    50.00 Ry     beta= 0.10
     Davidson diagonalization with overlap
     ethr =  4.01E-05,  avg # of iterations =  1.0

     negative rho (up, down):  2.185E-04 6.557E-04
 
     Adding external electric field

     Computed dipole along edir(3) : 
        Dipole               -0.9271 Ry au,         -2.3564 Debye
        Dipole field         -0.0006 Ry au, 
 
        Potential amp.        0.0626 Ry
        Total length         55.1515 bohr
 
 
     Adding external electric field

     Computed dipole along edir(3) : 
        Dipole               -0.9271 Ry au,         -2.3564 Debye
        Dipole field         -0.0006 Ry au, 
 
        Potential amp.        0.0626 Ry
        Total length         55.1515 bohr
 

     total cpu time spent up to now is      224.7 secs

     total energy              =   -7738.31517619 Ry
     estimated scf accuracy    <       0.36499290 Ry

     total magnetization       =    87.13 Bohr mag/cell
     absolute magnetization    =    89.10 Bohr mag/cell

     iteration # 20     ecut=    50.00 Ry     beta= 0.10
     Davidson diagonalization with overlap
     ethr =  3.34E-05,  avg # of iterations =  1.5

     negative rho (up, down):  4.365E-04 4.901E-04
 
     Adding external electric field

     Computed dipole along edir(3) : 
        Dipole               -0.8401 Ry au,         -2.1352 Debye
        Dipole field         -0.0005 Ry au, 
 
        Potential amp.        0.0567 Ry
        Total length         55.1515 bohr
 
 
     Adding external electric field

     Computed dipole along edir(3) : 
        Dipole               -0.8401 Ry au,         -2.1352 Debye
        Dipole field         -0.0005 Ry au, 
 
        Potential amp.        0.0567 Ry
        Total length         55.1515 bohr
 

     total cpu time spent up to now is      234.3 secs

     total energy              =   -7738.32552626 Ry
     estimated scf accuracy    <       0.42174785 Ry

     total magnetization       =    87.26 Bohr mag/cell
     absolute magnetization    =    88.95 Bohr mag/cell

     iteration # 21     ecut=    50.00 Ry     beta= 0.10
     Davidson diagonalization with overlap
     ethr =  3.34E-05,  avg # of iterations =  1.5

     negative rho (up, down):  8.305E-04 6.125E-04
 
     Adding external electric field

     Computed dipole along edir(3) : 
        Dipole               -0.7724 Ry au,         -1.9633 Debye
        Dipole field         -0.0005 Ry au, 
 
        Potential amp.        0.0522 Ry
        Total length         55.1515 bohr
 
 
     Adding external electric field

     Computed dipole along edir(3) : 
        Dipole               -0.7724 Ry au,         -1.9633 Debye
        Dipole field         -0.0005 Ry au, 
 
        Potential amp.        0.0522 Ry
        Total length         55.1515 bohr
 

     total cpu time spent up to now is      243.5 secs

     total energy              =   -7738.32506075 Ry
     estimated scf accuracy    <       0.32776218 Ry

     total magnetization       =    87.79 Bohr mag/cell
     absolute magnetization    =    89.37 Bohr mag/cell

     iteration # 22     ecut=    50.00 Ry     beta= 0.10
     Davidson diagonalization with overlap
     ethr =  3.00E-05,  avg # of iterations =  2.0

     negative rho (up, down):  6.940E-04 5.053E-04
 
     Adding external electric field

     Computed dipole along edir(3) : 
        Dipole               -0.6962 Ry au,         -1.7695 Debye
        Dipole field         -0.0004 Ry au, 
 
        Potential amp.        0.0470 Ry
        Total length         55.1515 bohr
 
 
     Adding external electric field

     Computed dipole along edir(3) : 
        Dipole               -0.6962 Ry au,         -1.7695 Debye
        Dipole field         -0.0004 Ry au, 
 
        Potential amp.        0.0470 Ry
        Total length         55.1515 bohr
 

     total cpu time spent up to now is      253.3 secs

     total energy              =   -7738.32584891 Ry
     estimated scf accuracy    <       0.26959513 Ry

     total magnetization       =    88.23 Bohr mag/cell
     absolute magnetization    =    89.72 Bohr mag/cell

     iteration # 23     ecut=    50.00 Ry     beta= 0.10
     Davidson diagonalization with overlap
     ethr =  2.47E-05,  avg # of iterations =  2.0

     negative rho (up, down):  8.092E-04 7.761E-04
 
     Adding external electric field

     Computed dipole along edir(3) : 
        Dipole               -0.8726 Ry au,         -2.2179 Debye
        Dipole field         -0.0005 Ry au, 
 
        Potential amp.        0.0589 Ry
        Total length         55.1515 bohr
 
 
     Adding external electric field

     Computed dipole along edir(3) : 
        Dipole               -0.8726 Ry au,         -2.2179 Debye
        Dipole field         -0.0005 Ry au, 
 
        Potential amp.        0.0589 Ry
        Total length         55.1515 bohr
 

     total cpu time spent up to now is      263.7 secs

     total energy              =   -7738.32261602 Ry
     estimated scf accuracy    <       0.51808604 Ry

     total magnetization       =    87.60 Bohr mag/cell
     absolute magnetization    =    89.09 Bohr mag/cell

     iteration # 24     ecut=    50.00 Ry     beta= 0.10
     Davidson diagonalization with overlap
     ethr =  2.47E-05,  avg # of iterations = 10.0

     negative rho (up, down):  1.058E-03 1.096E-03
 
     Adding external electric field

     Computed dipole along edir(3) : 
        Dipole               -0.9313 Ry au,         -2.3671 Debye
        Dipole field         -0.0006 Ry au, 
 
        Potential amp.        0.0629 Ry
        Total length         55.1515 bohr
 
 
     Adding external electric field

     Computed dipole along edir(3) : 
        Dipole               -0.9313 Ry au,         -2.3671 Debye
        Dipole field         -0.0006 Ry au, 
 
        Potential amp.        0.0629 Ry
        Total length         55.1515 bohr
 

     total cpu time spent up to now is      277.2 secs

     total energy              =   -7738.32314229 Ry
     estimated scf accuracy    <       0.16695737 Ry

     total magnetization       =    88.52 Bohr mag/cell
     absolute magnetization    =    90.13 Bohr mag/cell

     iteration # 25     ecut=    50.00 Ry     beta= 0.10
     Davidson diagonalization with overlap
     ethr =  1.53E-05,  avg # of iterations = 12.0

     negative rho (up, down):  8.370E-04 7.161E-04
 
     Adding external electric field

     Computed dipole along edir(3) : 
        Dipole               -0.9908 Ry au,         -2.5184 Debye
        Dipole field         -0.0006 Ry au, 
 
        Potential amp.        0.0669 Ry
        Total length         55.1515 bohr
 
 
     Adding external electric field

     Computed dipole along edir(3) : 
        Dipole               -0.9908 Ry au,         -2.5184 Debye
        Dipole field         -0.0006 Ry au, 
 
        Potential amp.        0.0669 Ry
        Total length         55.1515 bohr
 

     total cpu time spent up to now is      294.8 secs

     total energy              =   -7738.32393611 Ry
     estimated scf accuracy    <       0.12651363 Ry

     total magnetization       =    88.74 Bohr mag/cell
     absolute magnetization    =    90.42 Bohr mag/cell

     iteration # 26     ecut=    50.00 Ry     beta= 0.10
     Davidson diagonalization with overlap
     ethr =  1.16E-05,  avg # of iterations =  3.0

     negative rho (up, down):  1.482E-03 1.271E-03
 
     Adding external electric field

     Computed dipole along edir(3) : 
        Dipole               -0.8518 Ry au,         -2.1652 Debye
        Dipole field         -0.0005 Ry au, 
 
        Potential amp.        0.0575 Ry
        Total length         55.1515 bohr
 
 
     Adding external electric field

     Computed dipole along edir(3) : 
        Dipole               -0.8518 Ry au,         -2.1652 Debye
        Dipole field         -0.0005 Ry au, 
 
        Potential amp.        0.0575 Ry
        Total length         55.1515 bohr
 

     total cpu time spent up to now is      305.3 secs

     total energy              =   -7738.32201763 Ry
     estimated scf accuracy    <       0.13640187 Ry

     total magnetization       =    88.95 Bohr mag/cell
     absolute magnetization    =    90.67 Bohr mag/cell

     iteration # 27     ecut=    50.00 Ry     beta= 0.10
     Davidson diagonalization with overlap
     ethr =  1.16E-05,  avg # of iterations =  2.0

     negative rho (up, down):  5.806E-03 5.687E-03
 
     Adding external electric field

     Computed dipole along edir(3) : 
        Dipole               -0.5911 Ry au,         -1.5024 Debye
        Dipole field         -0.0004 Ry au, 
 
        Potential amp.        0.0399 Ry
        Total length         55.1515 bohr
 
 
     Adding external electric field

     Computed dipole along edir(3) : 
        Dipole               -0.5911 Ry au,         -1.5024 Debye
        Dipole field         -0.0004 Ry au, 
 
        Potential amp.        0.0399 Ry
        Total length         55.1515 bohr
 

     total cpu time spent up to now is      315.5 secs

     total energy              =   -7738.31830036 Ry
     estimated scf accuracy    <       0.11560934 Ry

     total magnetization       =    88.88 Bohr mag/cell
     absolute magnetization    =    90.63 Bohr mag/cell

     iteration # 28     ecut=    50.00 Ry     beta= 0.10
     Davidson diagonalization with overlap
     c_bands:  5 eigenvalues not converged
     ethr =  1.06E-05,  avg # of iterations = 11.0

     negative rho (up, down):  5.905E-03 5.781E-03
 
     Adding external electric field

     Computed dipole along edir(3) : 
        Dipole               -0.5865 Ry au,         -1.4908 Debye
        Dipole field         -0.0004 Ry au, 
 
        Potential amp.        0.0396 Ry
        Total length         55.1515 bohr
 
 
     Adding external electric field

     Computed dipole along edir(3) : 
        Dipole               -0.5865 Ry au,         -1.4908 Debye
        Dipole field         -0.0004 Ry au, 
 
        Potential amp.        0.0396 Ry
        Total length         55.1515 bohr
 

     total cpu time spent up to now is      329.5 secs

     total energy              =   -7738.32051597 Ry
     estimated scf accuracy    <       0.11733207 Ry

     total magnetization       =    88.59 Bohr mag/cell
     absolute magnetization    =    90.45 Bohr mag/cell

     iteration # 29     ecut=    50.00 Ry     beta= 0.10
     Davidson diagonalization with overlap
     ethr =  1.06E-05,  avg # of iterations =  9.5

     negative rho (up, down):  7.237E-03 6.814E-03
 
     Adding external electric field

     Computed dipole along edir(3) : 
        Dipole               -0.5208 Ry au,         -1.3237 Debye
        Dipole field         -0.0003 Ry au, 
 
        Potential amp.        0.0352 Ry
        Total length         55.1515 bohr
 
 
     Adding external electric field

     Computed dipole along edir(3) : 
        Dipole               -0.5208 Ry au,         -1.3237 Debye
        Dipole field         -0.0003 Ry au, 
 
        Potential amp.        0.0352 Ry
        Total length         55.1515 bohr
 

     total cpu time spent up to now is      342.5 secs

     total energy              =   -7738.31781468 Ry
     estimated scf accuracy    <       0.11122362 Ry

     total magnetization       =    88.62 Bohr mag/cell
     absolute magnetization    =    90.47 Bohr mag/cell

     iteration # 30     ecut=    50.00 Ry     beta= 0.10
     Davidson diagonalization with overlap
     ethr =  1.02E-05,  avg # of iterations =  3.5

     negative rho (up, down):  1.564E-02 1.445E-02
 
     Adding external electric field

     Computed dipole along edir(3) : 
        Dipole               -0.2531 Ry au,         -0.6433 Debye
        Dipole field         -0.0002 Ry au, 
 
        Potential amp.        0.0171 Ry
        Total length         55.1515 bohr
 
 
     Adding external electric field

     Computed dipole along edir(3) : 
        Dipole               -0.2531 Ry au,         -0.6433 Debye
        Dipole field         -0.0002 Ry au, 
 
        Potential amp.        0.0171 Ry
        Total length         55.1515 bohr
 

     total cpu time spent up to now is      353.7 secs

     total energy              =   -7738.31287166 Ry
     estimated scf accuracy    <       0.07695325 Ry

     total magnetization       =    88.76 Bohr mag/cell
     absolute magnetization    =    90.59 Bohr mag/cell

     iteration # 31     ecut=    50.00 Ry     beta= 0.10
     Davidson diagonalization with overlap
     c_bands:  2 eigenvalues not converged
     ethr =  7.04E-06,  avg # of iterations = 11.0

     negative rho (up, down):  9.986E-03 9.756E-03
 
     Adding external electric field

     Computed dipole along edir(3) : 
        Dipole               -0.2678 Ry au,         -0.6808 Debye
        Dipole field         -0.0002 Ry au, 
 
        Potential amp.        0.0181 Ry
        Total length         55.1515 bohr
 
 
     Adding external electric field

     Computed dipole along edir(3) : 
        Dipole               -0.2678 Ry au,         -0.6808 Debye
        Dipole field         -0.0002 Ry au, 
 
        Potential amp.        0.0181 Ry
        Total length         55.1515 bohr
 

     total cpu time spent up to now is      369.0 secs

     total energy              =   -7738.31009460 Ry
     estimated scf accuracy    <       0.03998650 Ry

     total magnetization       =    88.78 Bohr mag/cell
     absolute magnetization    =    90.62 Bohr mag/cell

     iteration # 32     ecut=    50.00 Ry     beta= 0.10
     Davidson diagonalization with overlap
     c_bands:  1 eigenvalues not converged
     ethr =  3.66E-06,  avg # of iterations = 12.0

     negative rho (up, down):  1.048E-02 1.084E-02
 
     Adding external electric field

     Computed dipole along edir(3) : 
        Dipole               -0.2293 Ry au,         -0.5829 Debye
        Dipole field         -0.0001 Ry au, 
 
        Potential amp.        0.0155 Ry
        Total length         55.1515 bohr
 
 
     Adding external electric field

     Computed dipole along edir(3) : 
        Dipole               -0.2293 Ry au,         -0.5829 Debye
        Dipole field         -0.0001 Ry au, 
 
        Potential amp.        0.0155 Ry
        Total length         55.1515 bohr
 

     total cpu time spent up to now is      383.5 secs

     total energy              =   -7738.31104262 Ry
     estimated scf accuracy    <       0.02702972 Ry

     total magnetization       =    88.56 Bohr mag/cell
     absolute magnetization    =    90.49 Bohr mag/cell

     iteration # 33     ecut=    50.00 Ry     beta= 0.10
     Davidson diagonalization with overlap
     ethr =  2.47E-06,  avg # of iterations =  2.0

     negative rho (up, down):  7.120E-03 7.782E-03
 
     Adding external electric field

     Computed dipole along edir(3) : 
        Dipole               -0.2660 Ry au,         -0.6761 Debye
        Dipole field         -0.0002 Ry au, 
 
        Potential amp.        0.0180 Ry
        Total length         55.1515 bohr
 
 
     Adding external electric field

     Computed dipole along edir(3) : 
        Dipole               -0.2660 Ry au,         -0.6761 Debye
        Dipole field         -0.0002 Ry au, 
 
        Potential amp.        0.0180 Ry
        Total length         55.1515 bohr
 

     total cpu time spent up to now is      393.8 secs

     total energy              =   -7738.31158165 Ry
     estimated scf accuracy    <       0.01322163 Ry

     total magnetization       =    88.57 Bohr mag/cell
     absolute magnetization    =    90.50 Bohr mag/cell

     iteration # 34     ecut=    50.00 Ry     beta= 0.10
     Davidson diagonalization with overlap
     ethr =  1.21E-06,  avg # of iterations =  2.0

     negative rho (up, down):  3.331E-03 3.735E-03
 
     Adding external electric field

     Computed dipole along edir(3) : 
        Dipole               -0.3074 Ry au,         -0.7814 Debye
        Dipole field         -0.0002 Ry au, 
 
        Potential amp.        0.0208 Ry
        Total length         55.1515 bohr
 
 
     Adding external electric field

     Computed dipole along edir(3) : 
        Dipole               -0.3074 Ry au,         -0.7814 Debye
        Dipole field         -0.0002 Ry au, 
 
        Potential amp.        0.0208 Ry
        Total length         55.1515 bohr
 

     total cpu time spent up to now is      403.8 secs

     total energy              =   -7738.31325058 Ry
     estimated scf accuracy    <       0.00763233 Ry

     total magnetization       =    88.60 Bohr mag/cell
     absolute magnetization    =    90.47 Bohr mag/cell

     iteration # 35     ecut=    50.00 Ry     beta= 0.10
     Davidson diagonalization with overlap
     c_bands:  1 eigenvalues not converged
     ethr =  6.98E-07,  avg # of iterations = 11.0

     negative rho (up, down):  1.163E-03 1.182E-03
 
     Adding external electric field

     Computed dipole along edir(3) : 
        Dipole               -0.3548 Ry au,         -0.9018 Debye
        Dipole field         -0.0002 Ry au, 
 
        Potential amp.        0.0240 Ry
        Total length         55.1515 bohr
 
 
     Adding external electric field

     Computed dipole along edir(3) : 
        Dipole               -0.3548 Ry au,         -0.9018 Debye
        Dipole field         -0.0002 Ry au, 
 
        Potential amp.        0.0240 Ry
        Total length         55.1515 bohr
 

     total cpu time spent up to now is      418.0 secs

     total energy              =   -7738.31492963 Ry
     estimated scf accuracy    <       0.00447562 Ry

     total magnetization       =    88.66 Bohr mag/cell
     absolute magnetization    =    90.43 Bohr mag/cell

     iteration # 36     ecut=    50.00 Ry     beta= 0.10
     Davidson diagonalization with overlap
     c_bands:  2 eigenvalues not converged
     ethr =  4.09E-07,  avg # of iterations = 11.0

     negative rho (up, down):  5.817E-04 5.410E-04
 
     Adding external electric field

     Computed dipole along edir(3) : 
        Dipole               -0.3754 Ry au,         -0.9541 Debye
        Dipole field         -0.0002 Ry au, 
 
        Potential amp.        0.0253 Ry
        Total length         55.1515 bohr
 
 
     Adding external electric field

     Computed dipole along edir(3) : 
        Dipole               -0.3754 Ry au,         -0.9541 Debye
        Dipole field         -0.0002 Ry au, 
 
        Potential amp.        0.0253 Ry
        Total length         55.1515 bohr
 

     total cpu time spent up to now is      432.6 secs

     total energy              =   -7738.31577486 Ry
     estimated scf accuracy    <       0.00273693 Ry

     total magnetization       =    88.71 Bohr mag/cell
     absolute magnetization    =    90.37 Bohr mag/cell

     iteration # 37     ecut=    50.00 Ry     beta= 0.10
     Davidson diagonalization with overlap
     ethr =  2.50E-07,  avg # of iterations =  3.0

     negative rho (up, down):  3.091E-04 2.628E-04
 
     Adding external electric field

     Computed dipole along edir(3) : 
        Dipole               -0.3769 Ry au,         -0.9579 Debye
        Dipole field         -0.0002 Ry au, 
 
        Potential amp.        0.0254 Ry
        Total length         55.1515 bohr
 
 
     Adding external electric field

     Computed dipole along edir(3) : 
        Dipole               -0.3769 Ry au,         -0.9579 Debye
        Dipole field         -0.0002 Ry au, 
 
        Potential amp.        0.0254 Ry
        Total length         55.1515 bohr
 

     total cpu time spent up to now is      443.5 secs

     total energy              =   -7738.31628396 Ry
     estimated scf accuracy    <       0.00181087 Ry

     total magnetization       =    88.71 Bohr mag/cell
     absolute magnetization    =    90.29 Bohr mag/cell

     iteration # 38     ecut=    50.00 Ry     beta= 0.10
     Davidson diagonalization with overlap
     ethr =  1.66E-07,  avg # of iterations =  2.0

     negative rho (up, down):  1.521E-04 1.158E-04
 
     Adding external electric field

     Computed dipole along edir(3) : 
        Dipole               -0.3763 Ry au,         -0.9565 Debye
        Dipole field         -0.0002 Ry au, 
 
        Potential amp.        0.0254 Ry
        Total length         55.1515 bohr
 
 
     Adding external electric field

     Computed dipole along edir(3) : 
        Dipole               -0.3763 Ry au,         -0.9565 Debye
        Dipole field         -0.0002 Ry au, 
 
        Potential amp.        0.0254 Ry
        Total length         55.1515 bohr
 

     total cpu time spent up to now is      454.0 secs

     total energy              =   -7738.31654383 Ry
     estimated scf accuracy    <       0.00118118 Ry

     total magnetization       =    88.69 Bohr mag/cell
     absolute magnetization    =    90.20 Bohr mag/cell

     iteration # 39     ecut=    50.00 Ry     beta= 0.10
     Davidson diagonalization with overlap
     ethr =  1.08E-07,  avg # of iterations =  2.0

     negative rho (up, down):  1.122E-04 9.045E-05
 
     Adding external electric field

     Computed dipole along edir(3) : 
        Dipole               -0.3787 Ry au,         -0.9626 Debye
        Dipole field         -0.0002 Ry au, 
 
        Potential amp.        0.0256 Ry
        Total length         55.1515 bohr
 
 
     Adding external electric field

     Computed dipole along edir(3) : 
        Dipole               -0.3787 Ry au,         -0.9626 Debye
        Dipole field         -0.0002 Ry au, 
 
        Potential amp.        0.0256 Ry
        Total length         55.1515 bohr
 

     total cpu time spent up to now is      464.9 secs

     total energy              =   -7738.31669475 Ry
     estimated scf accuracy    <       0.00070702 Ry

     total magnetization       =    88.67 Bohr mag/cell
     absolute magnetization    =    90.10 Bohr mag/cell

     iteration # 40     ecut=    50.00 Ry     beta= 0.10
     Davidson diagonalization with overlap
     ethr =  6.47E-08,  avg # of iterations =  2.0

     negative rho (up, down):  6.677E-05 5.430E-05
 
     Adding external electric field

     Computed dipole along edir(3) : 
        Dipole               -0.3799 Ry au,         -0.9656 Debye
        Dipole field         -0.0002 Ry au, 
 
        Potential amp.        0.0256 Ry
        Total length         55.1515 bohr
 
 
     Adding external electric field

     Computed dipole along edir(3) : 
        Dipole               -0.3799 Ry au,         -0.9656 Debye
        Dipole field         -0.0002 Ry au, 
 
        Potential amp.        0.0256 Ry
        Total length         55.1515 bohr
 

     total cpu time spent up to now is      474.8 secs

     total energy              =   -7738.31673227 Ry
     estimated scf accuracy    <       0.00059734 Ry

     total magnetization       =    88.66 Bohr mag/cell
     absolute magnetization    =    90.06 Bohr mag/cell

     iteration # 41     ecut=    50.00 Ry     beta= 0.10
     Davidson diagonalization with overlap
     ethr =  5.47E-08,  avg # of iterations =  2.0

     negative rho (up, down):  5.173E-05 3.953E-05
 
     Adding external electric field

     Computed dipole along edir(3) : 
        Dipole               -0.3756 Ry au,         -0.9546 Debye
        Dipole field         -0.0002 Ry au, 
 
        Potential amp.        0.0254 Ry
        Total length         55.1515 bohr
 
 
     Adding external electric field

     Computed dipole along edir(3) : 
        Dipole               -0.3756 Ry au,         -0.9546 Debye
        Dipole field         -0.0002 Ry au, 
 
        Potential amp.        0.0254 Ry
        Total length         55.1515 bohr
 

     total cpu time spent up to now is      485.1 secs

     total energy              =   -7738.31675459 Ry
     estimated scf accuracy    <       0.00052999 Ry

     total magnetization       =    88.65 Bohr mag/cell
     absolute magnetization    =    90.04 Bohr mag/cell

     iteration # 42     ecut=    50.00 Ry     beta= 0.10
     Davidson diagonalization with overlap
     ethr =  4.85E-08,  avg # of iterations =  1.5

     negative rho (up, down):  4.806E-05 3.249E-05
 
     Adding external electric field

     Computed dipole along edir(3) : 
        Dipole               -0.3653 Ry au,         -0.9285 Debye
        Dipole field         -0.0002 Ry au, 
 
        Potential amp.        0.0247 Ry
        Total length         55.1515 bohr
 
 
     Adding external electric field

     Computed dipole along edir(3) : 
        Dipole               -0.3653 Ry au,         -0.9285 Debye
        Dipole field         -0.0002 Ry au, 
 
        Potential amp.        0.0247 Ry
        Total length         55.1515 bohr
 

     total cpu time spent up to now is      494.6 secs

     total energy              =   -7738.31678744 Ry
     estimated scf accuracy    <       0.00050773 Ry

     total magnetization       =    88.65 Bohr mag/cell
     absolute magnetization    =    90.03 Bohr mag/cell

     iteration # 43     ecut=    50.00 Ry     beta= 0.10
     Davidson diagonalization with overlap
     ethr =  4.65E-08,  avg # of iterations =  2.0

     negative rho (up, down):  4.505E-05 2.238E-05
 
     Adding external electric field

     Computed dipole along edir(3) : 
        Dipole               -0.3546 Ry au,         -0.9013 Debye
        Dipole field         -0.0002 Ry au, 
 
        Potential amp.        0.0239 Ry
        Total length         55.1515 bohr
 
 
     Adding external electric field

     Computed dipole along edir(3) : 
        Dipole               -0.3546 Ry au,         -0.9013 Debye
        Dipole field         -0.0002 Ry au, 
 
        Potential amp.        0.0239 Ry
        Total length         55.1515 bohr
 

     total cpu time spent up to now is      504.7 secs

     total energy              =   -7738.31683382 Ry
     estimated scf accuracy    <       0.00044657 Ry

     total magnetization       =    88.65 Bohr mag/cell
     absolute magnetization    =    90.02 Bohr mag/cell

     iteration # 44     ecut=    50.00 Ry     beta= 0.10
     Davidson diagonalization with overlap
     ethr =  4.09E-08,  avg # of iterations =  2.0

     negative rho (up, down):  4.619E-05 1.446E-05
 
     Adding external electric field

     Computed dipole along edir(3) : 
        Dipole               -0.3465 Ry au,         -0.8808 Debye
        Dipole field         -0.0002 Ry au, 
 
        Potential amp.        0.0234 Ry
        Total length         55.1515 bohr
 
 
     Adding external electric field

     Computed dipole along edir(3) : 
        Dipole               -0.3465 Ry au,         -0.8808 Debye
        Dipole field         -0.0002 Ry au, 
 
        Potential amp.        0.0234 Ry
        Total length         55.1515 bohr
 

     total cpu time spent up to now is      514.5 secs

     total energy              =   -7738.31687932 Ry
     estimated scf accuracy    <       0.00040903 Ry

     total magnetization       =    88.65 Bohr mag/cell
     absolute magnetization    =    90.02 Bohr mag/cell

     iteration # 45     ecut=    50.00 Ry     beta= 0.10
     Davidson diagonalization with overlap
     ethr =  3.74E-08,  avg # of iterations =  2.0

     negative rho (up, down):  6.182E-04 3.232E-04
 
     Adding external electric field

     Computed dipole along edir(3) : 
        Dipole               -0.3226 Ry au,         -0.8200 Debye
        Dipole field         -0.0002 Ry au, 
 
        Potential amp.        0.0218 Ry
        Total length         55.1515 bohr
 
 
     Adding external electric field

     Computed dipole along edir(3) : 
        Dipole               -0.3226 Ry au,         -0.8200 Debye
        Dipole field         -0.0002 Ry au, 
 
        Potential amp.        0.0218 Ry
        Total length         55.1515 bohr
 

     total cpu time spent up to now is      524.6 secs

     total energy              =   -7738.31691065 Ry
     estimated scf accuracy    <       0.00034169 Ry

     total magnetization       =    88.65 Bohr mag/cell
     absolute magnetization    =    90.02 Bohr mag/cell

     iteration # 46     ecut=    50.00 Ry     beta= 0.10
     Davidson diagonalization with overlap
     ethr =  3.13E-08,  avg # of iterations = 10.5

     negative rho (up, down):  1.562E-03 1.179E-03
 
     Adding external electric field

     Computed dipole along edir(3) : 
        Dipole               -0.3100 Ry au,         -0.7880 Debye
        Dipole field         -0.0002 Ry au, 
 
        Potential amp.        0.0209 Ry
        Total length         55.1515 bohr
 
 
     Adding external electric field

     Computed dipole along edir(3) : 
        Dipole               -0.3100 Ry au,         -0.7880 Debye
        Dipole field         -0.0002 Ry au, 
 
        Potential amp.        0.0209 Ry
        Total length         55.1515 bohr
 

     total cpu time spent up to now is      538.3 secs

     total energy              =   -7738.31694119 Ry
     estimated scf accuracy    <       0.00016852 Ry

     total magnetization       =    88.68 Bohr mag/cell
     absolute magnetization    =    90.03 Bohr mag/cell

     iteration # 47     ecut=    50.00 Ry     beta= 0.10
     Davidson diagonalization with overlap
     ethr =  1.54E-08,  avg # of iterations =  2.0

     negative rho (up, down):  1.971E-03 1.663E-03
 
     Adding external electric field

     Computed dipole along edir(3) : 
        Dipole               -0.3071 Ry au,         -0.7807 Debye
        Dipole field         -0.0002 Ry au, 
 
        Potential amp.        0.0207 Ry
        Total length         55.1515 bohr
 
 
     Adding external electric field

     Computed dipole along edir(3) : 
        Dipole               -0.3071 Ry au,         -0.7807 Debye
        Dipole field         -0.0002 Ry au, 
 
        Potential amp.        0.0207 Ry
        Total length         55.1515 bohr
 

     total cpu time spent up to now is      548.1 secs

     total energy              =   -7738.31695027 Ry
     estimated scf accuracy    <       0.00008537 Ry

     total magnetization       =    88.67 Bohr mag/cell
     absolute magnetization    =    90.03 Bohr mag/cell

     iteration # 48     ecut=    50.00 Ry     beta= 0.10
     Davidson diagonalization with overlap
     ethr =  7.81E-09,  avg # of iterations =  2.0

     negative rho (up, down):  2.090E-03 1.810E-03
 
     Adding external electric field

     Computed dipole along edir(3) : 
        Dipole               -0.3067 Ry au,         -0.7795 Debye
        Dipole field         -0.0002 Ry au, 
 
        Potential amp.        0.0207 Ry
        Total length         55.1515 bohr
 
 
     Adding external electric field

     Computed dipole along edir(3) : 
        Dipole               -0.3067 Ry au,         -0.7795 Debye
        Dipole field         -0.0002 Ry au, 
 
        Potential amp.        0.0207 Ry
        Total length         55.1515 bohr
 

     total cpu time spent up to now is      558.4 secs

     total energy              =   -7738.31695275 Ry
     estimated scf accuracy    <       0.00005515 Ry

     total magnetization       =    88.66 Bohr mag/cell
     absolute magnetization    =    90.04 Bohr mag/cell

     iteration # 49     ecut=    50.00 Ry     beta= 0.10
     Davidson diagonalization with overlap
     ethr =  5.05E-09,  avg # of iterations =  2.0

     negative rho (up, down):  1.869E-03 1.590E-03
 
     Adding external electric field

     Computed dipole along edir(3) : 
        Dipole               -0.3100 Ry au,         -0.7879 Debye
        Dipole field         -0.0002 Ry au, 
 
        Potential amp.        0.0209 Ry
        Total length         55.1515 bohr
 
 
     Adding external electric field

     Computed dipole along edir(3) : 
        Dipole               -0.3100 Ry au,         -0.7879 Debye
        Dipole field         -0.0002 Ry au, 
 
        Potential amp.        0.0209 Ry
        Total length         55.1515 bohr
 

     total cpu time spent up to now is      568.5 secs

     total energy              =   -7738.31694786 Ry
     estimated scf accuracy    <       0.00004216 Ry

     total magnetization       =    88.66 Bohr mag/cell
     absolute magnetization    =    90.04 Bohr mag/cell

     iteration # 50     ecut=    50.00 Ry     beta= 0.10
     Davidson diagonalization with overlap
     ethr =  3.86E-09,  avg # of iterations =  2.0

     negative rho (up, down):  1.815E-03 1.525E-03
 
     Adding external electric field

     Computed dipole along edir(3) : 
        Dipole               -0.3104 Ry au,         -0.7890 Debye
        Dipole field         -0.0002 Ry au, 
 
        Potential amp.        0.0210 Ry
        Total length         55.1515 bohr
 
 
     Adding external electric field

     Computed dipole along edir(3) : 
        Dipole               -0.3104 Ry au,         -0.7890 Debye
        Dipole field         -0.0002 Ry au, 
 
        Potential amp.        0.0210 Ry
        Total length         55.1515 bohr
 

     total cpu time spent up to now is      578.5 secs

     total energy              =   -7738.31694837 Ry
     estimated scf accuracy    <       0.00002197 Ry

     total magnetization       =    88.66 Bohr mag/cell
     absolute magnetization    =    90.04 Bohr mag/cell

     iteration # 51     ecut=    50.00 Ry     beta= 0.10
     Davidson diagonalization with overlap
     ethr =  2.01E-09,  avg # of iterations =  2.0

     negative rho (up, down):  1.665E-03 1.320E-03
 
     Adding external electric field

     Computed dipole along edir(3) : 
        Dipole               -0.3080 Ry au,         -0.7828 Debye
        Dipole field         -0.0002 Ry au, 
 
        Potential amp.        0.0208 Ry
        Total length         55.1515 bohr
 
 
     Adding external electric field

     Computed dipole along edir(3) : 
        Dipole               -0.3080 Ry au,         -0.7828 Debye
        Dipole field         -0.0002 Ry au, 
 
        Potential amp.        0.0208 Ry
        Total length         55.1515 bohr
 

     total cpu time spent up to now is      588.7 secs

     total energy              =   -7738.31694685 Ry
     estimated scf accuracy    <       0.00001648 Ry

     total magnetization       =    88.66 Bohr mag/cell
     absolute magnetization    =    90.04 Bohr mag/cell

     iteration # 52     ecut=    50.00 Ry     beta= 0.10
     Davidson diagonalization with overlap
     ethr =  1.51E-09,  avg # of iterations =  2.0

     negative rho (up, down):  1.401E-03 1.002E-03
 
     Adding external electric field

     Computed dipole along edir(3) : 
        Dipole               -0.3103 Ry au,         -0.7887 Debye
        Dipole field         -0.0002 Ry au, 
 
        Potential amp.        0.0210 Ry
        Total length         55.1515 bohr
 
 
     Adding external electric field

     Computed dipole along edir(3) : 
        Dipole               -0.3103 Ry au,         -0.7887 Debye
        Dipole field         -0.0002 Ry au, 
 
        Potential amp.        0.0210 Ry
        Total length         55.1515 bohr
 

     total cpu time spent up to now is      599.0 secs

     total energy              =   -7738.31694634 Ry
     estimated scf accuracy    <       0.00000541 Ry

     total magnetization       =    88.66 Bohr mag/cell
     absolute magnetization    =    90.04 Bohr mag/cell

     iteration # 53     ecut=    50.00 Ry     beta= 0.10
     Davidson diagonalization with overlap
     ethr =  4.95E-10,  avg # of iterations =  2.0

     negative rho (up, down):  1.245E-03 8.158E-04
 
     Adding external electric field

     Computed dipole along edir(3) : 
        Dipole               -0.3109 Ry au,         -0.7902 Debye
        Dipole field         -0.0002 Ry au, 
 
        Potential amp.        0.0210 Ry
        Total length         55.1515 bohr
 
 
     Adding external electric field

     Computed dipole along edir(3) : 
        Dipole               -0.3109 Ry au,         -0.7902 Debye
        Dipole field         -0.0002 Ry au, 
 
        Potential amp.        0.0210 Ry
        Total length         55.1515 bohr
 

     total cpu time spent up to now is      609.2 secs

     total energy              =   -7738.31694599 Ry
     estimated scf accuracy    <       0.00000246 Ry

     total magnetization       =    88.66 Bohr mag/cell
     absolute magnetization    =    90.04 Bohr mag/cell

     iteration # 54     ecut=    50.00 Ry     beta= 0.10
     Davidson diagonalization with overlap
     ethr =  2.25E-10,  avg # of iterations =  2.0

     negative rho (up, down):  1.139E-03 6.817E-04
 
     Adding external electric field

     Computed dipole along edir(3) : 
        Dipole               -0.3103 Ry au,         -0.7887 Debye
        Dipole field         -0.0002 Ry au, 
 
        Potential amp.        0.0209 Ry
        Total length         55.1515 bohr
 
 
     Adding external electric field

     Computed dipole along edir(3) : 
        Dipole               -0.3103 Ry au,         -0.7887 Debye
        Dipole field         -0.0002 Ry au, 
 
        Potential amp.        0.0209 Ry
        Total length         55.1515 bohr
 

     total cpu time spent up to now is      618.9 secs

     total energy              =   -7738.31694563 Ry
     estimated scf accuracy    <       0.00000153 Ry

     total magnetization       =    88.66 Bohr mag/cell
     absolute magnetization    =    90.04 Bohr mag/cell

     iteration # 55     ecut=    50.00 Ry     beta= 0.10
     Davidson diagonalization with overlap
     ethr =  1.40E-10,  avg # of iterations =  2.0

     negative rho (up, down):  1.053E-03 5.884E-04
 
     Adding external electric field

     Computed dipole along edir(3) : 
        Dipole               -0.3183 Ry au,         -0.8092 Debye
        Dipole field         -0.0002 Ry au, 
 
        Potential amp.        0.0215 Ry
        Total length         55.1515 bohr
 
 
     Adding external electric field

     Computed dipole along edir(3) : 
        Dipole               -0.3183 Ry au,         -0.8092 Debye
        Dipole field         -0.0002 Ry au, 
 
        Potential amp.        0.0215 Ry
        Total length         55.1515 bohr
 
 
     Magnetic moment per site  (integrated on atomic sphere of radius R)
     atom   1 (R=0.081)  charge=  7.1265  magn=  1.4609
     atom   2 (R=0.090)  charge= 12.1365  magn=  3.8586
     atom   3 (R=0.081)  charge=  7.1337  magn=  1.4356
     atom   4 (R=0.081)  charge=  7.1150  magn=  1.5360
     atom   5 (R=0.081)  charge=  7.1323  magn=  1.4914
     atom   6 (R=0.081)  charge=  7.1277  magn=  1.4924
     atom   7 (R=0.068)  charge=  0.8190  magn=  0.0071
     atom   8 (R=0.068)  charge=  0.8149  magn=  0.0047
     atom   9 (R=0.068)  charge=  0.8164  magn=  0.0053
     atom  10 (R=0.068)  charge=  0.8173  magn=  0.0070
     atom  11 (R=0.044)  charge=  1.9757  magn=  0.0663
     atom  12 (R=0.044)  charge=  1.9749  magn=  0.0886
     atom  13 (R=0.044)  charge=  1.9717  magn=  0.0766
     atom  14 (R=0.044)  charge=  1.9739  magn=  0.0755
     atom  15 (R=0.044)  charge=  1.9818  magn=  0.0473
     atom  16 (R=0.044)  charge=  1.9676  magn=  0.0438
     atom  17 (R=0.044)  charge=  1.9709  magn=  0.0575
     atom  18 (R=0.044)  charge=  1.9789  magn=  0.0511
     atom  19 (R=0.044)  charge=  1.9804  magn=  0.0398
     atom  20 (R=0.044)  charge=  1.9745  magn=  0.0551
     atom  21 (R=0.044)  charge=  1.9786  magn=  0.0492
     atom  22 (R=0.044)  charge=  1.9792  magn=  0.0520
     atom  23 (R=0.044)  charge=  1.9784  magn=  0.0495
     atom  24 (R=0.044)  charge=  1.9751  magn=  0.0625
     atom  25 (R=0.044)  charge=  1.9786  magn=  0.0532
     atom  26 (R=0.044)  charge=  1.9835  magn=  0.0330
     atom  27 (R=0.081)  charge=  7.1157  magn=  1.5227
     atom  28 (R=0.090)  charge= 12.1568  magn=  3.9262
     atom  29 (R=0.081)  charge=  7.1160  magn=  1.5264
     atom  30 (R=0.081)  charge=  7.1184  magn=  1.5245
     atom  31 (R=0.081)  charge=  7.1348  magn=  1.5044
     atom  32 (R=0.081)  charge=  7.1327  magn=  1.5018
     atom  33 (R=0.068)  charge=  0.8199  magn=  0.0071
     atom  34 (R=0.068)  charge=  0.8182  magn=  0.0084
     atom  35 (R=0.068)  charge=  0.8179  magn=  0.0061
     atom  36 (R=0.068)  charge=  0.8205  magn=  0.0070
     atom  37 (R=0.044)  charge=  1.9732  magn=  0.0685
     atom  38 (R=0.044)  charge=  1.9738  magn=  0.0663
     atom  39 (R=0.044)  charge=  1.9708  magn=  0.0817
     atom  40 (R=0.044)  charge=  1.9695  magn=  0.0794
     atom  41 (R=0.044)  charge=  1.9809  magn=  0.0474
     atom  42 (R=0.044)  charge=  1.9831  magn=  0.0460
     atom  43 (R=0.044)  charge=  1.9780  magn=  0.0550
     atom  44 (R=0.044)  charge=  1.9788  magn=  0.0531
     atom  45 (R=0.044)  charge=  1.9823  magn=  0.0465
[...]
    -5.9708  -5.9372  -5.9301  -5.9070  -5.8875  -5.8781  -5.8654  -5.8404
    -5.8264  -5.7793  -5.7509  -5.7413  -5.7288  -5.6931  -5.6673  -5.6523
    -5.6385  -5.6291  -5.5855  -5.5684  -5.5631  -5.5466  -5.5394  -5.5249
    -5.5149  -5.4877  -5.4752  -5.4434  -5.3996  -5.3637  -5.3317  -5.3156
    -5.2782  -5.2601  -5.2341  -5.1643  -5.1460  -5.1414  -5.1261  -5.1036
    -5.0653  -5.0108  -4.9641  -4.9294  -4.8984  -4.8883  -4.8594  -4.8445
    -4.8171  -4.7924  -4.7782  -4.7413  -4.7191  -4.6906  -4.6380  -4.6027
    -4.5406  -4.4687  -4.4406  -4.4222  -4.4024  -4.3901  -4.3637  -4.3516
    -4.3260  -4.2804  -4.2542  -4.2421  -4.2043  -4.1899  -4.1085  -4.1040
    -4.0872  -4.0444  -4.0355  -4.0162  -3.9559  -3.9321  -3.9193  -3.8797
    -3.8549  -3.8201  -3.8115  -3.7934  -3.7746  -3.7427  -3.7043  -3.6931
    -3.6869  -3.6688  -3.6578  -3.5867  -3.5776  -3.5761  -3.5607  -3.5449
    -3.5323  -3.5154  -3.5059  -3.4816  -3.4482  -3.4426  -3.4284  -3.4064
    -3.3835  -3.3737  -3.3696  -3.3539  -3.3368  -3.3058  -3.2863  -3.2575
    -3.2456  -3.2126  -3.1897  -3.1661  -3.1419  -3.1183  -3.1008  -3.0830
    -3.0750  -3.0635  -3.0526  -3.0325  -3.0184  -3.0026  -2.9859  -2.9357
    -2.9231  -2.9124  -2.8993  -2.8902  -2.8690  -2.8457  -2.8116  -2.7890
    -2.7853  -2.7586  -2.7524  -2.7269  -2.7215  -2.7138  -2.7075  -2.6922
    -2.6735  -2.6660  -2.6625  -2.6368  -2.6271  -2.6139  -2.6075  -2.5788
    -2.5733  -2.5718  -2.5381  -2.5259  -2.5057  -2.4806  -2.4708  -2.4587
    -2.4520  -2.4093  -2.4000  -2.3728  -2.3571  -2.3420  -2.3153  -2.2799
    -2.2736  -2.2690  -2.2245  -2.2095  -2.1880  -2.1751  -2.1526  -2.1401
    -2.1082  -2.0872  -2.0716  -2.0673  -2.0512  -2.0380  -2.0269  -2.0211
    -1.9951  -1.9501  -1.9384  -1.9183  -1.9072  -1.8881  -1.8813  -1.8642
    -1.8395  -1.8346  -1.8296  -1.8201  -1.7925  -1.7145  -1.7089  -1.6760
    -1.6709  -1.6508  -1.6320  -1.6277  -1.6149  -1.6035  -1.5882  -1.5794
    -1.5498  -1.5440  -1.5019  -1.4903  -1.4645  -1.4549  -1.4461  -1.4214
    -1.4028  -1.3920  -1.3831  -1.3620  -1.3571  -1.3314  -1.3052  -1.2962
    -1.2332  -1.2236  -1.1696  -1.1484  -1.1332  -1.1312  -1.0937  -1.0513
    -1.0296  -0.9946  -0.9284  -0.8599  -0.7287  -0.7133  -0.6297  -0.5695
    -0.5228  -0.5087  -0.3563  -0.2368   0.1793   0.2148   0.2372   0.2471
     0.2970   0.3082   0.3202   0.3293   0.3464   0.3583   0.3662   0.3697
     0.3765   0.3862   0.3987   0.4000   0.4046   0.4150   0.4194   0.4264
     0.4342   0.4394   0.4627   0.4655   0.4762   0.4824   0.4890   0.4923
     0.4978   0.4981   0.5090   0.5152   0.5223   0.5323   0.5367   0.5391
     0.5416   0.5650   0.5683   0.5732   0.5968   0.5995   0.6157   0.6189
     0.6258   0.6339   0.6429   0.6464   0.6529   0.6627   0.6642   0.6780
     0.6817   0.6850   0.6985   0.7032   0.7135   0.7145   0.7209   0.7330
     0.7425   0.7491   0.7649   0.7659   0.7781   0.7812   0.7918   0.8087
     0.8102   0.8266   0.8486   0.8557   0.8628   0.8671   0.8698   0.8775
     0.8838   0.9017   0.9087   0.9144   0.9200   0.9524   0.9657   0.9827
     0.9863   1.0357   1.0834   1.1119   1.1227   1.6869   1.7355   1.7472
     1.7753   1.7991   1.8105   1.8169   1.8221   1.8398   1.9086   1.9197
     1.9324   1.9700   1.9785   2.0059   2.0414   2.0451   2.0842   2.0909
     2.1380   2.1437   2.1741   2.1905   2.1959   2.1997   2.2096   2.2351
     2.2431   2.2745   2.2844   2.3031   2.3126   2.3249   2.3425   2.3575
     2.3714   2.3819   2.3857   2.4075   2.4166   2.4217   2.4393   2.4880
     2.5270   2.5314   2.5388   2.5479   2.5526   2.5768   2.5952   2.6128
     2.6583   2.6801   2.7028   2.7066   2.7266   2.8019   2.8026   2.8723
     2.8775   2.8854   3.7072   3.7207   3.7257   3.7831   3.7858   3.7976
     3.9055   3.9353   3.9574   3.9590   3.9819   3.9999   4.0133   4.0367
     4.0535   4.0598   4.1447   4.1473   4.1592   4.1807   4.6602   4.7194
     4.7958   4.8565   4.8837   4.9124   4.9368   4.9688   5.0419   5.0965
     5.1174   5.1474   5.4240   6.2427   6.3743   6.6141   6.6585   6.7595
     6.8098   6.8852   6.8903   6.9216   7.0223   7.0822   7.0922   7.1335
     7.2675   7.3503   7.3549   7.4354   7.4807   7.5353   7.5869   7.6322
     7.6395   7.6796   7.7363   7.7582   7.8090   7.8838   7.9019   7.9083
     8.0148   8.0284   8.0635   8.0899   8.1115   8.1775   8.1907   8.2089
     8.2626   8.2845   8.3014   8.3311   8.3788   8.4244   8.4298   8.4493
     8.4653   8.4780   8.4972   8.5267   8.5538   8.5729   8.5984   8.6215
     8.6643   8.6834   8.7241   8.7540   8.7667   8.7848   8.8330   8.8382

     the Fermi energy is     1.6597 ev

!    total energy              =   -7738.31694510 Ry
     estimated scf accuracy    <       0.00000057 Ry
     smearing contrib. (-TS)   =      -0.02223850 Ry
     internal energy E=F+TS    =   -7738.29470660 Ry

     The total energy is F=E-TS. E is the sum of the following terms:
     one-electron contribution =  -94697.01369555 Ry
     hartree contribution      =   47965.81874933 Ry
     xc contribution           =   -2218.71777770 Ry
     ewald contribution        =   41213.42513102 Ry
     Dispersion Correction     =      -1.80717573 Ry
     electric field correction =       0.00006203 Ry

     total magnetization       =    88.66 Bohr mag/cell
     absolute magnetization    =    90.04 Bohr mag/cell

     convergence has been achieved in  55 iterations

     negative rho (up, down):  1.053E-03 5.884E-04

     Forces acting on atoms (cartesian axes, Ry/au):

     atom    1 type  1   force =    -0.00022062   -0.00019881   -0.00027984
     atom    2 type  2   force =     0.00006880    0.00033232    0.00021255
     atom    3 type  1   force =     0.00039935   -0.00030069   -0.00008474
     atom    4 type  1   force =     0.00007353   -0.00008219   -0.00004234
     atom    5 type  1   force =    -0.00094168    0.00039556   -0.00001681
     atom    6 type  1   force =     0.00022211    0.00058717   -0.00016025
     atom    7 type  3   force =    -0.00025615    0.00024564   -0.00028080
     atom    8 type  3   force =    -0.00009232    0.00035468    0.00001906
     atom    9 type  3   force =    -0.00000733    0.00028449   -0.00004934
     atom   10 type  3   force =    -0.00033808    0.00000633    0.00022488
     atom   11 type  4   force =     0.00029539    0.00026717   -0.00027349
     atom   12 type  4   force =    -0.00020230   -0.00007164   -0.00016893
     atom   13 type  4   force =     0.00053050    0.00004489   -0.00018642
     atom   14 type  4   force =     0.00015005    0.00009383    0.00006237
     atom   15 type  4   force =     0.00040401   -0.00043888    0.00001374
     atom   16 type  4   force =    -0.00008448   -0.00052223    0.00004049
     atom   17 type  4   force =    -0.00041415   -0.00024125   -0.00011713
     atom   18 type  4   force =    -0.00002643   -0.00016603    0.00039723
     atom   19 type  4   force =     0.00064563    0.00016864    0.00012045
     atom   20 type  4   force =     0.00016959    0.00017166    0.00042554
     atom   21 type  4   force =    -0.00005164   -0.00019528   -0.00001639
     atom   22 type  4   force =    -0.00014731   -0.00002055   -0.00011053
     atom   23 type  4   force =     0.00011398    0.00035487    0.00026777
     atom   24 type  4   force =    -0.00040714    0.00026384   -0.00038213
     atom   25 type  4   force =    -0.00031377   -0.00007854    0.00039015
     atom   26 type  4   force =     0.00029206   -0.00008306    0.00001168
     atom   27 type  1   force =    -0.00587935   -0.00849737   -0.00381386
     atom   28 type  2   force =    -0.01218318    0.00007424   -0.00191915
     atom   29 type  1   force =     0.00288404   -0.00416555    0.00024680
     atom   30 type  1   force =     0.00248060    0.00385077   -0.00163788
     atom   31 type  1   force =     0.00179251   -0.00483271   -0.00021747
     atom   32 type  1   force =    -0.00085403    0.00120706    0.00203417
     atom   33 type  3   force =    -0.00706076   -0.00079426   -0.00043417
     atom   34 type  3   force =    -0.00689537    0.00229896   -0.00043196
     atom   35 type  3   force =     0.00399617   -0.00045036   -0.00488692
     atom   36 type  3   force =     0.00118453   -0.00129148    0.00294953
     atom   37 type  4   force =     0.00870038    0.00527508   -0.00760087
     atom   38 type  4   force =     0.00354686   -0.00099606    0.02035123
     atom   39 type  4   force =    -0.00137180    0.00353108    0.01015631
     atom   40 type  4   force =    -0.00159900   -0.00228275   -0.00888091
     atom   41 type  4   force =     0.00207506    0.00854046    0.00656208
     atom   42 type  4   force =    -0.00568060   -0.00312056   -0.01951776
     atom   43 type  4   force =     0.00990900    0.00662740   -0.00817000
     atom   44 type  4   force =     0.00725046   -0.00305303    0.00600157
     atom   45 type  4   force =     0.00221756    0.00590822   -0.00059831
     atom   46 type  4   force =     0.00346059    0.00121871    0.00497650
     atom   47 type  4   force =    -0.01322638    0.00022130    0.00326392
     atom   48 type  4   force =    -0.01450505    0.00259082   -0.00353967
     atom   49 type  4   force =     0.01254170    0.00290167   -0.00448064
     atom   50 type  4   force =    -0.00380119   -0.00398121   -0.00039943
     atom   51 type  4   force =    -0.00442549    0.00267918   -0.00065375
     atom   52 type  4   force =     0.01632130   -0.00322753    0.00421295
     atom   53 type  1   force =    -0.00753844   -0.00705771   -0.00871300
     atom   54 type  2   force =     0.01566997    0.01714570   -0.00995834
     atom   55 type  1   force =     0.00582544   -0.00484006   -0.00613740
     atom   56 type  1   force =    -0.02038470    0.01923559    0.01973065
     atom   57 type  1   force =     0.00447297   -0.00759967   -0.00159690
     atom   58 type  1   force =    -0.00387948   -0.00530977   -0.00115005
     atom   59 type  3   force =    -0.03902851   -0.03835143   -0.05602042
     atom   60 type  3   force =    -0.00485384   -0.00126701   -0.00114818
     atom   61 type  3   force =     0.00273529   -0.00101058   -0.01012640
     atom   62 type  3   force =     0.02909375   -0.04948993   -0.06057106
     atom   63 type  4   force =     0.00629781    0.00352587    0.02093612
     atom   64 type  4   force =     0.00451947    0.00229071    0.01460746
     atom   65 type  4   force =    -0.00067872    0.00291088    0.01278506
     atom   66 type  4   force =     0.00013623    0.00216273    0.01616198
     atom   67 type  4   force =     0.00107640   -0.00060637    0.03920644
     atom   68 type  4   force =    -0.00567297   -0.00392894   -0.01718919
     atom   69 type  4   force =     0.00782296    0.00450142   -0.00258280
     atom   70 type  4   force =     0.00174282   -0.00732599    0.03548508
     atom   71 type  4   force =    -0.00913395    0.03911204    0.00096124
     atom   72 type  4   force =     0.00227181   -0.00043871    0.00793669
     atom   73 type  4   force =    -0.03002797    0.00088445    0.00765384
     atom   74 type  4   force =    -0.01346985    0.00143333   -0.00042487
     atom   75 type  4   force =     0.01193258    0.00349534   -0.00251909
     atom   76 type  4   force =    -0.00239267   -0.00286953    0.00255680
     atom   77 type  4   force =     0.00920538    0.02573339   -0.00255107
     atom   78 type  4   force =     0.03344681   -0.00638678    0.00619447
     atom   79 type  1   force =     0.00008080   -0.00025251   -0.00020093
     atom   80 type  2   force =    -0.00005094   -0.00013179    0.00046872
     atom   81 type  1   force =    -0.00024068    0.00035471   -0.00047746
     atom   82 type  1   force =    -0.00009174    0.00009220    0.00011137
     atom   83 type  1   force =    -0.00076678    0.00038667    0.00039275
     atom   84 type  1   force =     0.00034937    0.00031969    0.00037333
     atom   85 type  3   force =     0.00001724   -0.00008548   -0.00026583
     atom   86 type  3   force =    -0.00019024    0.00001932    0.00002837
     atom   87 type  3   force =    -0.00002225   -0.00035496   -0.00011614
     atom   88 type  3   force =    -0.00036178    0.00038724    0.00004967
     atom   89 type  4   force =     0.00040888    0.00028372   -0.00004173
     atom   90 type  4   force =    -0.00004572    0.00022302   -0.00007324
     atom   91 type  4   force =     0.00029022    0.00040399   -0.00001270
     atom   92 type  4   force =    -0.00020030    0.00060147    0.00015376
     atom   93 type  4   force =     0.00011872   -0.00031439    0.00023796
     atom   94 type  4   force =     0.00012368   -0.00038325   -0.00008629
     atom   95 type  4   force =    -0.00025936    0.00013176   -0.00020850
     atom   96 type  4   force =     0.00024415    0.00001393   -0.00017219
     atom   97 type  4   force =     0.00056614   -0.00004487   -0.00020362
     atom   98 type  4   force =    -0.00007801   -0.00016498    0.00030295
     atom   99 type  4   force =     0.00011224    0.00013041    0.00025478
     atom  100 type  4   force =     0.00008290   -0.00029550    0.00019230
     atom  101 type  4   force =     0.00000014    0.00009622   -0.00019737
     atom  102 type  4   force =    -0.00017917    0.00002714    0.00019399
     atom  103 type  4   force =    -0.00045304    0.00028702    0.00040206
     atom  104 type  4   force =    -0.00007075   -0.00045567    0.00016516
     atom  105 type  1   force =    -0.00650036   -0.00795631   -0.00349901
     atom  106 type  2   force =    -0.01206447    0.00012201   -0.00195131
     atom  107 type  1   force =     0.00425775   -0.00280850    0.00322709
     atom  108 type  1   force =     0.00243820    0.00394544   -0.00168147
     atom  109 type  1   force =     0.00181679   -0.00482840   -0.00021135
     atom  110 type  1   force =    -0.00125509    0.00118992    0.00189180
     atom  111 type  3   force =    -0.00709099   -0.00083051   -0.00044589
     atom  112 type  3   force =    -0.00615633    0.00299487   -0.00223400
     atom  113 type  3   force =     0.00409614   -0.00001847   -0.00388765
     atom  114 type  3   force =     0.00105450   -0.00133266    0.00301056
     atom  115 type  4   force =     0.00871562    0.00504214   -0.00757121
     atom  116 type  4   force =     0.00364568   -0.00113469    0.02072566
     atom  117 type  4   force =    -0.00096998    0.00371909    0.01019760
     atom  118 type  4   force =    -0.00152212   -0.00242841   -0.00888238
     atom  119 type  4   force =     0.00215292    0.00852541    0.00641119
     atom  120 type  4   force =    -0.00690099   -0.00295865   -0.01970287
     atom  121 type  4   force =     0.00981658    0.00731488   -0.00648500
     atom  122 type  4   force =     0.00707787   -0.00305208    0.00599747
     atom  123 type  4   force =     0.00215437    0.00596274   -0.00054513
     atom  124 type  4   force =     0.00324649    0.00083460    0.00508956
     atom  125 type  4   force =    -0.01317625    0.00024094    0.00331540
     atom  126 type  4   force =    -0.01458186    0.00250166   -0.00328688
     atom  127 type  4   force =     0.01316465    0.00299537   -0.00434256
     atom  128 type  4   force =    -0.00436716   -0.00378893   -0.00003873
     atom  129 type  4   force =    -0.00439689    0.00269680   -0.00054123
     atom  130 type  4   force =     0.01643675   -0.00322663    0.00420435
     atom  131 type  1   force =    -0.00761787   -0.00705262   -0.00869617
     atom  132 type  2   force =     0.01563593    0.01711378   -0.00994119
     atom  133 type  1   force =     0.00583688   -0.00483901   -0.00612321
     atom  134 type  1   force =    -0.02038289    0.01923599    0.01972482
     atom  135 type  1   force =     0.00445402   -0.00759800   -0.00161021
     atom  136 type  1   force =    -0.00390240   -0.00531287   -0.00114875
     atom  137 type  3   force =    -0.03902964   -0.03835132   -0.05602174
     atom  138 type  3   force =    -0.00485922   -0.00126471   -0.00115421
     atom  139 type  3   force =     0.00273842   -0.00101452   -0.01012646
     atom  140 type  3   force =     0.02908943   -0.04948910   -0.06057444
     atom  141 type  4   force =     0.00623469    0.00355004    0.02100639
     atom  142 type  4   force =     0.00444715    0.00228380    0.01462407
     atom  143 type  4   force =    -0.00060623    0.00281227    0.01282784
     atom  144 type  4   force =     0.00018185    0.00224815    0.01636382
     atom  145 type  4   force =     0.00122501   -0.00061023    0.03919430
     atom  146 type  4   force =    -0.00546339   -0.00392454   -0.01718424
     atom  147 type  4   force =     0.00781667    0.00455311   -0.00276023
     atom  148 type  4   force =     0.00163606   -0.00736580    0.03553946
     atom  149 type  4   force =    -0.00933535    0.03911253    0.00096156
     atom  150 type  4   force =     0.00206475   -0.00043310    0.00793450
     atom  151 type  4   force =    -0.02991782    0.00088574    0.00765606
     atom  152 type  4   force =    -0.01357310    0.00144109   -0.00042813
     atom  153 type  4   force =     0.01207725    0.00360523   -0.00252782
     atom  154 type  4   force =    -0.00244025   -0.00276148    0.00247756
     atom  155 type  4   force =     0.00910840    0.02575659   -0.00260857
     atom  156 type  4   force =     0.03341800   -0.00619950    0.00602809
     atom  157 type  4   force =    -0.00299619    0.00272553   -0.00196052
     atom  158 type  5   force =     0.00375557   -0.00145674    0.00137610

     Total force =     0.237042     Total SCF correction =     0.002900
 
     init_run     :      6.37s CPU      7.17s WALL (       1 calls)
     electrons    :    584.12s CPU    619.40s WALL (       1 calls)
     forces       :      2.96s CPU      3.29s WALL (       1 calls)
     force_london :      0.09s CPU      0.09s WALL (       1 calls)

     Called by init_run:
     wfcinit      :      3.86s CPU      4.02s WALL (       1 calls)
     potinit      :      0.46s CPU      0.81s WALL (       1 calls)
     hinit0       :      1.17s CPU      1.28s WALL (       1 calls)

     Called by electrons:
     c_bands      :    462.37s CPU    481.57s WALL (      55 calls)
     sum_band     :     76.75s CPU     84.94s WALL (      55 calls)
     v_of_rho     :     11.49s CPU     13.00s WALL (      56 calls)
     newd         :     22.19s CPU     28.69s WALL (      56 calls)
     mix_rho      :     10.89s CPU     10.96s WALL (      55 calls)
     energy_londo :      0.09s CPU      0.09s WALL (       1 calls)

     Called by c_bands:
     init_us_2    :      1.24s CPU      1.29s WALL (     224 calls)
     init_us_2:cp :      1.24s CPU      1.29s WALL (     224 calls)
     regterg      :    451.89s CPU    470.98s WALL (     111 calls)

     Called by *egterg:
     rdiaghg      :    137.64s CPU    147.52s WALL (     514 calls)
     h_psi        :    175.32s CPU    179.52s WALL (     516 calls)
     s_psi        :     33.49s CPU     33.53s WALL (     516 calls)
     g_psi        :      0.26s CPU      0.26s WALL (     403 calls)

     Called by h_psi:
     h_psi:calbec :     44.10s CPU     47.55s WALL (     516 calls)
     vloc_psi     :     97.41s CPU     97.78s WALL (     516 calls)
     add_vuspsi   :     33.43s CPU     33.79s WALL (     516 calls)

     General routines
     calbec       :     65.46s CPU     70.57s WALL (     634 calls)
     fft          :      9.99s CPU     12.11s WALL (    1021 calls)
     ffts         :      7.66s CPU      7.69s WALL (    6809 calls)
     fftw         :    110.72s CPU    111.18s WALL (  189458 calls)
     interpolate  :      0.97s CPU      1.11s WALL (     112 calls)
 
     Parallel routines
 
     PWSCF        :   9m55.40s CPU  10m32.12s WALL

 
   This run was terminated on:   3:10:48  18Nov2025            

=------------------------------------------------------------------------------=
   JOB DONE.
=------------------------------------------------------------------------------=
