
     Program PWSCF v.7.2 starts on 17Nov2025 at 19:17:24 

     This program is part of the open-source Quantum ESPRESSO suite
     for quantum simulation of materials; please cite
         "P. Giannozzi et al., J. Phys.:Condens. Matter 21 395502 (2009);
         "P. Giannozzi et al., J. Phys.:Condens. Matter 29 465901 (2017);
         "P. Giannozzi et al., J. Chem. Phys. 152 154105 (2020);
          URL http://www.quantum-espresso.org", 
     in publications or presentations arising from this work. More details at
     http://www.quantum-espresso.org/quote

     Parallel version (MPI), running on    64 processors

     MPI processes distributed on     4 nodes
     481015 MiB available memory on the printing compute node when the environment starts
 
     Reading input from ./H2_removed/PW.in

     Current dimensions of program PWSCF are:
     Max number of different atomic species (ntypx) = 10
     Max number of k-points (npk) =  40000
     Max angular momentum in pseudopotentials (lmaxx) =  4
     Presently no symmetry can be used with electric field

     Presently stress not available with electric field and gates

     file Ni.pbe-n-rrkjus_psl.1.0.0.UPF: wavefunction(s)  3D renormalized
     file Mn.pbe-spn-rrkjus_psl.0.3.1.UPF: wavefunction(s)  3D renormalized
     file O.pbe-rrkjus.UPF: wavefunction(s)  2S renormalized
     file H.pbe-rrkjus.UPF: wavefunction(s)  1S renormalized

     gamma-point specific algorithms are used
 
     R & G space division:  proc/nbgrp/npool/nimage =      64
     Subspace diagonalization in iterative solution of the eigenvalue problem:
     one sub-group per band group will be used
     custom distributed-memory algorithm (size of sub-group:  6*  6 procs)

 
     Parallelization info
     --------------------
     sticks:   dense  smooth     PW     G-vecs:    dense   smooth      PW
     Min         208      82     20                59912    15118    1876
     Max         210      84     22                59974    15196    1926
     Sum       13399    5355   1345              3836275   970529  121367
 
     Using Slab Decomposition
 


     bravais-lattice index     =            0
     lattice parameter (alat)  =      17.7004  a.u.
     unit-cell volume          =   20319.7251 (a.u.)^3
     number of atoms/cell      =          158
     number of atomic types    =            5
     number of electrons       =      1078.00
     number of Kohn-Sham states=          647
     kinetic-energy cutoff     =      50.0000  Ry
     charge density cutoff     =     500.0000  Ry
     scf convergence threshold =      1.0E-06
     mixing beta               =       0.1000
     number of iterations used =            8  local-TF  mixing
     energy convergence thresh.=      1.0E-04
     force convergence thresh. =      1.0E-03
     Exchange-correlation=  SLA  PW   PBE  PBE
                           (   1   4   3   4   0   0   0)
     nstep                     =         1000


     celldm(1)=  17.700384  celldm(2)=   0.000000  celldm(3)=   0.000000
     celldm(4)=   0.000000  celldm(5)=   0.000000  celldm(6)=   0.000000

     crystal axes: (cart. coord. in units of alat)
               a(1) = (   1.000000   0.000000   0.000000 )  
               a(2) = (   0.000000   1.075730   0.000000 )  
               a(3) = (   0.000000   0.000000   3.406172 )  

     reciprocal axes: (cart. coord. in units 2 pi/alat)
               b(1) = (  1.000000  0.000000  0.000000 )  
               b(2) = (  0.000000  0.929602  0.000000 )  
               b(3) = (  0.000000  0.000000  0.293585 )  


     PseudoPot. # 1 for Ni read from file:
     ~/PSEUDO/Ni.pbe-n-rrkjus_psl.1.0.0.UPF
     MD5 check sum: Not computed, couldn't open file
     Pseudo is Ultrasoft + core correction, Zval = 10.0
     Generated using "atomic" code by A. Dal Corso  v.5.1.2
     Using radial grid of 1195 points,  6 beta functions with: 
                l(1) =   0
                l(2) =   0
                l(3) =   1
                l(4) =   1
                l(5) =   2
                l(6) =   2
     Q(r) pseudized with 0 coefficients 


     PseudoPot. # 2 for Mn read from file:
     ~/PSEUDO/Mn.pbe-spn-rrkjus_psl.0.3.1.UPF
     MD5 check sum: Not computed, couldn't open file
     Pseudo is Ultrasoft + core correction, Zval = 15.0
     Generated using &quot;atomic&quot; code by A. Dal Corso  v.6.2.2
     Using radial grid of 1187 points,  6 beta functions with: 
                l(1) =   0
                l(2) =   0
                l(3) =   1
                l(4) =   1
                l(5) =   2
                l(6) =   2
     Q(r) pseudized with 0 coefficients 


     PseudoPot. # 3 for P  read from file:
     ~/PSEUDO/P.pbe-n-rrkjus_psl.1.0.0.UPF
     MD5 check sum: Not computed, couldn't open file
     Pseudo is Ultrasoft + core correction, Zval =  5.0
     Generated using "atomic" code by A. Dal Corso  v.5.1
     Using radial grid of 1147 points,  6 beta functions with: 
                l(1) =   0
                l(2) =   0
                l(3) =   1
                l(4) =   1
                l(5) =   2
                l(6) =   2
     Q(r) pseudized with 0 coefficients 


     PseudoPot. # 4 for O  read from file:
     ~/PSEUDO/O.pbe-rrkjus.UPF
     MD5 check sum: Not computed, couldn't open file
     Pseudo is Ultrasoft, Zval =  6.0
     Generated by new atomic code, or converted to UPF format
     Using radial grid of 1269 points,  4 beta functions with: 
                l(1) =   0
                l(2) =   0
                l(3) =   1
                l(4) =   1
     Q(r) pseudized with 0 coefficients 


     PseudoPot. # 5 for H  read from file:
     ~/PSEUDO/H.pbe-rrkjus.UPF
     MD5 check sum: Not computed, couldn't open file
     Pseudo is Ultrasoft, Zval =  1.0
     Generated by new atomic code, or converted to UPF format
     Using radial grid of 1061 points,  2 beta functions with: 
                l(1) =   0
                l(2) =   0
     Q(r) pseudized with 0 coefficients 


     atomic species   valence    mass     pseudopotential
     Ni               10.00    58.69300     Ni( 1.00)
     Mn               15.00    54.93800     Mn( 1.00)
     P                 5.00    30.97300     P ( 1.00)
     O                 6.00    15.99900     O ( 1.00)
     H                 1.00     1.00790     H ( 1.00)

     Starting magnetic structure 
     atomic species   magnetization
     Ni              1.000
     Mn              1.000
     P               1.000
     O               1.000
     H               0.000

     No symmetry found



   Cartesian axes

     site n.     atom                  positions (alat units)
         1        Mn     tau(   1) = (   0.2404744   0.8371250   0.1168501  )
         2        Ni     tau(   2) = (   0.4968126   0.7726670   0.4415546  )
         3        Ni     tau(   3) = (   0.0066150   0.2936743   0.1241053  )
         4        Ni     tau(   4) = (   0.2585722   0.2355858   0.4448848  )
         5        Ni     tau(   5) = (   0.9987350   1.0696411   0.2854926  )
         6        Ni     tau(   6) = (   0.2517397   0.5330511   0.2829322  )
         7        Ni     tau(   7) = (   0.7451645   0.8337543   0.1221751  )
         8        Ni     tau(   8) = (   0.9939181   0.7738804   0.4407595  )
         9        Ni     tau(   9) = (   0.5111533   0.2924088   0.1251865  )
        10        Ni     tau(  10) = (   0.7606326   0.2319267   0.4451372  )
        11        Ni     tau(  11) = (   0.5024065   1.0688133   0.2870502  )
        12        Ni     tau(  12) = (   0.7529977   0.5317900   0.2845227  )
        13        P      tau(  13) = (   0.2092944   0.9731097   0.4345035  )
        14        P      tau(  14) = (   0.4655727   0.6359535   0.1274635  )
        15        P      tau(  15) = (   0.2910699   0.1027363   0.1296098  )
        16        P      tau(  16) = (   0.0396216   0.4288395   0.4398838  )
        17        O      tau(  17) = (   0.1294378   0.9013260   0.3010618  )
        18        O      tau(  18) = (   0.3874505   0.7054774   0.2637003  )
        19        O      tau(  19) = (   0.3702540   0.1714799   0.2660028  )
        20        O      tau(  20) = (   0.1184398   0.3582958   0.3038353  )
        21        O      tau(  21) = (   0.1451572   0.8850881   0.5587578  )
        22        O      tau(  22) = (   0.4048762   0.7245585   0.0017492  )
        23        O      tau(  23) = (   0.3523506   0.1900579   0.0035744  )
        24        O      tau(  24) = (   0.1017610   0.3410484   0.5656572  )
        25        O      tau(  25) = (   0.0975396   0.5849288   0.4357922  )
        26        O      tau(  26) = (   0.3483552   1.0314945   0.1270322  )
        27        O      tau(  27) = (   0.3784305   0.4225118   0.4308928  )
        28        O      tau(  28) = (   0.1268237   0.1067944   0.1392744  )
        29        O      tau(  29) = (   0.1212267   0.6424170   0.1362896  )
        30        O      tau(  30) = (   0.4053315   0.4809387   0.1300622  )
        31        O      tau(  31) = (   0.1536621   0.0446918   0.4373386  )
        32        O      tau(  32) = (   0.3732349   0.9631717   0.4256642  )
        33        P      tau(  33) = (   0.7119823   0.9695974   0.4373010  )
        34        P      tau(  34) = (   0.9615208   0.6363392   0.1262932  )
        35        P      tau(  35) = (   0.7927710   0.0970060   0.1292164  )
        36        P      tau(  36) = (   0.5426404   0.4269675   0.4410738  )
        37        O      tau(  37) = (   0.6326879   0.8991182   0.3013240  )
        38        O      tau(  38) = (   0.8842163   0.7083206   0.2625155  )
        39        O      tau(  39) = (   0.8716178   0.1677751   0.2653504  )
        40        O      tau(  40) = (   0.6212010   0.3558666   0.3051085  )
        41        O      tau(  41) = (   0.6507714   0.8812342   0.5631722  )
        42        O      tau(  42) = (   0.9014054   0.7264458   0.0010676  )
        43        O      tau(  43) = (   0.8548963   0.1847909   0.0035471  )
        44        O      tau(  44) = (   0.6044469   0.3378706   0.5660366  )
        45        O      tau(  45) = (   0.6024424   0.5823140   0.4379016  )
        46        O      tau(  46) = (   0.8498940   1.0254482   0.1275156  )
        47        O      tau(  47) = (   0.8798395   0.4205825   0.4305771  )
        48        O      tau(  48) = (   0.6286921   0.1034636   0.1397346  )
        49        O      tau(  49) = (   0.6294973   0.6427753   0.1372553  )
        50        O      tau(  50) = (   0.9024339   0.4810312   0.1296418  )
        51        O      tau(  51) = (   0.6547812   0.0410987   0.4396636  )
        52        O      tau(  52) = (   0.8760507   0.9632605   0.4264507  )
        53        Mn     tau(  53) = (   0.2404744   0.8246335   0.7367378  )
        54        Ni     tau(  54) = (   0.4968126   0.7601755   1.0614423  )
        55        Ni     tau(  55) = (   0.0066150   0.2811828   0.7439929  )
        56        Ni     tau(  56) = (   0.2585722   0.2230943   1.0647725  )
        57        Ni     tau(  57) = (   0.9987350   1.0571496   0.9053803  )
        58        Ni     tau(  58) = (   0.2517397   0.5205596   0.9028199  )
        59        Ni     tau(  59) = (   0.7451645   0.8212628   0.7420628  )
        60        Ni     tau(  60) = (   0.9939181   0.7613889   1.0606471  )
        61        Ni     tau(  61) = (   0.5111533   0.2799173   0.7450742  )
        62        Ni     tau(  62) = (   0.7606326   0.2194352   1.0650249  )
        63        Ni     tau(  63) = (   0.5024065   1.0563218   0.9069379  )
        64        Ni     tau(  64) = (   0.7529977   0.5192985   0.9044104  )
        65        P      tau(  65) = (   0.2092944   0.9606182   1.0543912  )
        66        P      tau(  66) = (   0.4655727   0.6234620   0.7473512  )
        67        P      tau(  67) = (   0.2910699   0.0902448   0.7494974  )
        68        P      tau(  68) = (   0.0396216   0.4163480   1.0597715  )
        69        O      tau(  69) = (   0.1294378   0.8888345   0.9209495  )
        70        O      tau(  70) = (   0.3874505   0.6929859   0.8835880  )
        71        O      tau(  71) = (   0.3702540   0.1589885   0.8858904  )
        72        O      tau(  72) = (   0.1184398   0.3458043   0.9237230  )
        73        O      tau(  73) = (   0.1451572   0.8725966   1.1786454  )
        74        O      tau(  74) = (   0.4048762   0.7120670   0.6216369  )
        75        O      tau(  75) = (   0.3523506   0.1775664   0.6234620  )
        76        O      tau(  76) = (   0.1017610   0.3285569   1.1855448  )
        77        O      tau(  77) = (   0.0975396   0.5724373   1.0556799  )
        78        O      tau(  78) = (   0.3483552   1.0190030   0.7469198  )
        79        O      tau(  79) = (   0.3784305   0.4100203   1.0507804  )
        80        O      tau(  80) = (   0.1268237   0.0943029   0.7591620  )
        81        O      tau(  81) = (   0.1212267   0.6299255   0.7561772  )
        82        O      tau(  82) = (   0.4053315   0.4684472   0.7499499  )
        83        O      tau(  83) = (   0.1536621   0.0322003   1.0572263  )
        84        O      tau(  84) = (   0.3732349   0.9506802   1.0455518  )
        85        P      tau(  85) = (   0.7119823   0.9571059   1.0571887  )
        86        P      tau(  86) = (   0.9615208   0.6238477   0.7461808  )
        87        P      tau(  87) = (   0.7927710   0.0845145   0.7491041  )
        88        P      tau(  88) = (   0.5426404   0.4144760   1.0609615  )
        89        O      tau(  89) = (   0.6326879   0.8866267   0.9212117  )
        90        O      tau(  90) = (   0.8842163   0.6958291   0.8824032  )
        91        O      tau(  91) = (   0.8716178   0.1552836   0.8852381  )
        92        O      tau(  92) = (   0.6212010   0.3433751   0.9249961  )
        93        O      tau(  93) = (   0.6507714   0.8687427   1.1830599  )
        94        O      tau(  94) = (   0.9014054   0.7139543   0.6209553  )
        95        O      tau(  95) = (   0.8548963   0.1722994   0.6234348  )
        96        O      tau(  96) = (   0.6044469   0.3253792   1.1859242  )
        97        O      tau(  97) = (   0.6024424   0.5698225   1.0577892  )
        98        O      tau(  98) = (   0.8498940   1.0129567   0.7474033  )
        99        O      tau(  99) = (   0.8798395   0.4080910   1.0504647  )
       100        O      tau( 100) = (   0.6286921   0.0909721   0.7596222  )
       101        O      tau( 101) = (   0.6294973   0.6302838   0.7571429  )
       102        O      tau( 102) = (   0.9024339   0.4685397   0.7495295  )
       103        O      tau( 103) = (   0.6547812   0.0286072   1.0595512  )
       104        O      tau( 104) = (   0.8760507   0.9507690   1.0463383  )
       105        Mn     tau( 105) = (   0.2360286   0.8108680   1.3646161  )
       106        Ni     tau( 106) = (   0.5051009   0.7460090   1.6766411  )
       107        Ni     tau( 107) = (   0.0089790   0.2684271   1.3696766  )
       108        Ni     tau( 108) = (   0.2495073   0.2106909   1.6775379  )
       109        Ni     tau( 109) = (   1.0062708   1.0454541   1.5360213  )
       110        Ni     tau( 110) = (   0.2479374   0.5066192   1.5313526  )
       111        Ni     tau( 111) = (   0.7431191   0.8063067   1.3679731  )
       112        Ni     tau( 112) = (   1.0037361   0.7473717   1.6794531  )
       113        Ni     tau( 113) = (   0.5111982   0.2673840   1.3697685  )
       114        Ni     tau( 114) = (   0.7492858   0.2093025   1.6762228  )
       115        Ni     tau( 115) = (   0.5067624   1.0449100   1.5350937  )
       116        Ni     tau( 116) = (   0.7468996   0.5064891   1.5326880  )
       117        P      tau( 117) = (   0.2178085   0.9351494   1.6988919  )
       118        P      tau( 118) = (   0.4617675   0.6087542   1.3710415  )
       119        P      tau( 119) = (   0.2937841   0.0753654   1.3734690  )
       120        P      tau( 120) = (   0.0358358   0.3974846   1.6921367  )
       121        O      tau( 121) = (   0.1387046   0.8724786   1.5548501  )
       122        O      tau( 122) = (   0.3848328   0.6786745   1.5075778  )
       123        O      tau( 123) = (   0.3719786   0.1445085   1.5096958  )
       124        O      tau( 124) = (   0.1143830   0.3367378   1.5464250  )
       125        O      tau( 125) = (   0.1565018   0.8385659   1.8140191  )
       126        O      tau( 126) = (   0.4021914   0.6979810   1.2450697  )
       127        O      tau( 127) = (   0.3541903   0.1613047   1.2462775  )
       128        O      tau( 128) = (   0.0965843   0.3001647   1.8071006  )
       129        O      tau( 129) = (   0.0920909   0.5552049   1.6903764  )
       130        O      tau( 130) = (   0.3517959   0.9950709   1.3768008  )
       131        O      tau( 131) = (   0.3708645   0.3936667   1.6775497  )
       132        O      tau( 132) = (   0.1298869   0.0804419   1.3855205  )
       133        O      tau( 133) = (   0.1211744   0.6182229   1.3826112  )
       134        O      tau( 134) = (   0.4011388   0.4540384   1.3730398  )
       135        O      tau( 135) = (   0.1623848   0.0174198   1.6939947  )
       136        O      tau( 136) = (   0.3826239   0.9300962   1.6813543  )
       137        P      tau( 137) = (   0.7173585   0.9337504   1.6934912  )
       138        P      tau( 138) = (   0.9568020   0.6100811   1.3706653  )
       139        P      tau( 139) = (   0.7946857   0.0710275   1.3726349  )
       140        P      tau( 140) = (   0.5359521   0.3960821   1.6924427  )
       141        O      tau( 141) = (   0.6389077   0.8730151   1.5475921  )
       142        O      tau( 142) = (   0.8816089   0.6823382   1.5072497  )
       143        O      tau( 143) = (   0.8719477   0.1432616   1.5087040  )
       144        O      tau( 144) = (   0.6148901   0.3350334   1.5469233  )
       145        O      tau( 145) = (   0.6569608   0.8359464   1.8081011  )
       146        O      tau( 146) = (   0.8981277   0.6986446   1.2438436  )
       147        O      tau( 147) = (   0.8555890   0.1585226   1.2461352  )
       148        O      tau( 148) = (   0.5953980   0.2976882   1.8070016  )
       149        O      tau( 149) = (   0.5932906   0.5533667   1.6911355  )
       150        O      tau( 150) = (   0.8547734   0.9920557   1.3765172  )
       151        O      tau( 151) = (   0.8708257   0.3933606   1.6779445  )
       152        O      tau( 152) = (   0.6306651   0.0781130   1.3844263  )
       153        O      tau( 153) = (   0.6257121   0.6164374   1.3827303  )
       154        O      tau( 154) = (   0.8983890   0.4550611   1.3741949  )
       155        O      tau( 155) = (   0.6612130   0.0158887   1.6915759  )
       156        O      tau( 156) = (   0.8825535   0.9305716   1.6802158  )
       157        O      tau( 157) = (   0.8641634   0.6477083   1.8527746  )
       158        H      tau( 158) = (   0.7755105   0.7077480   1.8584864  )

     -------------------------------------------------
     Parameters for Dispersion (Grimme-D2) Correction:
     -------------------------------------------------
       atom      VdW radius       C_6     

        Ni         2.952        374.666
        Mn         2.952        374.666
        P          3.222        271.980
        O          2.536         24.284
        H          1.892          4.857

     number of k points=     1  Gaussian smearing, width (Ry)=  0.0100
                       cart. coord. in units 2pi/alat
        k(    1) = (   0.0000000   0.0000000   0.0000000), wk =   1.0000000

     Dense  grid:  1918138 G-vectors     FFT dimensions: ( 125, 135, 432)

     Smooth grid:   485265 G-vectors     FFT dimensions: (  80,  90, 288)

     Estimated max dynamical RAM per process >     320.12 MB

     Estimated total dynamical RAM >      20.01 GB
     Generating pointlists ...
     new r_m :   0.0866 (alat units)  1.5324 (a.u.) for type    1
     new r_m :   0.0869 (alat units)  1.5388 (a.u.) for type    2
     new r_m :   0.0650 (alat units)  1.1499 (a.u.) for type    3
     new r_m :   0.0442 (alat units)  0.7829 (a.u.) for type    4
     new r_m :   0.0442 (alat units)  0.7829 (a.u.) for type    5

     Initial potential from superposition of free atoms

     starting charge    1077.8900, renormalised to    1078.0000

     negative rho (up, down):  1.235E-03 4.526E-04
 
     Adding external electric field

     Computed dipole along edir(3) : 
        Dipole                1.6137 Ry au,          4.1017 Debye
        Dipole field          0.0010 Ry au, 
 
        Potential amp.       -0.1083 Ry
        Total length         54.2615 bohr
 
 
     Adding external electric field

     Computed dipole along edir(3) : 
        Dipole                1.6137 Ry au,          4.1017 Debye
        Dipole field          0.0010 Ry au, 
 
        Potential amp.       -0.1083 Ry
        Total length         54.2615 bohr
 
     Starting wfcs are  812 randomized atomic wfcs

     total cpu time spent up to now is       12.8 secs

     Self-consistent Calculation

     iteration #  1     ecut=    50.00 Ry     beta= 0.10
     Davidson diagonalization with overlap
     ethr =  1.00E-02,  avg # of iterations =  6.0

     negative rho (up, down):  3.316E-01 1.941E-06
 
     Adding external electric field

     Computed dipole along edir(3) : 
        Dipole               -3.5459 Ry au,         -9.0128 Debye
        Dipole field         -0.0022 Ry au, 
 
        Potential amp.        0.2380 Ry
        Total length         54.2615 bohr
 
 
     Adding external electric field

     Computed dipole along edir(3) : 
        Dipole               -3.5459 Ry au,         -9.0128 Debye
        Dipole field         -0.0022 Ry au, 
 
        Potential amp.        0.2380 Ry
        Total length         54.2615 bohr
 

     total cpu time spent up to now is       47.3 secs

     total energy              =   -7179.12458800 Ry
     estimated scf accuracy    <     755.19791755 Ry

     total magnetization       =   216.00 Bohr mag/cell
     absolute magnetization    =   296.63 Bohr mag/cell

     iteration #  2     ecut=    50.00 Ry     beta= 0.10
     Davidson diagonalization with overlap
     ethr =  1.00E-02,  avg # of iterations =  2.0

     negative rho (up, down):  3.139E-01 1.419E-06
 
     Adding external electric field

     Computed dipole along edir(3) : 
        Dipole               -2.3991 Ry au,         -6.0978 Debye
        Dipole field         -0.0015 Ry au, 
 
        Potential amp.        0.1610 Ry
        Total length         54.2615 bohr
 
 
     Adding external electric field

     Computed dipole along edir(3) : 
        Dipole               -2.3991 Ry au,         -6.0978 Debye
        Dipole field         -0.0015 Ry au, 
 
        Potential amp.        0.1610 Ry
        Total length         54.2615 bohr
 

     total cpu time spent up to now is       67.4 secs

     total energy              =   -7262.70582408 Ry
     estimated scf accuracy    <     197.69458965 Ry

     total magnetization       =   149.05 Bohr mag/cell
     absolute magnetization    =   199.43 Bohr mag/cell

     iteration #  3     ecut=    50.00 Ry     beta= 0.10
     Davidson diagonalization with overlap
     ethr =  1.00E-02,  avg # of iterations =  1.5

     negative rho (up, down):  2.766E-01 1.208E-06
 
     Adding external electric field

     Computed dipole along edir(3) : 
        Dipole               -2.0538 Ry au,         -5.2202 Debye
        Dipole field         -0.0013 Ry au, 
 
        Potential amp.        0.1378 Ry
        Total length         54.2615 bohr
 
 
     Adding external electric field

     Computed dipole along edir(3) : 
        Dipole               -2.0538 Ry au,         -5.2202 Debye
        Dipole field         -0.0013 Ry au, 
 
        Potential amp.        0.1378 Ry
        Total length         54.2615 bohr
 

     total cpu time spent up to now is       83.2 secs

     total energy              =   -7293.43604838 Ry
     estimated scf accuracy    <      98.07347795 Ry

     total magnetization       =   124.80 Bohr mag/cell
     absolute magnetization    =   178.81 Bohr mag/cell

     iteration #  4     ecut=    50.00 Ry     beta= 0.10
     Davidson diagonalization with overlap
     ethr =  9.10E-03,  avg # of iterations =  1.5

     negative rho (up, down):  2.070E-01 3.624E-07
 
     Adding external electric field

     Computed dipole along edir(3) : 
        Dipole               -1.9735 Ry au,         -5.0162 Debye
        Dipole field         -0.0012 Ry au, 
 
        Potential amp.        0.1325 Ry
        Total length         54.2615 bohr
 
 
     Adding external electric field

     Computed dipole along edir(3) : 
        Dipole               -1.9735 Ry au,         -5.0162 Debye
        Dipole field         -0.0012 Ry au, 
 
        Potential amp.        0.1325 Ry
        Total length         54.2615 bohr
 

     total cpu time spent up to now is       99.2 secs

     total energy              =   -7327.71377319 Ry
     estimated scf accuracy    <      78.25398264 Ry

     total magnetization       =   110.03 Bohr mag/cell
     absolute magnetization    =   164.60 Bohr mag/cell

     iteration #  5     ecut=    50.00 Ry     beta= 0.10
     Davidson diagonalization with overlap
     ethr =  7.26E-03,  avg # of iterations =  1.5

     negative rho (up, down):  7.582E-03 1.305E-06
 
     Adding external electric field

     Computed dipole along edir(3) : 
        Dipole               -1.5478 Ry au,         -3.9340 Debye
        Dipole field         -0.0010 Ry au, 
 
        Potential amp.        0.1039 Ry
        Total length         54.2615 bohr
 
 
     Adding external electric field

     Computed dipole along edir(3) : 
        Dipole               -1.5478 Ry au,         -3.9340 Debye
        Dipole field         -0.0010 Ry au, 
 
        Potential amp.        0.1039 Ry
        Total length         54.2615 bohr
 

     total cpu time spent up to now is      115.3 secs

     total energy              =   -7386.76247272 Ry
     estimated scf accuracy    <      60.58962480 Ry

     total magnetization       =    88.01 Bohr mag/cell
     absolute magnetization    =   145.62 Bohr mag/cell

     iteration #  6     ecut=    50.00 Ry     beta= 0.10
     Davidson diagonalization with overlap
     ethr =  5.62E-03,  avg # of iterations =  1.5

     negative rho (up, down):  8.212E-04 7.252E-04
 
     Adding external electric field

     Computed dipole along edir(3) : 
        Dipole               -1.2837 Ry au,         -3.2628 Debye
        Dipole field         -0.0008 Ry au, 
 
        Potential amp.        0.0862 Ry
        Total length         54.2615 bohr
 
 
     Adding external electric field

     Computed dipole along edir(3) : 
        Dipole               -1.2837 Ry au,         -3.2628 Debye
        Dipole field         -0.0008 Ry au, 
 
        Potential amp.        0.0862 Ry
        Total length         54.2615 bohr
 

     total cpu time spent up to now is      131.4 secs

     total energy              =   -7395.46257152 Ry
     estimated scf accuracy    <       9.02161051 Ry

     total magnetization       =    81.62 Bohr mag/cell
     absolute magnetization    =   114.56 Bohr mag/cell

     iteration #  7     ecut=    50.00 Ry     beta= 0.10
     Davidson diagonalization with overlap
     ethr =  8.37E-04,  avg # of iterations = 10.0

     negative rho (up, down):  7.692E-04 7.117E-04
 
     Adding external electric field

     Computed dipole along edir(3) : 
        Dipole               -1.2868 Ry au,         -3.2706 Debye
        Dipole field         -0.0008 Ry au, 
 
        Potential amp.        0.0864 Ry
        Total length         54.2615 bohr
 
 
     Adding external electric field

     Computed dipole along edir(3) : 
        Dipole               -1.2868 Ry au,         -3.2706 Debye
        Dipole field         -0.0008 Ry au, 
 
        Potential amp.        0.0864 Ry
        Total length         54.2615 bohr
 

     total cpu time spent up to now is      164.3 secs

     total energy              =   -7397.62635108 Ry
     estimated scf accuracy    <      12.51875482 Ry

     total magnetization       =    70.31 Bohr mag/cell
     absolute magnetization    =    87.48 Bohr mag/cell

     iteration #  8     ecut=    50.00 Ry     beta= 0.10
     Davidson diagonalization with overlap
     ethr =  8.37E-04,  avg # of iterations =  1.0

     negative rho (up, down):  1.561E-03 7.918E-04
 
     Adding external electric field

     Computed dipole along edir(3) : 
        Dipole               -1.2257 Ry au,         -3.1154 Debye
        Dipole field         -0.0008 Ry au, 
 
        Potential amp.        0.0823 Ry
        Total length         54.2615 bohr
 
 
     Adding external electric field

     Computed dipole along edir(3) : 
        Dipole               -1.2257 Ry au,         -3.1154 Debye
        Dipole field         -0.0008 Ry au, 
 
        Potential amp.        0.0823 Ry
        Total length         54.2615 bohr
 

     total cpu time spent up to now is      179.5 secs

     total energy              =   -7397.61172558 Ry
     estimated scf accuracy    <      12.81466880 Ry

     total magnetization       =    70.18 Bohr mag/cell
     absolute magnetization    =    87.00 Bohr mag/cell

     iteration #  9     ecut=    50.00 Ry     beta= 0.10
     Davidson diagonalization with overlap
     ethr =  8.37E-04,  avg # of iterations =  1.0

     negative rho (up, down):  1.142E-02 9.620E-03
 
     Adding external electric field

     Computed dipole along edir(3) : 
        Dipole               -1.0317 Ry au,         -2.6223 Debye
        Dipole field         -0.0006 Ry au, 
 
        Potential amp.        0.0692 Ry
        Total length         54.2615 bohr
 
 
     Adding external electric field

     Computed dipole along edir(3) : 
        Dipole               -1.0317 Ry au,         -2.6223 Debye
        Dipole field         -0.0006 Ry au, 
 
        Potential amp.        0.0692 Ry
        Total length         54.2615 bohr
 

     total cpu time spent up to now is      194.4 secs

     total energy              =   -7397.53410543 Ry
     estimated scf accuracy    <      10.37570646 Ry

     total magnetization       =    71.33 Bohr mag/cell
     absolute magnetization    =    87.58 Bohr mag/cell

     iteration # 10     ecut=    50.00 Ry     beta= 0.10
     Davidson diagonalization with overlap
     ethr =  8.37E-04,  avg # of iterations =  1.0

     negative rho (up, down):  2.864E-02 2.759E-02
 
     Adding external electric field

     Computed dipole along edir(3) : 
        Dipole               -0.9836 Ry au,         -2.5000 Debye
        Dipole field         -0.0006 Ry au, 
 
        Potential amp.        0.0660 Ry
        Total length         54.2615 bohr
 
 
     Adding external electric field

     Computed dipole along edir(3) : 
        Dipole               -0.9836 Ry au,         -2.5000 Debye
        Dipole field         -0.0006 Ry au, 
 
        Potential amp.        0.0660 Ry
        Total length         54.2615 bohr
 

     total cpu time spent up to now is      208.9 secs

     total energy              =   -7397.56188096 Ry
     estimated scf accuracy    <       8.28145229 Ry

     total magnetization       =    72.01 Bohr mag/cell
     absolute magnetization    =    87.14 Bohr mag/cell

     iteration # 11     ecut=    50.00 Ry     beta= 0.10
     Davidson diagonalization with overlap
     ethr =  7.68E-04,  avg # of iterations =  1.0

     negative rho (up, down):  7.092E-02 7.110E-02
 
     Adding external electric field

     Computed dipole along edir(3) : 
        Dipole               -0.8911 Ry au,         -2.2650 Debye
        Dipole field         -0.0006 Ry au, 
 
        Potential amp.        0.0598 Ry
        Total length         54.2615 bohr
 
 
     Adding external electric field

     Computed dipole along edir(3) : 
        Dipole               -0.8911 Ry au,         -2.2650 Debye
        Dipole field         -0.0006 Ry au, 
 
        Potential amp.        0.0598 Ry
        Total length         54.2615 bohr
 

     total cpu time spent up to now is      223.6 secs

     total energy              =   -7397.57877259 Ry
     estimated scf accuracy    <       6.73876563 Ry

     total magnetization       =    73.12 Bohr mag/cell
     absolute magnetization    =    87.18 Bohr mag/cell

     iteration # 12     ecut=    50.00 Ry     beta= 0.10
     Davidson diagonalization with overlap
     ethr =  6.25E-04,  avg # of iterations =  1.0

     negative rho (up, down):  8.614E-02 8.766E-02
 
     Adding external electric field

     Computed dipole along edir(3) : 
        Dipole               -0.7791 Ry au,         -1.9802 Debye
        Dipole field         -0.0005 Ry au, 
 
        Potential amp.        0.0523 Ry
        Total length         54.2615 bohr
 
 
     Adding external electric field

     Computed dipole along edir(3) : 
        Dipole               -0.7791 Ry au,         -1.9802 Debye
        Dipole field         -0.0005 Ry au, 
 
        Potential amp.        0.0523 Ry
        Total length         54.2615 bohr
 

     total cpu time spent up to now is      238.2 secs

     total energy              =   -7397.65193172 Ry
     estimated scf accuracy    <       4.22780374 Ry

     total magnetization       =    76.27 Bohr mag/cell
     absolute magnetization    =    88.36 Bohr mag/cell

     iteration # 13     ecut=    50.00 Ry     beta= 0.10
     Davidson diagonalization with overlap
     ethr =  3.92E-04,  avg # of iterations =  1.0

     negative rho (up, down):  1.078E-01 1.101E-01
 
     Adding external electric field

     Computed dipole along edir(3) : 
        Dipole               -0.6742 Ry au,         -1.7137 Debye
        Dipole field         -0.0004 Ry au, 
 
        Potential amp.        0.0452 Ry
        Total length         54.2615 bohr
 
 
     Adding external electric field

     Computed dipole along edir(3) : 
        Dipole               -0.6742 Ry au,         -1.7137 Debye
        Dipole field         -0.0004 Ry au, 
 
        Potential amp.        0.0452 Ry
        Total length         54.2615 bohr
 

     total cpu time spent up to now is      252.5 secs

     total energy              =   -7397.70756814 Ry
     estimated scf accuracy    <       3.75236277 Ry

     total magnetization       =    76.70 Bohr mag/cell
     absolute magnetization    =    88.00 Bohr mag/cell

     iteration # 14     ecut=    50.00 Ry     beta= 0.10
     Davidson diagonalization with overlap
     ethr =  3.48E-04,  avg # of iterations =  1.0

     negative rho (up, down):  8.837E-02 9.297E-02
 
     Adding external electric field

     Computed dipole along edir(3) : 
        Dipole               -0.8079 Ry au,         -2.0535 Debye
        Dipole field         -0.0005 Ry au, 
 
        Potential amp.        0.0542 Ry
        Total length         54.2615 bohr
 
 
     Adding external electric field

     Computed dipole along edir(3) : 
        Dipole               -0.8079 Ry au,         -2.0535 Debye
        Dipole field         -0.0005 Ry au, 
 
        Potential amp.        0.0542 Ry
        Total length         54.2615 bohr
 

     total cpu time spent up to now is      266.7 secs

     total energy              =   -7397.73833702 Ry
     estimated scf accuracy    <       2.28134338 Ry

     total magnetization       =    78.81 Bohr mag/cell
     absolute magnetization    =    88.47 Bohr mag/cell

     iteration # 15     ecut=    50.00 Ry     beta= 0.10
     Davidson diagonalization with overlap
     ethr =  2.12E-04,  avg # of iterations =  1.5

     negative rho (up, down):  8.864E-02 9.316E-02
 
     Adding external electric field

     Computed dipole along edir(3) : 
        Dipole               -0.8301 Ry au,         -2.1098 Debye
        Dipole field         -0.0005 Ry au, 
 
        Potential amp.        0.0557 Ry
        Total length         54.2615 bohr
 
 
     Adding external electric field

     Computed dipole along edir(3) : 
        Dipole               -0.8301 Ry au,         -2.1098 Debye
        Dipole field         -0.0005 Ry au, 
 
        Potential amp.        0.0557 Ry
        Total length         54.2615 bohr
 

     total cpu time spent up to now is      282.1 secs

     total energy              =   -7397.75454671 Ry
     estimated scf accuracy    <       1.44669203 Ry

     total magnetization       =    78.14 Bohr mag/cell
     absolute magnetization    =    87.38 Bohr mag/cell

     iteration # 16     ecut=    50.00 Ry     beta= 0.10
     Davidson diagonalization with overlap
     ethr =  1.34E-04,  avg # of iterations =  1.5

     negative rho (up, down):  6.550E-02 6.927E-02
 
     Adding external electric field

     Computed dipole along edir(3) : 
        Dipole               -1.1107 Ry au,         -2.8232 Debye
        Dipole field         -0.0007 Ry au, 
 
        Potential amp.        0.0745 Ry
        Total length         54.2615 bohr
 
 
     Adding external electric field

     Computed dipole along edir(3) : 
        Dipole               -1.1107 Ry au,         -2.8232 Debye
        Dipole field         -0.0007 Ry au, 
 
        Potential amp.        0.0745 Ry
        Total length         54.2615 bohr
 

     total cpu time spent up to now is      297.7 secs

     total energy              =   -7397.78898757 Ry
     estimated scf accuracy    <       1.17620057 Ry

     total magnetization       =    78.51 Bohr mag/cell
     absolute magnetization    =    87.44 Bohr mag/cell

     iteration # 17     ecut=    50.00 Ry     beta= 0.10
     Davidson diagonalization with overlap
     ethr =  1.09E-04,  avg # of iterations =  2.5

     negative rho (up, down):  5.154E-02 5.194E-02
 
     Adding external electric field

     Computed dipole along edir(3) : 
        Dipole               -1.2119 Ry au,         -3.0803 Debye
        Dipole field         -0.0007 Ry au, 
 
        Potential amp.        0.0813 Ry
        Total length         54.2615 bohr
 
 
     Adding external electric field

     Computed dipole along edir(3) : 
        Dipole               -1.2119 Ry au,         -3.0803 Debye
        Dipole field         -0.0007 Ry au, 
 
        Potential amp.        0.0813 Ry
        Total length         54.2615 bohr
 

     total cpu time spent up to now is      313.7 secs

     total energy              =   -7397.91631501 Ry
     estimated scf accuracy    <       1.12120964 Ry

     total magnetization       =    80.21 Bohr mag/cell
     absolute magnetization    =    86.91 Bohr mag/cell

     iteration # 18     ecut=    50.00 Ry     beta= 0.10
     Davidson diagonalization with overlap
     ethr =  1.04E-04,  avg # of iterations =  1.5

     negative rho (up, down):  3.502E-02 3.351E-02
 
     Adding external electric field

     Computed dipole along edir(3) : 
        Dipole               -1.1557 Ry au,         -2.9375 Debye
        Dipole field         -0.0007 Ry au, 
 
        Potential amp.        0.0776 Ry
        Total length         54.2615 bohr
 
 
     Adding external electric field

     Computed dipole along edir(3) : 
        Dipole               -1.1557 Ry au,         -2.9375 Debye
        Dipole field         -0.0007 Ry au, 
 
        Potential amp.        0.0776 Ry
        Total length         54.2615 bohr
 

     total cpu time spent up to now is      329.0 secs

     total energy              =   -7397.89363065 Ry
     estimated scf accuracy    <       0.68234298 Ry

     total magnetization       =    81.13 Bohr mag/cell
     absolute magnetization    =    86.43 Bohr mag/cell

     iteration # 19     ecut=    50.00 Ry     beta= 0.10
     Davidson diagonalization with overlap
     ethr =  6.33E-05,  avg # of iterations = 11.5

     negative rho (up, down):  1.391E-02 1.251E-02
 
     Adding external electric field

     Computed dipole along edir(3) : 
        Dipole               -1.1046 Ry au,         -2.8077 Debye
        Dipole field         -0.0007 Ry au, 
 
        Potential amp.        0.0741 Ry
        Total length         54.2615 bohr
 
 
     Adding external electric field

     Computed dipole along edir(3) : 
        Dipole               -1.1046 Ry au,         -2.8077 Debye
        Dipole field         -0.0007 Ry au, 
 
        Potential amp.        0.0741 Ry
        Total length         54.2615 bohr
 

     total cpu time spent up to now is      358.0 secs

     total energy              =   -7397.91966232 Ry
     estimated scf accuracy    <       0.40314166 Ry

     total magnetization       =    81.13 Bohr mag/cell
     absolute magnetization    =    86.68 Bohr mag/cell

     iteration # 20     ecut=    50.00 Ry     beta= 0.10
     Davidson diagonalization with overlap
     ethr =  3.74E-05,  avg # of iterations =  1.5

     negative rho (up, down):  2.928E-03 2.672E-03
 
     Adding external electric field

     Computed dipole along edir(3) : 
        Dipole               -1.0520 Ry au,         -2.6739 Debye
        Dipole field         -0.0007 Ry au, 
 
        Potential amp.        0.0706 Ry
        Total length         54.2615 bohr
 
 
     Adding external electric field

     Computed dipole along edir(3) : 
        Dipole               -1.0520 Ry au,         -2.6739 Debye
        Dipole field         -0.0007 Ry au, 
 
        Potential amp.        0.0706 Ry
        Total length         54.2615 bohr
 

     total cpu time spent up to now is      373.7 secs

     total energy              =   -7397.95142679 Ry
     estimated scf accuracy    <       0.24549205 Ry

     total magnetization       =    80.94 Bohr mag/cell
     absolute magnetization    =    85.56 Bohr mag/cell

     iteration # 21     ecut=    50.00 Ry     beta= 0.10
     Davidson diagonalization with overlap
     ethr =  2.28E-05,  avg # of iterations =  2.0

     negative rho (up, down):  1.518E-05 1.830E-04
 
     Adding external electric field

     Computed dipole along edir(3) : 
        Dipole               -0.9672 Ry au,         -2.4583 Debye
        Dipole field         -0.0006 Ry au, 
 
        Potential amp.        0.0649 Ry
        Total length         54.2615 bohr
 
 
     Adding external electric field

     Computed dipole along edir(3) : 
        Dipole               -0.9672 Ry au,         -2.4583 Debye
        Dipole field         -0.0006 Ry au, 
 
        Potential amp.        0.0649 Ry
        Total length         54.2615 bohr
 

     total cpu time spent up to now is      390.1 secs

     total energy              =   -7397.95266895 Ry
     estimated scf accuracy    <       0.21874303 Ry

     total magnetization       =    80.74 Bohr mag/cell
     absolute magnetization    =    84.40 Bohr mag/cell

     iteration # 22     ecut=    50.00 Ry     beta= 0.10
     Davidson diagonalization with overlap
     ethr =  2.03E-05,  avg # of iterations =  2.0

     negative rho (up, down):  1.196E-05 1.305E-04
 
     Adding external electric field

     Computed dipole along edir(3) : 
        Dipole               -0.9816 Ry au,         -2.4949 Debye
        Dipole field         -0.0006 Ry au, 
 
        Potential amp.        0.0659 Ry
        Total length         54.2615 bohr
 
 
     Adding external electric field

     Computed dipole along edir(3) : 
        Dipole               -0.9816 Ry au,         -2.4949 Debye
        Dipole field         -0.0006 Ry au, 
 
        Potential amp.        0.0659 Ry
        Total length         54.2615 bohr
 

     total cpu time spent up to now is      406.2 secs

     total energy              =   -7397.97004207 Ry
     estimated scf accuracy    <       0.22519611 Ry

     total magnetization       =    80.21 Bohr mag/cell
     absolute magnetization    =    82.47 Bohr mag/cell

     iteration # 23     ecut=    50.00 Ry     beta= 0.10
     Davidson diagonalization with overlap
     ethr =  2.03E-05,  avg # of iterations =  1.5

     negative rho (up, down):  2.873E-04 4.260E-04
 
     Adding external electric field

     Computed dipole along edir(3) : 
        Dipole               -1.0238 Ry au,         -2.6023 Debye
        Dipole field         -0.0006 Ry au, 
 
        Potential amp.        0.0687 Ry
        Total length         54.2615 bohr
 
 
     Adding external electric field

     Computed dipole along edir(3) : 
        Dipole               -1.0238 Ry au,         -2.6023 Debye
        Dipole field         -0.0006 Ry au, 
 
        Potential amp.        0.0687 Ry
        Total length         54.2615 bohr
 

     total cpu time spent up to now is      421.7 secs

     total energy              =   -7397.97659468 Ry
     estimated scf accuracy    <       0.16293506 Ry

     total magnetization       =    80.14 Bohr mag/cell
     absolute magnetization    =    82.31 Bohr mag/cell

     iteration # 24     ecut=    50.00 Ry     beta= 0.10
     Davidson diagonalization with overlap
     ethr =  1.51E-05,  avg # of iterations =  2.0

     negative rho (up, down):  2.137E-05 3.180E-05
 
     Adding external electric field

     Computed dipole along edir(3) : 
        Dipole               -0.9518 Ry au,         -2.4193 Debye
        Dipole field         -0.0006 Ry au, 
 
        Potential amp.        0.0639 Ry
        Total length         54.2615 bohr
 
 
     Adding external electric field

     Computed dipole along edir(3) : 
        Dipole               -0.9518 Ry au,         -2.4193 Debye
        Dipole field         -0.0006 Ry au, 
 
        Potential amp.        0.0639 Ry
        Total length         54.2615 bohr
 

     total cpu time spent up to now is      437.7 secs

     total energy              =   -7397.97780873 Ry
     estimated scf accuracy    <       0.04251294 Ry

     total magnetization       =    80.22 Bohr mag/cell
     absolute magnetization    =    82.16 Bohr mag/cell

     iteration # 25     ecut=    50.00 Ry     beta= 0.10
     Davidson diagonalization with overlap
     c_bands:  4 eigenvalues not converged
     c_bands:  3 eigenvalues not converged
     ethr =  3.94E-06,  avg # of iterations = 20.0

     negative rho (up, down):  7.821E-05 1.118E-04
 
     Adding external electric field

     Computed dipole along edir(3) : 
        Dipole               -0.9187 Ry au,         -2.3352 Debye
        Dipole field         -0.0006 Ry au, 
 
        Potential amp.        0.0617 Ry
        Total length         54.2615 bohr
 
 
     Adding external electric field

     Computed dipole along edir(3) : 
        Dipole               -0.9187 Ry au,         -2.3352 Debye
        Dipole field         -0.0006 Ry au, 
 
        Potential amp.        0.0617 Ry
        Total length         54.2615 bohr
 

     total cpu time spent up to now is      471.1 secs

     total energy              =   -7397.97853160 Ry
     estimated scf accuracy    <       0.05354633 Ry

     total magnetization       =    80.70 Bohr mag/cell
     absolute magnetization    =    82.46 Bohr mag/cell

     iteration # 26     ecut=    50.00 Ry     beta= 0.10
     Davidson diagonalization with overlap
     ethr =  3.94E-06,  avg # of iterations =  2.0

     negative rho (up, down):  3.686E-07 2.913E-07
 
     Adding external electric field

     Computed dipole along edir(3) : 
        Dipole               -0.8780 Ry au,         -2.2315 Debye
        Dipole field         -0.0005 Ry au, 
 
        Potential amp.        0.0589 Ry
        Total length         54.2615 bohr
 
 
     Adding external electric field

     Computed dipole along edir(3) : 
        Dipole               -0.8780 Ry au,         -2.2315 Debye
        Dipole field         -0.0005 Ry au, 
 
        Potential amp.        0.0589 Ry
        Total length         54.2615 bohr
 

     total cpu time spent up to now is      486.9 secs

     total energy              =   -7397.97757046 Ry
     estimated scf accuracy    <       0.07203296 Ry

     total magnetization       =    80.33 Bohr mag/cell
     absolute magnetization    =    81.98 Bohr mag/cell

     iteration # 27     ecut=    50.00 Ry     beta= 0.10
     Davidson diagonalization with overlap
     ethr =  3.94E-06,  avg # of iterations =  1.0

     negative rho (up, down):  4.280E-05 3.764E-05
 
     Adding external electric field

     Computed dipole along edir(3) : 
        Dipole               -0.8609 Ry au,         -2.1882 Debye
        Dipole field         -0.0005 Ry au, 
 
        Potential amp.        0.0578 Ry
        Total length         54.2615 bohr
 
 
     Adding external electric field

     Computed dipole along edir(3) : 
        Dipole               -0.8609 Ry au,         -2.1882 Debye
        Dipole field         -0.0005 Ry au, 
 
        Potential amp.        0.0578 Ry
        Total length         54.2615 bohr
 

     total cpu time spent up to now is      501.4 secs

     total energy              =   -7397.97807724 Ry
     estimated scf accuracy    <       0.03120653 Ry

     total magnetization       =    80.69 Bohr mag/cell
     absolute magnetization    =    82.21 Bohr mag/cell

     iteration # 28     ecut=    50.00 Ry     beta= 0.10
     Davidson diagonalization with overlap
     ethr =  2.89E-06,  avg # of iterations =  1.5

     negative rho (up, down):  2.415E-04 1.998E-04
 
     Adding external electric field

     Computed dipole along edir(3) : 
        Dipole               -0.8545 Ry au,         -2.1720 Debye
        Dipole field         -0.0005 Ry au, 
 
        Potential amp.        0.0574 Ry
        Total length         54.2615 bohr
 
 
     Adding external electric field

     Computed dipole along edir(3) : 
        Dipole               -0.8545 Ry au,         -2.1720 Debye
        Dipole field         -0.0005 Ry au, 
 
        Potential amp.        0.0574 Ry
        Total length         54.2615 bohr
 

     total cpu time spent up to now is      516.3 secs

     total energy              =   -7397.97721306 Ry
     estimated scf accuracy    <       0.03046684 Ry

     total magnetization       =    80.47 Bohr mag/cell
     absolute magnetization    =    81.99 Bohr mag/cell

     iteration # 29     ecut=    50.00 Ry     beta= 0.10
     Davidson diagonalization with overlap
     ethr =  2.83E-06,  avg # of iterations =  2.0

     negative rho (up, down):  2.224E-04 1.769E-04
 
     Adding external electric field

     Computed dipole along edir(3) : 
        Dipole               -0.8468 Ry au,         -2.1525 Debye
        Dipole field         -0.0005 Ry au, 
 
        Potential amp.        0.0568 Ry
        Total length         54.2615 bohr
 
 
     Adding external electric field

     Computed dipole along edir(3) : 
        Dipole               -0.8468 Ry au,         -2.1525 Debye
        Dipole field         -0.0005 Ry au, 
 
        Potential amp.        0.0568 Ry
        Total length         54.2615 bohr
 

     total cpu time spent up to now is      532.1 secs

     total energy              =   -7397.97713052 Ry
     estimated scf accuracy    <       0.01751924 Ry

     total magnetization       =    80.49 Bohr mag/cell
     absolute magnetization    =    81.99 Bohr mag/cell

     iteration # 30     ecut=    50.00 Ry     beta= 0.10
     Davidson diagonalization with overlap
     ethr =  1.63E-06,  avg # of iterations =  1.0

     negative rho (up, down):  1.996E-04 1.477E-04
 
     Adding external electric field

     Computed dipole along edir(3) : 
        Dipole               -0.8321 Ry au,         -2.1149 Debye
        Dipole field         -0.0005 Ry au, 
 
        Potential amp.        0.0558 Ry
        Total length         54.2615 bohr
 
 
     Adding external electric field

     Computed dipole along edir(3) : 
        Dipole               -0.8321 Ry au,         -2.1149 Debye
        Dipole field         -0.0005 Ry au, 
 
        Potential amp.        0.0558 Ry
        Total length         54.2615 bohr
 

     total cpu time spent up to now is      546.5 secs

     total energy              =   -7397.97682046 Ry
     estimated scf accuracy    <       0.01582375 Ry

     total magnetization       =    80.53 Bohr mag/cell
     absolute magnetization    =    82.02 Bohr mag/cell

     iteration # 31     ecut=    50.00 Ry     beta= 0.10
     Davidson diagonalization with overlap
     ethr =  1.47E-06,  avg # of iterations =  2.0

     negative rho (up, down):  1.963E-04 1.167E-04
 
     Adding external electric field

     Computed dipole along edir(3) : 
        Dipole               -0.7585 Ry au,         -1.9279 Debye
        Dipole field         -0.0005 Ry au, 
 
        Potential amp.        0.0509 Ry
        Total length         54.2615 bohr
 
 
     Adding external electric field

     Computed dipole along edir(3) : 
        Dipole               -0.7585 Ry au,         -1.9279 Debye
        Dipole field         -0.0005 Ry au, 
 
        Potential amp.        0.0509 Ry
        Total length         54.2615 bohr
 

     total cpu time spent up to now is      562.7 secs

     total energy              =   -7397.97552458 Ry
     estimated scf accuracy    <       0.01533589 Ry

     total magnetization       =    80.55 Bohr mag/cell
     absolute magnetization    =    82.05 Bohr mag/cell

     iteration # 32     ecut=    50.00 Ry     beta= 0.10
     Davidson diagonalization with overlap
     ethr =  1.42E-06,  avg # of iterations =  2.0

     negative rho (up, down):  1.207E-04 6.213E-05
 
     Adding external electric field

     Computed dipole along edir(3) : 
        Dipole               -0.7067 Ry au,         -1.7964 Debye
        Dipole field         -0.0004 Ry au, 
 
        Potential amp.        0.0474 Ry
        Total length         54.2615 bohr
 
 
     Adding external electric field

     Computed dipole along edir(3) : 
        Dipole               -0.7067 Ry au,         -1.7964 Debye
        Dipole field         -0.0004 Ry au, 
 
        Potential amp.        0.0474 Ry
        Total length         54.2615 bohr
 

     total cpu time spent up to now is      579.0 secs

     total energy              =   -7397.97514593 Ry
     estimated scf accuracy    <       0.01219706 Ry

     total magnetization       =    80.57 Bohr mag/cell
     absolute magnetization    =    82.11 Bohr mag/cell

     iteration # 33     ecut=    50.00 Ry     beta= 0.10
     Davidson diagonalization with overlap
     c_bands:  2 eigenvalues not converged
     ethr =  1.13E-06,  avg # of iterations = 11.0

     negative rho (up, down):  1.157E-04 5.785E-05
 
     Adding external electric field

     Computed dipole along edir(3) : 
        Dipole               -0.7070 Ry au,         -1.7971 Debye
        Dipole field         -0.0004 Ry au, 
 
        Potential amp.        0.0475 Ry
        Total length         54.2615 bohr
 
 
     Adding external electric field

     Computed dipole along edir(3) : 
        Dipole               -0.7070 Ry au,         -1.7971 Debye
        Dipole field         -0.0004 Ry au, 
 
        Potential amp.        0.0475 Ry
        Total length         54.2615 bohr
 

     total cpu time spent up to now is      601.2 secs

     total energy              =   -7397.97524970 Ry
     estimated scf accuracy    <       0.01559006 Ry

     total magnetization       =    80.52 Bohr mag/cell
     absolute magnetization    =    82.14 Bohr mag/cell

     iteration # 34     ecut=    50.00 Ry     beta= 0.10
     Davidson diagonalization with overlap
     ethr =  1.13E-06,  avg # of iterations =  9.5

     negative rho (up, down):  1.708E-04 1.001E-04
 
     Adding external electric field

     Computed dipole along edir(3) : 
        Dipole               -0.6956 Ry au,         -1.7679 Debye
        Dipole field         -0.0004 Ry au, 
 
        Potential amp.        0.0467 Ry
        Total length         54.2615 bohr
 
 
     Adding external electric field

     Computed dipole along edir(3) : 
        Dipole               -0.6956 Ry au,         -1.7679 Debye
        Dipole field         -0.0004 Ry au, 
 
        Potential amp.        0.0467 Ry
        Total length         54.2615 bohr
 

     total cpu time spent up to now is      620.2 secs

     total energy              =   -7397.97480795 Ry
     estimated scf accuracy    <       0.01448985 Ry

     total magnetization       =    80.53 Bohr mag/cell
     absolute magnetization    =    82.15 Bohr mag/cell

     iteration # 35     ecut=    50.00 Ry     beta= 0.10
     Davidson diagonalization with overlap
     ethr =  1.13E-06,  avg # of iterations =  2.0

     negative rho (up, down):  4.359E-04 3.271E-04
 
     Adding external electric field

     Computed dipole along edir(3) : 
        Dipole               -0.6341 Ry au,         -1.6116 Debye
        Dipole field         -0.0004 Ry au, 
 
        Potential amp.        0.0426 Ry
        Total length         54.2615 bohr
 
 
     Adding external electric field

     Computed dipole along edir(3) : 
        Dipole               -0.6341 Ry au,         -1.6116 Debye
        Dipole field         -0.0004 Ry au, 
 
        Potential amp.        0.0426 Ry
        Total length         54.2615 bohr
 

     total cpu time spent up to now is      636.2 secs

     total energy              =   -7397.97404240 Ry
     estimated scf accuracy    <       0.01107227 Ry

     total magnetization       =    80.55 Bohr mag/cell
     absolute magnetization    =    82.20 Bohr mag/cell

     iteration # 36     ecut=    50.00 Ry     beta= 0.10
     Davidson diagonalization with overlap
     ethr =  1.03E-06,  avg # of iterations =  2.0

     negative rho (up, down):  1.257E-03 1.051E-03
 
     Adding external electric field

     Computed dipole along edir(3) : 
        Dipole               -0.5646 Ry au,         -1.4352 Debye
        Dipole field         -0.0003 Ry au, 
 
        Potential amp.        0.0379 Ry
        Total length         54.2615 bohr
 
 
     Adding external electric field

     Computed dipole along edir(3) : 
        Dipole               -0.5646 Ry au,         -1.4352 Debye
        Dipole field         -0.0003 Ry au, 
 
        Potential amp.        0.0379 Ry
        Total length         54.2615 bohr
 

     total cpu time spent up to now is      652.6 secs

     total energy              =   -7397.97351345 Ry
     estimated scf accuracy    <       0.00932177 Ry

     total magnetization       =    80.57 Bohr mag/cell
     absolute magnetization    =    82.27 Bohr mag/cell

     iteration # 37     ecut=    50.00 Ry     beta= 0.10
     Davidson diagonalization with overlap
     c_bands:  3 eigenvalues not converged
     ethr =  8.65E-07,  avg # of iterations = 11.0

     negative rho (up, down):  2.175E-03 1.876E-03
 
     Adding external electric field

     Computed dipole along edir(3) : 
        Dipole               -0.5016 Ry au,         -1.2750 Debye
        Dipole field         -0.0003 Ry au, 
 
        Potential amp.        0.0337 Ry
        Total length         54.2615 bohr
 
 
     Adding external electric field

     Computed dipole along edir(3) : 
        Dipole               -0.5016 Ry au,         -1.2750 Debye
        Dipole field         -0.0003 Ry au, 
 
        Potential amp.        0.0337 Ry
        Total length         54.2615 bohr
 

     total cpu time spent up to now is      676.2 secs

     total energy              =   -7397.97330857 Ry
     estimated scf accuracy    <       0.00760425 Ry

     total magnetization       =    80.57 Bohr mag/cell
     absolute magnetization    =    82.25 Bohr mag/cell

     iteration # 38     ecut=    50.00 Ry     beta= 0.10
     Davidson diagonalization with overlap
     ethr =  7.05E-07,  avg # of iterations =  6.0

     negative rho (up, down):  2.685E-03 2.316E-03
 
     Adding external electric field

     Computed dipole along edir(3) : 
        Dipole               -0.4230 Ry au,         -1.0751 Debye
        Dipole field         -0.0003 Ry au, 
 
        Potential amp.        0.0284 Ry
        Total length         54.2615 bohr
 
 
     Adding external electric field

     Computed dipole along edir(3) : 
        Dipole               -0.4230 Ry au,         -1.0751 Debye
        Dipole field         -0.0003 Ry au, 
 
        Potential amp.        0.0284 Ry
        Total length         54.2615 bohr
 

     total cpu time spent up to now is      694.5 secs

     total energy              =   -7397.97350357 Ry
     estimated scf accuracy    <       0.00587625 Ry

     total magnetization       =    80.58 Bohr mag/cell
     absolute magnetization    =    82.22 Bohr mag/cell

     iteration # 39     ecut=    50.00 Ry     beta= 0.10
     Davidson diagonalization with overlap
     ethr =  5.45E-07,  avg # of iterations =  3.0

     negative rho (up, down):  2.693E-03 2.340E-03
 
     Adding external electric field

     Computed dipole along edir(3) : 
        Dipole               -0.3629 Ry au,         -0.9223 Debye
        Dipole field         -0.0002 Ry au, 
 
        Potential amp.        0.0244 Ry
        Total length         54.2615 bohr
 
 
     Adding external electric field

     Computed dipole along edir(3) : 
        Dipole               -0.3629 Ry au,         -0.9223 Debye
        Dipole field         -0.0002 Ry au, 
 
        Potential amp.        0.0244 Ry
        Total length         54.2615 bohr
 

     total cpu time spent up to now is      711.0 secs

     total energy              =   -7397.97407562 Ry
     estimated scf accuracy    <       0.00428510 Ry

     total magnetization       =    80.56 Bohr mag/cell
     absolute magnetization    =    82.17 Bohr mag/cell

     iteration # 40     ecut=    50.00 Ry     beta= 0.10
     Davidson diagonalization with overlap
     ethr =  3.98E-07,  avg # of iterations =  2.0

     negative rho (up, down):  6.841E-04 5.570E-04
 
     Adding external electric field

     Computed dipole along edir(3) : 
        Dipole               -0.3488 Ry au,         -0.8867 Debye
        Dipole field         -0.0002 Ry au, 
 
        Potential amp.        0.0234 Ry
        Total length         54.2615 bohr
 
 
     Adding external electric field

     Computed dipole along edir(3) : 
        Dipole               -0.3488 Ry au,         -0.8867 Debye
        Dipole field         -0.0002 Ry au, 
 
        Potential amp.        0.0234 Ry
        Total length         54.2615 bohr
 

     total cpu time spent up to now is      727.4 secs

     total energy              =   -7397.97447390 Ry
     estimated scf accuracy    <       0.00278922 Ry

     total magnetization       =    80.54 Bohr mag/cell
     absolute magnetization    =    82.12 Bohr mag/cell

     iteration # 41     ecut=    50.00 Ry     beta= 0.10
     Davidson diagonalization with overlap
     ethr =  2.59E-07,  avg # of iterations =  2.0

     negative rho (up, down):  5.538E-04 4.405E-04
 
     Adding external electric field

     Computed dipole along edir(3) : 
        Dipole               -0.3410 Ry au,         -0.8668 Debye
        Dipole field         -0.0002 Ry au, 
 
        Potential amp.        0.0229 Ry
        Total length         54.2615 bohr
 
 
     Adding external electric field

     Computed dipole along edir(3) : 
        Dipole               -0.3410 Ry au,         -0.8668 Debye
        Dipole field         -0.0002 Ry au, 
 
        Potential amp.        0.0229 Ry
        Total length         54.2615 bohr
 

     total cpu time spent up to now is      743.9 secs

     total energy              =   -7397.97452749 Ry
     estimated scf accuracy    <       0.00205026 Ry

     total magnetization       =    80.54 Bohr mag/cell
     absolute magnetization    =    82.12 Bohr mag/cell

     iteration # 42     ecut=    50.00 Ry     beta= 0.10
     Davidson diagonalization with overlap
     ethr =  1.90E-07,  avg # of iterations =  2.0

     negative rho (up, down):  1.062E-03 9.880E-04
 
     Adding external electric field

     Computed dipole along edir(3) : 
        Dipole               -0.3326 Ry au,         -0.8454 Debye
        Dipole field         -0.0002 Ry au, 
 
        Potential amp.        0.0223 Ry
        Total length         54.2615 bohr
 
 
     Adding external electric field

     Computed dipole along edir(3) : 
        Dipole               -0.3326 Ry au,         -0.8454 Debye
        Dipole field         -0.0002 Ry au, 
 
        Potential amp.        0.0223 Ry
        Total length         54.2615 bohr
 

     total cpu time spent up to now is      760.4 secs

     total energy              =   -7397.97434214 Ry
     estimated scf accuracy    <       0.00178657 Ry

     total magnetization       =    80.53 Bohr mag/cell
     absolute magnetization    =    82.11 Bohr mag/cell

     iteration # 43     ecut=    50.00 Ry     beta= 0.10
     Davidson diagonalization with overlap
     ethr =  1.66E-07,  avg # of iterations =  8.5

     negative rho (up, down):  1.216E-03 1.138E-03
 
     Adding external electric field

     Computed dipole along edir(3) : 
        Dipole               -0.3265 Ry au,         -0.8298 Debye
        Dipole field         -0.0002 Ry au, 
 
        Potential amp.        0.0219 Ry
        Total length         54.2615 bohr
 
 
     Adding external electric field

     Computed dipole along edir(3) : 
        Dipole               -0.3265 Ry au,         -0.8298 Debye
        Dipole field         -0.0002 Ry au, 
 
        Potential amp.        0.0219 Ry
        Total length         54.2615 bohr
 

     total cpu time spent up to now is      780.3 secs

     total energy              =   -7397.97429519 Ry
     estimated scf accuracy    <       0.00084525 Ry

     total magnetization       =    80.53 Bohr mag/cell
     absolute magnetization    =    82.09 Bohr mag/cell

     iteration # 44     ecut=    50.00 Ry     beta= 0.10
     Davidson diagonalization with overlap
     ethr =  7.84E-08,  avg # of iterations =  2.0

     negative rho (up, down):  8.765E-04 8.059E-04
 
     Adding external electric field

     Computed dipole along edir(3) : 
        Dipole               -0.3286 Ry au,         -0.8352 Debye
        Dipole field         -0.0002 Ry au, 
 
        Potential amp.        0.0221 Ry
        Total length         54.2615 bohr
 
 
     Adding external electric field

     Computed dipole along edir(3) : 
        Dipole               -0.3286 Ry au,         -0.8352 Debye
        Dipole field         -0.0002 Ry au, 
 
        Potential amp.        0.0221 Ry
        Total length         54.2615 bohr
 

     total cpu time spent up to now is      795.9 secs

     total energy              =   -7397.97428715 Ry
     estimated scf accuracy    <       0.00061634 Ry

     total magnetization       =    80.51 Bohr mag/cell
     absolute magnetization    =    82.04 Bohr mag/cell

     iteration # 45     ecut=    50.00 Ry     beta= 0.10
     Davidson diagonalization with overlap
     ethr =  5.72E-08,  avg # of iterations =  1.5

     negative rho (up, down):  2.729E-04 1.848E-04
 
     Adding external electric field

     Computed dipole along edir(3) : 
        Dipole               -0.3269 Ry au,         -0.8308 Debye
        Dipole field         -0.0002 Ry au, 
 
        Potential amp.        0.0219 Ry
        Total length         54.2615 bohr
 
 
     Adding external electric field

     Computed dipole along edir(3) : 
        Dipole               -0.3269 Ry au,         -0.8308 Debye
        Dipole field         -0.0002 Ry au, 
 
        Potential amp.        0.0219 Ry
        Total length         54.2615 bohr
 

     total cpu time spent up to now is      810.6 secs

     total energy              =   -7397.97441581 Ry
     estimated scf accuracy    <       0.00047785 Ry

     total magnetization       =    80.50 Bohr mag/cell
     absolute magnetization    =    82.03 Bohr mag/cell

     iteration # 46     ecut=    50.00 Ry     beta= 0.10
     Davidson diagonalization with overlap
     ethr =  4.43E-08,  avg # of iterations =  2.0

     negative rho (up, down):  2.147E-04 1.127E-04
 
     Adding external electric field

     Computed dipole along edir(3) : 
        Dipole               -0.3224 Ry au,         -0.8195 Debye
        Dipole field         -0.0002 Ry au, 
 
        Potential amp.        0.0216 Ry
        Total length         54.2615 bohr
 
 
     Adding external electric field

     Computed dipole along edir(3) : 
        Dipole               -0.3224 Ry au,         -0.8195 Debye
        Dipole field         -0.0002 Ry au, 
 
        Potential amp.        0.0216 Ry
        Total length         54.2615 bohr
 

     total cpu time spent up to now is      826.7 secs

     total energy              =   -7397.97452301 Ry
     estimated scf accuracy    <       0.00018933 Ry

     total magnetization       =    80.50 Bohr mag/cell
     absolute magnetization    =    82.04 Bohr mag/cell

     iteration # 47     ecut=    50.00 Ry     beta= 0.10
     Davidson diagonalization with overlap
     ethr =  1.76E-08,  avg # of iterations =  5.0

     negative rho (up, down):  4.180E-04 2.703E-04
 
     Adding external electric field

     Computed dipole along edir(3) : 
        Dipole               -0.3150 Ry au,         -0.8006 Debye
        Dipole field         -0.0002 Ry au, 
 
        Potential amp.        0.0211 Ry
        Total length         54.2615 bohr
 
 
     Adding external electric field

     Computed dipole along edir(3) : 
        Dipole               -0.3150 Ry au,         -0.8006 Debye
        Dipole field         -0.0002 Ry au, 
 
        Potential amp.        0.0211 Ry
        Total length         54.2615 bohr
 

     total cpu time spent up to now is      844.7 secs

     total energy              =   -7397.97455354 Ry
     estimated scf accuracy    <       0.00008797 Ry

     total magnetization       =    80.49 Bohr mag/cell
     absolute magnetization    =    82.05 Bohr mag/cell

     iteration # 48     ecut=    50.00 Ry     beta= 0.10
     Davidson diagonalization with overlap
     ethr =  8.16E-09,  avg # of iterations =  5.0

     negative rho (up, down):  9.482E-04 7.154E-04
 
     Adding external electric field

     Computed dipole along edir(3) : 
        Dipole               -0.3009 Ry au,         -0.7648 Debye
        Dipole field         -0.0002 Ry au, 
 
        Potential amp.        0.0202 Ry
        Total length         54.2615 bohr
 
 
     Adding external electric field

     Computed dipole along edir(3) : 
        Dipole               -0.3009 Ry au,         -0.7648 Debye
        Dipole field         -0.0002 Ry au, 
 
        Potential amp.        0.0202 Ry
        Total length         54.2615 bohr
 

     total cpu time spent up to now is      862.6 secs

     total energy              =   -7397.97457878 Ry
     estimated scf accuracy    <       0.00005510 Ry

     total magnetization       =    80.49 Bohr mag/cell
     absolute magnetization    =    82.06 Bohr mag/cell

     iteration # 49     ecut=    50.00 Ry     beta= 0.10
     Davidson diagonalization with overlap
     ethr =  5.11E-09,  avg # of iterations =  2.0

     negative rho (up, down):  1.043E-03 7.661E-04
 
     Adding external electric field

     Computed dipole along edir(3) : 
        Dipole               -0.2975 Ry au,         -0.7562 Debye
        Dipole field         -0.0002 Ry au, 
 
        Potential amp.        0.0200 Ry
        Total length         54.2615 bohr
 
 
     Adding external electric field

     Computed dipole along edir(3) : 
        Dipole               -0.2975 Ry au,         -0.7562 Debye
        Dipole field         -0.0002 Ry au, 
 
        Potential amp.        0.0200 Ry
        Total length         54.2615 bohr
 

     total cpu time spent up to now is      878.6 secs

     total energy              =   -7397.97458649 Ry
     estimated scf accuracy    <       0.00003655 Ry

     total magnetization       =    80.49 Bohr mag/cell
     absolute magnetization    =    82.06 Bohr mag/cell

     iteration # 50     ecut=    50.00 Ry     beta= 0.10
     Davidson diagonalization with overlap
     ethr =  3.39E-09,  avg # of iterations =  2.0

     negative rho (up, down):  1.010E-03 6.747E-04
 
     Adding external electric field

     Computed dipole along edir(3) : 
        Dipole               -0.2974 Ry au,         -0.7559 Debye
        Dipole field         -0.0002 Ry au, 
 
        Potential amp.        0.0200 Ry
        Total length         54.2615 bohr
 
 
     Adding external electric field

     Computed dipole along edir(3) : 
        Dipole               -0.2974 Ry au,         -0.7559 Debye
        Dipole field         -0.0002 Ry au, 
 
        Potential amp.        0.0200 Ry
        Total length         54.2615 bohr
 

     total cpu time spent up to now is      894.8 secs

     total energy              =   -7397.97458899 Ry
     estimated scf accuracy    <       0.00001893 Ry

     total magnetization       =    80.49 Bohr mag/cell
     absolute magnetization    =    82.07 Bohr mag/cell

     iteration # 51     ecut=    50.00 Ry     beta= 0.10
     Davidson diagonalization with overlap
     ethr =  1.76E-09,  avg # of iterations =  4.0

     negative rho (up, down):  1.140E-03 7.895E-04
 
     Adding external electric field

     Computed dipole along edir(3) : 
        Dipole               -0.2954 Ry au,         -0.7508 Debye
        Dipole field         -0.0002 Ry au, 
 
        Potential amp.        0.0198 Ry
        Total length         54.2615 bohr
 
 
     Adding external electric field

     Computed dipole along edir(3) : 
        Dipole               -0.2954 Ry au,         -0.7508 Debye
        Dipole field         -0.0002 Ry au, 
 
        Potential amp.        0.0198 Ry
        Total length         54.2615 bohr
 

     total cpu time spent up to now is      911.7 secs

     total energy              =   -7397.97459051 Ry
     estimated scf accuracy    <       0.00001341 Ry

     total magnetization       =    80.49 Bohr mag/cell
     absolute magnetization    =    82.07 Bohr mag/cell

     iteration # 52     ecut=    50.00 Ry     beta= 0.10
     Davidson diagonalization with overlap
     ethr =  1.24E-09,  avg # of iterations =  3.0

     negative rho (up, down):  1.103E-03 7.200E-04
 
     Adding external electric field

     Computed dipole along edir(3) : 
        Dipole               -0.2943 Ry au,         -0.7481 Debye
        Dipole field         -0.0002 Ry au, 
 
        Potential amp.        0.0198 Ry
        Total length         54.2615 bohr
 
 
     Adding external electric field

     Computed dipole along edir(3) : 
        Dipole               -0.2943 Ry au,         -0.7481 Debye
        Dipole field         -0.0002 Ry au, 
 
        Potential amp.        0.0198 Ry
        Total length         54.2615 bohr
 

     total cpu time spent up to now is      928.0 secs

     total energy              =   -7397.97459094 Ry
     estimated scf accuracy    <       0.00000979 Ry

     total magnetization       =    80.49 Bohr mag/cell
     absolute magnetization    =    82.07 Bohr mag/cell

     iteration # 53     ecut=    50.00 Ry     beta= 0.10
     Davidson diagonalization with overlap
     ethr =  9.08E-10,  avg # of iterations =  4.0

     negative rho (up, down):  1.085E-03 6.937E-04
 
     Adding external electric field

     Computed dipole along edir(3) : 
        Dipole               -0.2939 Ry au,         -0.7471 Debye
        Dipole field         -0.0002 Ry au, 
 
        Potential amp.        0.0197 Ry
        Total length         54.2615 bohr
 
 
     Adding external electric field

     Computed dipole along edir(3) : 
        Dipole               -0.2939 Ry au,         -0.7471 Debye
        Dipole field         -0.0002 Ry au, 
 
        Potential amp.        0.0197 Ry
        Total length         54.2615 bohr
 

     total cpu time spent up to now is      945.6 secs

     total energy              =   -7397.97459108 Ry
     estimated scf accuracy    <       0.00000587 Ry

     total magnetization       =    80.49 Bohr mag/cell
     absolute magnetization    =    82.07 Bohr mag/cell

     iteration # 54     ecut=    50.00 Ry     beta= 0.10
     Davidson diagonalization with overlap
     ethr =  5.45E-10,  avg # of iterations =  2.0

     negative rho (up, down):  1.012E-03 6.192E-04
 
     Adding external electric field

     Computed dipole along edir(3) : 
        Dipole               -0.2946 Ry au,         -0.7487 Debye
        Dipole field         -0.0002 Ry au, 
 
        Potential amp.        0.0198 Ry
        Total length         54.2615 bohr
 
 
     Adding external electric field

     Computed dipole along edir(3) : 
        Dipole               -0.2946 Ry au,         -0.7487 Debye
        Dipole field         -0.0002 Ry au, 
 
        Potential amp.        0.0198 Ry
        Total length         54.2615 bohr
 

     total cpu time spent up to now is      961.8 secs

     total energy              =   -7397.97459086 Ry
     estimated scf accuracy    <       0.00000343 Ry

     total magnetization       =    80.49 Bohr mag/cell
     absolute magnetization    =    82.07 Bohr mag/cell

     iteration # 55     ecut=    50.00 Ry     beta= 0.10
     Davidson diagonalization with overlap
     ethr =  3.18E-10,  avg # of iterations =  3.0

     negative rho (up, down):  9.975E-04 6.057E-04
 
     Adding external electric field

     Computed dipole along edir(3) : 
        Dipole               -0.2946 Ry au,         -0.7487 Debye
        Dipole field         -0.0002 Ry au, 
 
        Potential amp.        0.0198 Ry
        Total length         54.2615 bohr
 
 
     Adding external electric field

     Computed dipole along edir(3) : 
        Dipole               -0.2946 Ry au,         -0.7487 Debye
        Dipole field         -0.0002 Ry au, 
 
        Potential amp.        0.0198 Ry
        Total length         54.2615 bohr
 

     total cpu time spent up to now is      978.0 secs

     total energy              =   -7397.97459069 Ry
     estimated scf accuracy    <       0.00000276 Ry

     total magnetization       =    80.49 Bohr mag/cell
     absolute magnetization    =    82.07 Bohr mag/cell

     iteration # 56     ecut=    50.00 Ry     beta= 0.10
     Davidson diagonalization with overlap
     ethr =  2.56E-10,  avg # of iterations =  2.0

     negative rho (up, down):  9.534E-04 5.625E-04
 
     Adding external electric field

     Computed dipole along edir(3) : 
        Dipole               -0.2947 Ry au,         -0.7491 Debye
        Dipole field         -0.0002 Ry au, 
 
        Potential amp.        0.0198 Ry
        Total length         54.2615 bohr
 
 
     Adding external electric field

     Computed dipole along edir(3) : 
        Dipole               -0.2947 Ry au,         -0.7491 Debye
        Dipole field         -0.0002 Ry au, 
 
        Potential amp.        0.0198 Ry
        Total length         54.2615 bohr
 

     total cpu time spent up to now is      993.9 secs

     total energy              =   -7397.97459031 Ry
     estimated scf accuracy    <       0.00000196 Ry

     total magnetization       =    80.49 Bohr mag/cell
     absolute magnetization    =    82.07 Bohr mag/cell

     iteration # 57     ecut=    50.00 Ry     beta= 0.10
     Davidson diagonalization with overlap
     ethr =  1.81E-10,  avg # of iterations =  2.0

     negative rho (up, down):  9.231E-04 5.363E-04
 
     Adding external electric field

     Computed dipole along edir(3) : 
        Dipole               -0.2944 Ry au,         -0.7483 Debye
        Dipole field         -0.0002 Ry au, 
 
        Potential amp.        0.0198 Ry
        Total length         54.2615 bohr
 
 
     Adding external electric field

     Computed dipole along edir(3) : 
        Dipole               -0.2944 Ry au,         -0.7483 Debye
        Dipole field         -0.0002 Ry au, 
 
        Potential amp.        0.0198 Ry
        Total length         54.2615 bohr
 

     total cpu time spent up to now is     1009.8 secs

     total energy              =   -7397.97459003 Ry
     estimated scf accuracy    <       0.00000129 Ry

     total magnetization       =    80.49 Bohr mag/cell
     absolute magnetization    =    82.07 Bohr mag/cell

     iteration # 58     ecut=    50.00 Ry     beta= 0.10
     Davidson diagonalization with overlap
     ethr =  1.19E-10,  avg # of iterations =  2.0

[...]
     atom   99 type  4   force =    -0.06740225   -0.00102576   -0.00539819
     atom  100 type  4   force =    -0.00034793    0.00286972    0.00295505
     atom  101 type  4   force =    -0.00128586    0.00002957    0.00150152
     atom  102 type  4   force =    -0.00684807    0.00548559    0.00161234
     atom  103 type  4   force =    -0.03997967    0.13608893   -0.00426398
     atom  104 type  4   force =    -0.00581579   -0.00974570    0.00495648
     atom  105 type  2   force =     0.00038700   -0.00046088   -0.00060662
     atom  106 type  1   force =     0.00016544   -0.00042209   -0.00005653
     atom  107 type  1   force =     0.00019653    0.00009663    0.00033444
     atom  108 type  1   force =    -0.00003526   -0.00036853   -0.00019641
     atom  109 type  1   force =     0.00015268   -0.00017898   -0.00006001
     atom  110 type  1   force =     0.00033854    0.00043039   -0.00025853
     atom  111 type  1   force =     0.00015428   -0.00045340   -0.00001219
     atom  112 type  1   force =    -0.00001611   -0.00032149    0.00023028
     atom  113 type  1   force =     0.00012479    0.00020950   -0.00003731
     atom  114 type  1   force =    -0.00007653   -0.00055186    0.00020674
     atom  115 type  1   force =     0.00003085   -0.00024721    0.00036045
     atom  116 type  1   force =    -0.00026827   -0.00015851   -0.00019434
     atom  117 type  3   force =    -0.00017612   -0.00029163   -0.00018309
     atom  118 type  3   force =     0.00015199    0.00015395    0.00006164
     atom  119 type  3   force =    -0.00023166   -0.00039419    0.00020641
     atom  120 type  3   force =     0.00033927   -0.00013101   -0.00020873
     atom  121 type  4   force =     0.00008804    0.00052770   -0.00059898
     atom  122 type  4   force =    -0.00031067   -0.00021326    0.00014349
     atom  123 type  4   force =     0.00020882   -0.00001069   -0.00009851
     atom  124 type  4   force =    -0.00067338    0.00013819   -0.00047423
     atom  125 type  4   force =     0.00009139   -0.00009239    0.00002544
     atom  126 type  4   force =    -0.00002234   -0.00002437    0.00016539
     atom  127 type  4   force =     0.00001792   -0.00001215   -0.00020991
     atom  128 type  4   force =    -0.00002137    0.00019582    0.00038792
     atom  129 type  4   force =    -0.00071734    0.00033144    0.00016392
     atom  130 type  4   force =    -0.00001296   -0.00015708    0.00006077
     atom  131 type  4   force =    -0.00026595   -0.00006092   -0.00002325
     atom  132 type  4   force =     0.00028470    0.00020858   -0.00009464
     atom  133 type  4   force =    -0.00018490   -0.00056304   -0.00011549
     atom  134 type  4   force =    -0.00016272    0.00003973    0.00028703
     atom  135 type  4   force =    -0.00011100   -0.00026020   -0.00014996
     atom  136 type  4   force =     0.00000710   -0.00059344    0.00020307
     atom  137 type  3   force =    -0.00059059    0.00039738   -0.00027243
     atom  138 type  3   force =     0.00001639   -0.00024511   -0.00024851
     atom  139 type  3   force =     0.00035325   -0.00020134   -0.00010642
     atom  140 type  3   force =     0.00015979   -0.00056497    0.00013332
     atom  141 type  4   force =    -0.00019908   -0.00044186   -0.00005755
     atom  142 type  4   force =    -0.00016708   -0.00046269   -0.00001706
     atom  143 type  4   force =     0.00007534    0.00009538   -0.00016942
     atom  144 type  4   force =    -0.00002576   -0.00010310   -0.00018035
     atom  145 type  4   force =     0.00021484    0.00005862   -0.00031633
     atom  146 type  4   force =     0.00011326    0.00007258   -0.00011300
     atom  147 type  4   force =    -0.00009074   -0.00013972    0.00007603
     atom  148 type  4   force =    -0.00023188    0.00011739   -0.00019602
     atom  149 type  4   force =     0.00024565   -0.00020372   -0.00013787
     atom  150 type  4   force =     0.00014801   -0.00026008   -0.00009083
     atom  151 type  4   force =     0.00034884    0.00033879   -0.00002625
     atom  152 type  4   force =    -0.00006192   -0.00022214    0.00003392
     atom  153 type  4   force =    -0.00011662   -0.00009977   -0.00023512
     atom  154 type  4   force =    -0.00018747   -0.00019179   -0.00009722
     atom  155 type  4   force =     0.00061802    0.00045553   -0.00029768
     atom  156 type  4   force =    -0.00008495   -0.00006655   -0.00009976
     atom  157 type  4   force =     0.00005830    0.00007653    0.00037836
     atom  158 type  5   force =     0.00065859    0.00057342    0.00040084

     Total force =     0.003425     Total SCF correction =     0.000231
     Energy error            =      2.0E-05 Ry
     Gradient error          =      7.2E-04 Ry/Bohr

     bfgs converged in  22 scf cycles and  21 bfgs steps
     (criteria: energy <  1.0E-04 Ry, force <  1.0E-03 Ry/Bohr)

     End of BFGS Geometry Optimization

     Final energy             =   -7398.0374093986 Ry

     File ./tmp/pwscf.bfgs deleted, as requested
Begin final coordinates

ATOMIC_POSITIONS (angstrom)
Mn               2.2524368768        7.8410485731        1.0944930079    0   0   0
Ni               4.6534647676        7.2372933759        4.1358828713    0   0   0
Ni               0.0619603813        2.7507417195        1.1624492917    0   0   0
Ni               2.4219525798        2.2066470848        4.1670761125    0   0   0
Ni               9.3547912696       10.0189430711        2.6741067324    0   0   0
Ni               2.3579554440        4.9928972857        2.6501243588    0   0   0
Ni               6.9796879716        7.8094759467        1.1443701289    0   0   0
Ni               9.3096730862        7.2486592073        4.1284351004    0   0   0
Ni               4.7877892837        2.7388876079        1.1725773000    0   0   0
Ni               7.1245715506        2.1723741671        4.1694399165    0   0   0
Ni               4.7058610954       10.0111896155        2.6886960440    0   0   0
Ni               7.0530582306        4.9810850236        2.6650220320    0   0   0
P                1.9603854589        9.1147683914        4.0698380325    0   0   0
P                4.3608513788        5.9567469616        1.1939050591    0   0   0
P                2.7263470654        0.9622942144        1.2140079036    0   0   0
P                0.3711210654        4.0167855221        4.1202335978    0   0   0
O                1.2123972175        8.4423962275        2.8199377132    0   0   0
O                3.6291095674        6.6079529628        2.4699859713    0   0   0
O                3.4680363025        1.6061908509        2.4915522427    0   0   0
O                1.1093829690        3.3560280086        2.8459161781    0   0   0
O                1.3596349964        8.2903015831        5.2336828554    0   0   0
O                3.7923299398        6.7866788753        0.0163844299    0   0   0
O                3.3003412998        1.7802036414        0.0334799257    0   0   0
O                0.9531584297        3.1944778255        5.2983072187    0   0   0
O                0.9136186619        5.4788170066        4.0819089326    0   0   0
O                3.2629172638        9.6616373640        1.1898645376    0   0   0
O                3.5446225228        3.9575161178        4.0360174891    0   0   0
O                1.1879123926        1.0003050009        1.3045328856    0   0   0
O                1.1354873087        6.0172885221        1.2765753734    0   0   0
O                3.7965946052        4.5047793739        1.2182459258    0   0   0
O                1.4392974591        0.4186119975        4.0963933990    0   0   0
O                3.4959570534        9.0216820656        3.9870432133    0   0   0
P                6.6688818178        9.0818697660        4.0960414028    0   0   0
P                9.0062189322        5.9603600909        1.1829425170    0   0   0
P                7.4256001189        0.9086202570        1.2103239064    0   0   0
P                5.0827169838        3.9992509557        4.1313794687    0   0   0
O                5.9261601580        8.4217167502        2.8223938553    0   0   0
O                8.2821359139        6.6345837355        2.4588881476    0   0   0
O                8.1641303211        1.5714890624        2.4854417826    0   0   0
O                5.8185662143        3.3332742464        2.8578411459    0   0   0
O                6.0955409502        8.2542035613        5.2750312498    0   0   0
O                8.4431397248        6.8043561646        0.0100000000    0   0   0
O                8.0075057281        1.7308700581        0.0332247514    0   0   0
O                5.6616365268        3.1647127013        5.3018609112    0   0   0
O                5.6428606763        5.4543254211        4.1016661790    0   0   0
O                7.9606510584        9.6050043719        1.1943929801    0   0   0
O                8.2411397074        3.9394448823        4.0330602016    0   0   0
O                5.8887324813        0.9691066170        1.3088433286    0   0   0
O                5.8962744512        6.0206445220        1.2856208262    0   0   0
O                8.4527730620        4.5056460963        1.2143080338    0   0   0
O                6.1330998669        0.3849570199        4.1181705140    0   0   0
O                8.2056512655        9.0225139588        3.9944100718    0   0   0
Mn               2.2524368768        7.7240452976        6.9007574686    0   0   0
Ni               4.6534647676        7.1202901005        9.9421473320    0   0   0
Ni               0.0619603813        2.6337384440        6.9687137523    0   0   0
Ni               2.4219525798        2.0896438093        9.9733405731    0   0   0
Ni               9.3547912696        9.9019397956        8.4803711930    0   0   0
Ni               2.3579554440        4.8758940102        8.4563888194    0   0   0
Ni               6.9796879716        7.6924726712        6.9506345895    0   0   0
Ni               9.3096730862        7.1316559318        9.9346995611    0   0   0
Ni               4.7877892837        2.6218843324        6.9788417607    0   0   0
Ni               7.1245715506        2.0553708916        9.9757043771    0   0   0
Ni               4.7058610954        9.8941863400        8.4949605046    0   0   0
Ni               7.0530582306        4.8640817481        8.4712864926    0   0   0
P                1.9603854589        8.9977651159        9.8761024931    0   0   0
P                4.3608513788        5.8397436861        7.0001695197    0   0   0
P                2.7263470654        0.8452909389        7.0202723643    0   0   0
P                0.3711210654        3.8997822466        9.9264980585    0   0   0
O                1.2123972175        8.3253929520        8.6262021738    0   0   0
O                3.6291095674        6.4909496873        8.2762504319    0   0   0
O                3.4680363025        1.4891875754        8.2978167034    0   0   0
O                1.1093829690        3.2390247331        8.6521806387    0   0   0
O                1.3596349964        8.1732983076       11.0399473161    0   0   0
O                3.7923299398        6.6696755998        5.8226488906    0   0   0
O                3.3003412998        1.6632003659        5.8397443863    0   0   0
O                0.9531584297        3.0774745500       11.1045716794    0   0   0
O                0.9136186619        5.3618137311        9.8881733933    0   0   0
O                3.2629172638        9.5446340885        6.9961289982    0   0   0
O                3.5446225228        3.8405128423        9.8422819497    0   0   0
O                1.1879123926        0.8833017255        7.1107973462    0   0   0
O                1.1354873087        5.9002852466        7.0828398340    0   0   0
O                3.7965946052        4.3877760984        7.0245103864    0   0   0
O                1.4392974591        0.3016087220        9.9026578597    0   0   0
O                3.4959570534        8.9046787901        9.7933076739    0   0   0
P                6.6688818178        8.9648664905        9.9023058635    0   0   0
P                9.0062189322        5.8433568154        6.9892069777    0   0   0
P                7.4256001189        0.7916169815        7.0165883671    0   0   0
P                5.0827169838        3.8822476802        9.9376439293    0   0   0
O                5.9261601580        8.3047134747        8.6286583160    0   0   0
O                8.2821359139        6.5175804600        8.2651526082    0   0   0
O                8.1641303211        1.4544857869        8.2917062433    0   0   0
O                5.8185662143        3.2162709709        8.6641056065    0   0   0
O                6.0955409502        8.1372002858       11.0812957104    0   0   0
O                8.4431397248        6.6873528892        5.8162644607    0   0   0
O                8.0075057281        1.6138667826        5.8394892121    0   0   0
O                5.6616365268        3.0477094258       11.1081253719    0   0   0
O                5.6428606763        5.3373221456        9.9079306396    0   0   0
O                7.9606510584        9.4880010964        7.0006574408    0   0   0
O                8.2411397074        3.8224416068        9.8393246623    0   0   0
O                5.8887324813        0.8521033415        7.1151077892    0   0   0
O                5.8962744512        5.9036412465        7.0918852869    0   0   0
O                8.4527730620        4.3886428208        7.0205724944    0   0   0
O                6.1330998669        0.2679537444        9.9244349747    0   0   0
O                8.2056512655        8.9055106833        9.8006745325    0   0   0
Mn               2.1927753245        7.5946564361       12.7978759243
Ni               4.7065643090        6.9913393416       15.6957395085
Ni               0.0856033581        2.5034425148       12.8296803487
Ni               2.3370310089        1.9466015013       15.6940657547
Ni               9.3967088811        9.7565225703       14.3909266859
Ni               2.3278554503        4.7285909228       14.3282072843
Ni               6.9594304801        7.5440573094       12.8191857542
Ni               9.2968596935        6.9249607329       16.0077909259
Ni               4.7892419334        2.5012797675       12.8310723984
Ni               7.0202490779        1.9682609553       15.6886271515
Ni               4.7282342518        9.7786494975       14.3538888271
Ni               7.0217966924        4.7557600267       14.3780919034
P                2.0169930941        8.7376673325       15.8660885250
P                4.3298791497        5.7020678299       12.8397848163
P                2.7372864657        0.6895775779       12.8478070115
P                0.3579090133        3.6907319946       15.8387776999
O                1.2853557218        8.1498444364       14.5374539410
O                3.6039962731        6.3498029794       14.1173413394
O                3.4754361857        1.3314164417       14.1247031032
O                1.0988353102        3.1067503332       14.4695966141
O                1.4673812844        7.8480187387       16.9737352987
O                3.7643142999        6.5458782304       11.6666855033
O                3.3157231567        1.4993632111       11.6662696137
O                0.9146816950        2.7592911147       16.9077146994
O                0.9230144702        5.1469678433       15.7868733187
O                3.2824948488        9.2995400684       12.8756243779
O                3.4832050551        3.6627663993       15.7001522659
O                1.2041004847        0.7253099579       12.9578684528
O                1.1509360512        5.8066825776       12.9366572974
O                3.7657913568        4.2510199142       12.8510478916
O                1.4981513106        0.1441025389       15.8392712620
O                3.5635890966        8.7026967835       15.7170584486
P                6.6819319446        8.7865049669       15.8630163461
P                8.9712779089        5.7345694618       12.8571475382
P                7.4369675988        0.6601978905       12.8512851956
P                5.0264861568        3.7136703641       15.8518190497
O                5.9728272424        8.1772073092       14.5049103288
O                8.2728711431        6.4186622645       14.1252224451
O                8.1629592443        1.3250523978       14.1274645037
O                5.7722907854        3.1461028688       14.4884917368
O                6.0830542985        7.9027154451       16.9561393928
O                8.4168834185        6.5451599772       11.6554483554
O                8.0129455517        1.4822793681       11.6704183920
O                5.5968555987        2.8005483430       16.9251665050
O                5.5444343133        5.1934586250       15.8434168925
O                7.9921476244        9.2840740065       12.8901491262
O                8.1833453198        3.6422943303       15.6817607727
O                5.9001740797        0.7299942704       12.9551183821
O                5.8649996723        5.7735244482       12.9563892393
O                8.4418767358        4.2744001355       12.8969059147
O                6.1380832807        0.1804905645       15.8177222549
O                8.2249528810        8.7566598723       15.7719958220
O                8.2082599301        6.1248496605       17.2211670126
H                7.4102574224        6.6724137031       17.4370866617
End final coordinates



     Writing all to output data dir ./tmp/pwscf.save/
 
     init_run     :      9.81s CPU     10.58s WALL (       1 calls)
     electrons    :   7388.89s CPU   7755.26s WALL (      22 calls)
     update_pot   :      8.92s CPU     10.64s WALL (      21 calls)
     forces       :    122.70s CPU    136.85s WALL (      22 calls)
     force_london :      2.35s CPU      2.35s WALL (      22 calls)

     Called by init_run:
     wfcinit      :      5.48s CPU      5.68s WALL (       1 calls)
     potinit      :      0.85s CPU      1.09s WALL (       1 calls)
     hinit0       :      1.90s CPU      2.02s WALL (       1 calls)

     Called by electrons:
     c_bands      :   5617.00s CPU   5761.80s WALL (     448 calls)
     sum_band     :   1087.31s CPU   1162.02s WALL (     448 calls)
     v_of_rho     :    147.82s CPU    205.95s WALL (     459 calls)
     newd         :    405.79s CPU    467.86s WALL (     459 calls)
     mix_rho      :    139.61s CPU    142.33s WALL (     448 calls)
     energy_londo :      2.17s CPU      2.17s WALL (      22 calls)

     Called by c_bands:
     init_us_2    :     13.40s CPU     13.77s WALL (    1838 calls)
     init_us_2:cp :     13.39s CPU     13.76s WALL (    1838 calls)
     regterg      :   5490.60s CPU   5632.99s WALL (     897 calls)

     Called by *egterg:
     rdiaghg      :   1140.45s CPU   1201.09s WALL (    3119 calls)
     h_psi        :   2136.47s CPU   2172.79s WALL (    3185 calls)
     s_psi        :    340.13s CPU    340.27s WALL (    3185 calls)
     g_psi        :      2.53s CPU      2.54s WALL (    2286 calls)

     Called by h_psi:
     h_psi:calbec :    630.40s CPU    659.07s WALL (    3185 calls)
     vloc_psi     :   1160.88s CPU   1165.04s WALL (    3185 calls)
     add_vuspsi   :    341.02s CPU    344.41s WALL (    3185 calls)

     General routines
     calbec       :    973.36s CPU   1017.63s WALL (    4257 calls)
     fft          :    342.72s CPU    413.88s WALL (    8580 calls)
     ffts         :     77.60s CPU     77.78s WALL (   52411 calls)
     fftw         :   1338.28s CPU   1342.79s WALL ( 1512304 calls)
     interpolate  :      9.87s CPU     10.34s WALL (     918 calls)
 
     Parallel routines
 
     PWSCF        :      2h 6m CPU      2h13m WALL

 
   This run was terminated on:  21:30:40  17Nov2025            

=------------------------------------------------------------------------------=
   JOB DONE.
=------------------------------------------------------------------------------=
